INSANE! Membrane UpperLeaflet>loPI:POPI:DPPI:PYPI:ERGO=80.0:5.0:3.0:2.0:10.0 LowerLeaflet>loPI:POPI:DPPI:PYPI:ERGO=80.0:5.0:3.0:2.0:10.0
49019
    1loPI    C1    1   8.631   0.998  10.938 -0.2731  0.2221  0.1356
    1loPI    C2    2   8.620   0.769  11.267 -0.1108 -0.2228 -0.1593
    1loPI    C3    3   8.299   0.792  11.028 -0.2686  0.1916  0.0828
    1loPI   PO4    4   8.841   0.899  10.723  0.4079 -0.1990  0.1238
    1loPI   GL1    5   9.024   0.926  10.330 -0.0541  0.1151 -0.2358
    1loPI   GL2    6   8.843   0.655  10.301 -0.0657  0.2673  0.2201
    1loPI   C1A    7   9.245   0.872  10.058 -0.1218  0.1557 -0.1690
    1loPI   C2A    8   9.308   0.847   9.585  0.0119 -0.0801  0.0697
    1loPI   C3A    9   9.122   0.893   9.173  0.2433  0.0796 -0.2000
    1loPI   C4A   10   9.182   0.868   8.754  0.0663 -0.0145 -0.0296
    1loPI   C5A   11   9.123   1.242   8.420  0.1263 -0.0088 -0.2941
    1loPI   C6A   12   9.065   1.323   8.025  0.4246 -0.2366  0.0167
    1loPI   C1B   13   8.774   0.754   9.853 -0.2536  0.1134 -0.0978
    1loPI   C2B   14   8.731   0.705   9.417  0.3602  0.1556  0.2655
    1loPI   C3B   15   8.722   0.639   8.982  0.3033 -0.2165  0.0934
    1loPI   C4B   16   8.449   0.633   8.699 -0.1671  0.1951 -0.0764
    2loPI    C1   17  15.731   1.569  10.823 -0.1310 -0.0961 -0.0945
    2loPI    C2   18  15.842   1.234  10.635  0.1442 -0.0525 -0.0135
    2loPI    C3   19  15.834   1.246  11.035  0.2405  0.0698 -0.0148
    2loPI   PO4   20  15.737   1.724  10.595  0.1299 -0.0217  0.0860
    2loPI   GL1   21  15.779   1.604  10.214 -0.2142 -0.2344 -0.1251
    2loPI   GL2   22  16.092   1.510  10.051  0.0273  0.2185 -0.0839
    2loPI   C1A   23  15.684   1.474   9.793  0.4147 -0.0817  0.1305
    2loPI   C2A   24  15.441   1.572   9.436  0.1479 -0.0535 -0.0058
    2loPI   C3A   25  15.464   1.592   9.023 -0.3814 -0.0686 -0.3162
    2loPI   C4A   26  15.613   1.772   8.567 -0.0426 -0.0813  0.1723
    2loPI   C5A   27  16.041   1.787   8.406  0.2521 -0.0966  0.2538
    2loPI   C6A   28  16.321   1.827   7.983  0.2919 -0.0294  0.0824
    2loPI   C1B   29  16.303   1.740   9.744 -0.0732  0.2376  0.2286
    2loPI   C2B   30  16.319   1.779   9.329 -0.0879  0.2465 -0.2648
    2loPI   C3B   31  16.553   1.831   9.047  0.2436  0.0627  0.2215
    2loPI   C4B   32  16.397   2.033   8.703  0.0437  0.0847 -0.4520
    3loPI    C1   33  10.038   4.951  11.027 -0.2263 -0.1096  0.2805
    3loPI    C2   34   9.899   4.774  11.358 -0.2845  0.0614  0.3486
    3loPI    C3   35   9.945   5.172  11.348  0.1090  0.0184  0.2936
    3loPI   PO4   36   9.902   4.899  10.805 -0.2608 -0.0193  0.1065
    3loPI   GL1   37   9.871   5.068  10.410  0.0647 -0.1165 -0.1924
    3loPI   GL2   38   9.880   4.706  10.282  0.2251  0.0842 -0.2015
    3loPI   C1A   39   9.850   5.098   9.941  0.0106 -0.1931  0.0158
    3loPI   C2A   40   9.677   5.110   9.628 -0.1538 -0.0631 -0.1942
    3loPI   C3A   41   9.786   5.093   9.211  0.2029  0.0830  0.0948
    3loPI   C4A   42   9.658   5.038   8.842  0.0090 -0.2891 -0.0306
    3loPI   C5A   43   9.495   5.039   8.353 -0.0492 -0.0068  0.2442
    3loPI   C6A   44   9.331   4.709   8.045  0.1220 -0.1318 -0.0562
    3loPI   C1B   45  10.144   4.646  10.000  0.0725  0.0029 -0.0481
    3loPI   C2B   46   9.994   4.682   9.550  0.0356  0.5735 -0.1111
    3loPI   C3B   47   9.938   4.558   9.136 -0.1405 -0.2035 -0.0986
    3loPI   C4B   48  10.037   4.726   8.747 -0.3694  0.1681  0.0448
    4loPI    C1   49   1.724  13.600  10.993 -0.0452 -0.1027 -0.1211
    4loPI    C2   50   2.055  13.379  11.038 -0.0097 -0.0510 -0.1277
    4loPI    C3   51   1.852  13.505  11.360  0.1670  0.2019 -0.1123
    4loPI   PO4   52   1.759  13.578  10.686  0.0165 -0.1007  0.1069
    4loPI   GL1   53   1.717  13.902  10.311 -0.1749 -0.0356 -0.0334
    4loPI   GL2   54   1.425  14.134  10.198  0.1135 -0.2651 -0.0493
    4loPI   C1A   55   1.962  13.781   9.821 -0.0273 -0.0123  0.3792
    4loPI   C2A   56   2.094  13.541   9.399  0.1827 -0.0445  0.2339
    4loPI   C3A   57   2.218  13.409   9.034 -0.5076  0.4334  0.2189
    4loPI   C4A   58   2.197  13.299   8.631 -0.1544 -0.1268 -0.0741
    4loPI   C5A   59   2.083  13.042   8.296 -0.0619  0.1315 -0.0711
    4loPI   C6A   60   2.063  12.816   7.952  0.2053  0.1380  0.0534
    4loPI   C1B   61   1.478  14.066   9.830 -0.0140 -0.0279 -0.1634
    4loPI   C2B   62   1.678  13.883   9.443 -0.1005  0.0829 -0.1024
    4loPI   C3B   63   1.911  13.878   9.086  0.0271  0.2645  0.1710
    4loPI   C4B   64   2.162  13.793   8.706  0.0272  0.1033 -0.1769
    5loPI    C1   65  11.968  11.046  11.076 -0.0596 -0.2064  0.1649
    5loPI    C2   66  11.885  11.365  11.303  0.1570 -0.0309  0.0017
    5loPI    C3   67  12.056  11.043  11.466  0.0007 -0.0387  0.1533
    5loPI   PO4   68  12.159  11.149  10.842 -0.1044  0.3733 -0.0126
    5loPI   GL1   69  12.364  11.350  10.454 -0.2277  0.2245 -0.3517
    5loPI   GL2   70  12.621  11.525  10.551  0.0466  0.2769 -0.1145
    5loPI   C1A   71  12.251  11.232  10.017  0.0887  0.2121  0.2138
    5loPI   C2A   72  12.390  11.203   9.605 -0.0214  0.2053 -0.1950
    5loPI   C3A   73  12.408  11.282   9.108  0.0468  0.0244  0.1404
    5loPI   C4A   74  12.336  11.369   8.697 -0.0057 -0.2695 -0.0697
    5loPI   C5A   75  12.508  11.451   8.210 -0.0082 -0.3664 -0.0808
    5loPI   C6A   76  12.530  11.962   8.218 -0.2317 -0.0175  0.0944
    5loPI   C1B   77  12.548  11.564  10.089  0.1090 -0.2262 -0.2527
    5loPI   C2B   78  12.569  11.717   9.575 -0.0306  0.4598 -0.2343
    5loPI   C3B   79  12.583  11.751   9.079 -0.1537  0.1577  0.2691
    5loPI   C4B   80  12.650  11.760   8.651  0.0903 -0.1139  0.1460
    6loPI    C1   81  14.353   8.892  10.629 -0.0153 -0.2619  0.1381
    6loPI    C2   82  14.102   8.893  10.317  0.1170  0.0963  0.0279
    6loPI    C3   83  13.994   9.065  10.661  0.2042  0.2423 -0.0167
    6loPI   PO4   84  14.608   8.965  10.429  0.1768 -0.0245  0.1767
    6loPI   GL1   85  14.699   8.920  10.057 -0.1832  0.2666  0.2453
    6loPI   GL2   86  14.482   8.664  10.080  0.0718 -0.0113 -0.1751
    6loPI   C1A   87  14.538   8.852   9.616 -0.2641 -0.0470 -0.0324
    6loPI   C2A   88  14.364   8.783   9.240  0.3726 -0.3103  0.0596
    6loPI   C3A   89  14.541   8.887   8.871  0.0767  0.0643  0.1228
    6loPI   C4A   90  14.431   9.243   8.574 -0.2001 -0.2192 -0.0429
    6loPI   C5A   91  14.579   9.666   8.469  0.1375 -0.0832 -0.0766
    6loPI   C6A   92  14.846   9.819   8.165  0.0389  0.1700  0.2153
    6loPI   C1B   93  14.741   8.452   9.848  0.3905  0.1622  0.1550
    6loPI   C2B   94  14.652   8.390   9.364 -0.0488  0.1728 -0.0818
    6loPI   C3B   95  14.584   8.449   8.936  0.0456 -0.1446  0.0409
    6loPI   C4B   96  14.629   8.477   8.428 -0.1647  0.2323 -0.2000
    7loPI    C1   97   8.933   0.001  11.031 -0.1578 -0.0044 -0.0769
    7loPI    C2   98   8.706  -0.127  11.336 -0.0934  0.1640  0.0432
    7loPI    C3   99   8.828   0.254  11.322  0.2164  0.0668  0.0013
    7loPI   PO4  100   8.762  -0.055  10.754 -0.1108  0.2321  0.1034
    7loPI   GL1  101   8.943   0.208  10.408 -0.1601 -0.4446 -0.1778
    7loPI   GL2  102   8.617   0.193  10.302  0.1032 -0.2447  0.1162
    7loPI   C1A  103   9.135   0.394   9.948  0.1106  0.2076  0.1338
    7loPI   C2A  104   9.133   0.371   9.491 -0.1652  0.0424  0.1505
    7loPI   C3A  105   9.109   0.307   8.995  0.1871 -0.1233 -0.0811
    7loPI   C4A  106   8.950   0.443   8.609  0.0968 -0.0434 -0.1610
    7loPI   C5A  107   8.696   0.349   8.177  0.0500  0.0116  0.0827
    7loPI   C6A  108   8.524   0.368   7.710 -0.2669 -0.0766  0.1345
    7loPI   C1B  109   8.655   0.204   9.833  0.1403  0.1078 -0.1460
    7loPI   C2B  110   8.666   0.190   9.390  0.2042  0.3653  0.3621
    7loPI   C3B  111   8.592   0.181   8.975 -0.1419 -0.0634 -0.0004
    7loPI   C4B  112   8.456   0.086   8.547  0.1004  0.2618  0.0003
    8loPI    C1  113  14.923   6.725  10.332 -0.1079 -0.0130 -0.1323
    8loPI    C2  114  14.548   6.860  10.296 -0.1288 -0.0925 -0.2160
    8loPI    C3  115  14.684   6.737  10.652 -0.1155  0.1308 -0.1427
    8loPI   PO4  116  14.913   6.571  10.162  0.1191  0.0366 -0.0082
    8loPI   GL1  117  14.665   6.647   9.852  0.0570  0.1917 -0.2252
    8loPI   GL2  118  14.391   6.655   9.747 -0.4191 -0.1874  0.0081
    8loPI   C1A  119  14.674   7.088   9.573 -0.1040  0.0390 -0.0734
    8loPI   C2A  120  14.729   7.104   9.123 -0.3828  0.1768 -0.3767
    8loPI   C3A  121  14.947   6.753   8.879 -0.2424 -0.2273 -0.4764
    8loPI   C4A  122  14.998   6.483   8.513 -0.2491 -0.2691 -0.2888
    8loPI   C5A  123  14.959   6.073   8.348  0.2257 -0.1190 -0.0847
    8loPI   C6A  124  14.812   5.663   8.410  0.0173  0.0798 -0.2740
    8loPI   C1B  125  14.547   6.617   9.294  0.1553  0.3191  0.1624
    8loPI   C2B  126  14.483   6.491   8.895  0.1234  0.0616 -0.0182
    8loPI   C3B  127  14.423   6.447   8.496 -0.2483 -0.1618  0.3006
    8loPI   C4B  128  14.258   6.399   8.152  0.1919 -0.0967  0.0267
    9loPI    C1  129   6.831   7.426  11.212  0.0678  0.0156 -0.0187
    9loPI    C2  130   6.676   7.778  11.323 -0.3764 -0.1057 -0.2307
    9loPI    C3  131   6.729   7.488  11.594 -0.3302  0.0060 -0.1193
    9loPI   PO4  132   7.019   7.508  11.035  0.3596 -0.0123 -0.0652
    9loPI   GL1  133   6.871   7.551  10.608  0.0090  0.1764 -0.1866
    9loPI   GL2  134   6.748   7.706  10.276 -0.1793 -0.0653  0.0947
    9loPI   C1A  135   7.046   7.309  10.148 -0.1800 -0.1894  0.0177
    9loPI   C2A  136   7.040   7.239   9.795  0.1637  0.1443 -0.0509
    9loPI   C3A  137   7.103   7.284   9.373 -0.0304 -0.0717 -0.2032
    9loPI   C4A  138   7.230   7.400   8.949 -0.2522  0.1356 -0.1583
    9loPI   C5A  139   7.253   7.281   8.470  0.1146  0.0106 -0.3105
    9loPI   C6A  140   7.008   7.605   8.209  0.0776  0.0699 -0.1006
    9loPI   C1B  141   6.670   7.656   9.933  0.1391 -0.1461 -0.1214
    9loPI   C2B  142   6.794   7.677   9.527 -0.2432  0.1560 -0.1829
    9loPI   C3B  143   6.909   7.746   9.127  0.2642 -0.1168  0.1726
    9loPI   C4B  144   6.806   7.612   8.638  0.0173  0.3110 -0.0901
   10loPI    C1  145  17.652  15.371  10.854  0.1254  0.1897  0.1229
   10loPI    C2  146  17.403  15.267  11.150  0.1201  0.0012  0.0533
   10loPI    C3  147  17.798  15.269  11.212  0.1337 -0.2869 -0.0104
   10loPI   PO4  148  17.508  15.308  10.589 -0.2508 -0.1005 -0.1993
   10loPI   GL1  149  17.602  15.151  10.257  0.0618  0.1407  0.1226
   10loPI   GL2  150  17.851  14.891  10.360 -0.4152 -0.0433 -0.0096
   10loPI   C1A  151  17.748  15.147   9.787 -0.2293 -0.3448  0.2228
   10loPI   C2A  152  17.713  15.080   9.456  0.0553 -0.0534 -0.4277
   10loPI   C3A  153  17.766  15.199   9.078 -0.3227  0.1395 -0.0181
   10loPI   C4A  154  17.866  15.094   8.703 -0.1346 -0.3208 -0.1763
   10loPI   C5A  155  18.111  14.832   8.564  0.1582  0.2347 -0.0180
   10loPI   C6A  156  18.330  14.566   8.344  0.1144  0.1196  0.2230
   10loPI   C1B  157  17.834  14.629   9.966  0.3572 -0.1045 -0.0563
   10loPI   C2B  158  17.795  14.598   9.543 -0.2607 -0.1001 -0.0588
   10loPI   C3B  159  17.922  14.642   9.135 -0.0426  0.0092  0.0338
   10loPI   C4B  160  18.153  14.381   8.853  0.0766  0.0010  0.2506
   11loPI    C1  161  18.011  15.902  11.102  0.3436  0.1679  0.2597
   11loPI    C2  162  17.639  15.768  11.166  0.4113 -0.1527  0.0118
   11loPI    C3  163  17.806  16.026  11.423 -0.0421  0.1288  0.0352
   11loPI   PO4  164  18.085  15.632  11.001 -0.2282 -0.0131  0.0475
   11loPI   GL1  165  18.246  15.597  10.575 -0.3515  0.3243 -0.0870
   11loPI   GL2  166  18.038  15.344  10.443  0.0180  0.0638  0.0339
   11loPI   C1A  167  18.609  15.792  10.370 -0.0236 -0.2418  0.1820
   11loPI   C2A  168  18.884  15.789  10.040  0.2396 -0.0407 -0.4261
   11loPI   C3A  169  18.917  15.888   9.640  0.1047 -0.1262  0.1992
   11loPI   C4A  170  18.899  15.875   9.189  0.0194  0.0149  0.2686
   11loPI   C5A  171  18.920  16.087   8.752  0.0591 -0.1105 -0.1835
   11loPI   C6A  172  19.367  16.174   8.528  0.1374 -0.0375 -0.2145
   11loPI   C1B  173  18.016  15.525   9.974  0.1544 -0.1027 -0.4352
   11loPI   C2B  174  18.067  15.443   9.532  0.2162  0.3698  0.0765
   11loPI   C3B  175  18.087  15.580   9.130  0.0643 -0.1506 -0.0836
   11loPI   C4B  176  18.146  15.485   8.758  0.1966 -0.0152 -0.3374
   12loPI    C1  177  14.365  13.044  11.106 -0.0528  0.0857  0.2384
   12loPI    C2  178  14.107  13.090  11.408 -0.2715 -0.1827  0.0973
   12loPI    C3  179  14.162  12.729  11.245  0.0195 -0.0834 -0.0310
   12loPI   PO4  180  14.266  13.226  10.919  0.0679  0.0920  0.1289
   12loPI   GL1  181  14.445  13.406  10.606 -0.0262  0.1528  0.0361
   12loPI   GL2  182  14.277  13.798  10.814  0.2207  0.1024 -0.1370
   12loPI   C1A  183  14.517  13.469  10.137 -0.2300 -0.1264 -0.0659
   12loPI   C2A  184  14.551  13.359   9.743  0.0152 -0.2281  0.0318
   12loPI   C3A  185  14.582  13.294   9.341  0.1062 -0.0146 -0.2788
   12loPI   C4A  186  14.644  13.126   8.975 -0.0670 -0.1203  0.0100
   12loPI   C5A  187  14.953  12.745   8.779 -0.1190  0.0825 -0.1099
   12loPI   C6A  188  15.148  12.454   8.476  0.1233 -0.1134 -0.1288
   12loPI   C1B  189  14.317  13.959  10.363 -0.2660  0.2325  0.1161
   12loPI   C2B  190  14.400  13.907   9.877 -0.0651  0.1733  0.1293
   12loPI   C3B  191  14.364  13.797   9.449  0.2257  0.1078 -0.6063
   12loPI   C4B  192  14.421  13.705   9.102  0.3563 -0.1453 -0.0702
   13loPI    C1  193  14.980  10.964  11.069 -0.3061  0.0664  0.1366
   13loPI    C2  194  15.053  11.260  11.328  0.0929  0.0760  0.0201
   13loPI    C3  195  15.055  10.879  11.453  0.1293  0.0897  0.0621
   13loPI   PO4  196  15.034  11.085  10.877  0.0733 -0.1371 -0.2580
   13loPI   GL1  197  15.063  11.402  10.443  0.0301  0.0218 -0.2839
   13loPI   GL2  198  15.176  11.074  10.360  0.4549 -0.2030  0.0968
   13loPI   C1A  199  15.292  11.459   9.941 -0.4827 -0.0706 -0.0965
   13loPI   C2A  200  15.170  11.614   9.500 -0.1777  0.1370  0.2939
   13loPI   C3A  201  14.977  11.710   9.132  0.0307 -0.3032 -0.0783
   13loPI   C4A  202  14.690  11.653   8.756  0.2431 -0.0411 -0.1401
   13loPI   C5A  203  14.451  11.716   8.400  0.0936  0.0621 -0.2478
   13loPI   C6A  204  14.224  11.601   8.036  0.1502  0.0363 -0.1776
   13loPI   C1B  205  14.813  11.231  10.042  0.0196 -0.0891 -0.1799
   13loPI   C2B  206  14.760  11.274   9.637  0.0924 -0.1721  0.0382
   13loPI   C3B  207  14.857  11.226   9.222 -0.2890 -0.2108 -0.0254
   13loPI   C4B  208  15.020  11.361   8.655 -0.3691 -0.0156 -0.1738
   14loPI    C1  209  13.382   8.046  10.930  0.1177  0.0841 -0.0501
   14loPI    C2  210  13.404   8.428  10.813  0.4261  0.1408  0.1818
   14loPI    C3  211  13.455   8.333  11.199 -0.3170 -0.0693  0.2428
   14loPI   PO4  212  13.129   7.928  10.846  0.2725  0.4129 -0.0588
   14loPI   GL1  213  12.910   7.682  10.511 -0.1166  0.2431 -0.1647
   14loPI   GL2  214  12.897   8.062  10.384 -0.0128 -0.0716  0.1781
   14loPI   C1A  215  13.052   7.635  10.172  0.0660 -0.1113  0.1230
   14loPI   C2A  216  13.002   7.622   9.736 -0.1129 -0.2467  0.1393
   14loPI   C3A  217  12.957   7.582   9.208 -0.2885 -0.1907  0.1673
   14loPI   C4A  218  12.999   7.693   8.747  0.0715 -0.1081  0.2164
   14loPI   C5A  219  12.904   7.364   8.435  0.1397  0.3835  0.1815
   14loPI   C6A  220  12.765   7.301   7.979 -0.0770  0.3171  0.1229
   14loPI   C1B  221  12.988   8.169   9.921  0.2090 -0.3246  0.2085
   14loPI   C2B  222  13.195   8.076   9.570 -0.2156  0.2529 -0.1599
   14loPI   C3B  223  13.132   8.073   9.163 -0.1573 -0.3344  0.0893
   14loPI   C4B  224  13.164   8.173   8.748 -0.4080  0.1438 -0.0447
   15loPI    C1  225   9.398  16.496  11.017  0.0491 -0.3663  0.0054
   15loPI    C2  226   9.693  16.440  11.281  0.0667  0.0781  0.0875
   15loPI    C3  227   9.335  16.568  11.406 -0.0535 -0.1135 -0.0560
   15loPI   PO4  228   9.543  16.665  10.817  0.0569  0.1035 -0.1205
   15loPI   GL1  229   9.521  16.592  10.437  0.3494 -0.1508  0.1398
   15loPI   GL2  230   9.427  16.265  10.424  0.1180 -0.0849  0.2585
   15loPI   C1A  231   9.880  16.479  10.221  0.2432 -0.2108 -0.0268
   15loPI   C2A  232  10.188  16.521   9.841  0.1560  0.0814 -0.0766
   15loPI   C3A  233  10.472  16.475   9.637  0.0187 -0.1432 -0.0801
   15loPI   C4A  234  10.729  16.577   9.224 -0.1915  0.0696 -0.2504
   15loPI   C5A  235  10.738  16.209   8.911  0.1828 -0.1122  0.0951
   15loPI   C6A  236  10.742  16.179   8.499 -0.1033 -0.0839  0.1218
   15loPI   C1B  237   9.235  16.366  10.074 -0.0922 -0.0712 -0.0021
   15loPI   C2B  238   9.113  16.504   9.551 -0.1029 -0.1379  0.4279
   15loPI   C3B  239   9.121  16.629   9.132 -0.2306  0.3274  0.2176
   15loPI   C4B  240   9.155  16.574   8.699 -0.0811 -0.1341  0.0817
   16loPI    C1  241   4.352  15.543  11.292 -0.3122 -0.0274  0.0183
   16loPI    C2  242   4.088  15.580  11.590 -0.1220 -0.1062  0.1988
   16loPI    C3  243   4.477  15.642  11.658 -0.0876 -0.0304 -0.0562
   16loPI   PO4  244   4.226  15.573  11.044  0.1091 -0.3288  0.1859
   16loPI   GL1  245   4.270  15.394  10.669 -0.3303 -0.1435 -0.0135
   16loPI   GL2  246   3.983  15.461  10.369  0.0963  0.0094  0.1448
   16loPI   C1A  247   4.511  15.289  10.324  0.5432 -0.0017 -0.2245
   16loPI   C2A  248   4.456  15.231   9.881 -0.0337 -0.1014 -0.2810
   16loPI   C3A  249   4.405  15.154   9.485 -0.1433 -0.1053  0.2619
   16loPI   C4A  250   4.392  15.162   8.983  0.1676  0.2048  0.1035
   16loPI   C5A  251   4.265  15.073   8.553 -0.1941 -0.2818 -0.0809
   16loPI   C6A  252   4.106  14.943   8.183  0.0274  0.0297 -0.0755
   16loPI   C1B  253   3.928  15.289   9.903 -0.0578  0.0137 -0.3508
   16loPI   C2B  254   3.876  15.266   9.391 -0.1542  0.2231  0.0172
   16loPI   C3B  255   3.842  15.167   8.983 -0.2107 -0.0211  0.2083
   16loPI   C4B  256   3.793  15.164   8.561 -0.0563  0.1987  0.2789
   17loPI    C1  257  16.183   2.576  11.010 -0.0452  0.0375 -0.2369
   17loPI    C2  258  15.888   2.812  10.876  0.1070  0.4219  0.0838
   17loPI    C3  259  15.857   2.635  11.234  0.0941  0.1329 -0.0567
   17loPI   PO4  260  16.317   2.417  10.743 -0.3346 -0.0980 -0.1000
   17loPI   GL1  261  16.322   2.162  10.430  0.0288  0.0325 -0.0530
   17loPI   GL2  262  16.129   2.012  10.370 -0.1190  0.1646  0.0744
   17loPI   C1A  263  16.354   2.260  10.023  0.2790 -0.0239  0.0533
   17loPI   C2A  264  16.426   2.215   9.558 -0.0657 -0.0192 -0.2405
   17loPI   C3A  265  16.487   2.308   9.149 -0.0474  0.1195  0.0412
   17loPI   C4A  266  16.804   2.265   8.820 -0.0785 -0.0334 -0.1216
   17loPI   C5A  267  16.845   2.163   8.462  0.0749  0.2711 -0.0095
   17loPI   C6A  268  17.149   2.079   8.147  0.2036  0.0206 -0.0456
   17loPI   C1B  269  15.938   1.981   9.937 -0.2499 -0.3094  0.2415
   17loPI   C2B  270  15.860   1.913   9.519 -0.1099  0.0326  0.2236
   17loPI   C3B  271  15.886   1.783   9.076 -0.4095 -0.1400 -0.2745
   17loPI   C4B  272  16.143   1.606   8.869 -0.1206  0.1126 -0.2093
   18loPI    C1  273   6.970  14.916  10.848  0.0201  0.2166 -0.1406
   18loPI    C2  274   7.341  14.769  10.878 -0.0529  0.0200 -0.1815
   18loPI    C3  275   7.161  14.928  11.199  0.0494  0.0753 -0.1511
   18loPI   PO4  276   6.997  15.125  10.656  0.0325  0.2427  0.2172
   18loPI   GL1  277   7.015  14.985  10.291  0.1584  0.0711 -0.1772
   18loPI   GL2  278   7.309  14.758  10.331  0.1966 -0.0917  0.0861
   18loPI   C1A  279   6.815  14.947   9.859 -0.0760  0.0601 -0.3136
   18loPI   C2A  280   6.871  14.973   9.440 -0.0503 -0.1256  0.0677
   18loPI   C3A  281   6.954  15.000   9.016  0.1070 -0.1236 -0.0146
   18loPI   C4A  282   6.766  14.945   8.679  0.2627  0.1084 -0.0240
   18loPI   C5A  283   6.518  15.005   8.311  0.2062  0.1606  0.1613
   18loPI   C6A  284   6.074  14.794   8.250  0.0203 -0.0954 -0.1322
   18loPI   C1B  285   7.383  14.804   9.934  0.0061 -0.1261 -0.1057
   18loPI   C2B  286   7.349  14.738   9.467  0.0234  0.0907  0.0958
   18loPI   C3B  287   7.556  14.642   9.064 -0.2780 -0.1010 -0.3127
   18loPI   C4B  288   7.640  14.326   8.794 -0.0563  0.1316 -0.3671
   19loPI    C1  289   4.556  14.213  10.837 -0.0106  0.0971  0.1184
   19loPI    C2  290   4.767  14.052  11.136  0.0252 -0.1608 -0.0426
   19loPI    C3  291   4.369  14.011  11.127 -0.0188  0.1814  0.1721
   19loPI   PO4  292   4.655  14.460  10.787  0.1393  0.1601  0.0791
   19loPI   GL1  293   4.840  14.644  10.443 -0.1163 -0.0823 -0.0083
   19loPI   GL2  294   4.818  14.381  10.315  0.1478 -0.2456 -0.0120
   19loPI   C1A  295   4.617  14.771  10.118 -0.4315 -0.0348 -0.0481
   19loPI   C2A  296   4.619  14.661   9.713 -0.0368 -0.1814 -0.1626
   19loPI   C3A  297   4.623  14.694   9.310  0.0711  0.0727 -0.0949
   19loPI   C4A  298   4.553  14.709   8.849 -0.0151 -0.0137 -0.2417
   19loPI   C5A  299   4.602  14.754   8.382 -0.0730 -0.0320 -0.3552
   19loPI   C6A  300   5.002  14.670   8.127  0.3252  0.0086 -0.1285
   19loPI   C1B  301   4.726  14.192   9.973 -0.1953  0.0712  0.1015
   19loPI   C2B  302   4.740  14.204   9.557 -0.2258 -0.1268  0.2729
   19loPI   C3B  303   4.812  14.200   9.097 -0.1542  0.1076  0.0221
   19loPI   C4B  304   4.989  14.402   8.574  0.0677  0.0450 -0.2862
   20loPI    C1  305   1.035   4.944  10.599 -0.0048  0.0783 -0.0267
   20loPI    C2  306   1.374   5.140  10.681 -0.0062  0.0816 -0.0290
   20loPI    C3  307   1.259   4.834  10.912  0.1564 -0.1189 -0.2088
   20loPI   PO4  308   1.074   4.912  10.300 -0.2213 -0.2141  0.0707
   20loPI   GL1  309   0.717   4.715  10.062 -0.0009  0.1089  0.1091
   20loPI   GL2  310   0.406   4.855   9.999 -0.1127  0.0356 -0.2513
   20loPI   C1A  311   0.839   4.702   9.617 -0.0589  0.2433 -0.2917
   20loPI   C2A  312   0.805   4.671   9.199  0.2374  0.1717 -0.0229
   20loPI   C3A  313   0.834   4.714   8.796 -0.1531  0.0401  0.1787
   20loPI   C4A  314   0.849   4.705   8.344 -0.0866 -0.1858 -0.1849
   20loPI   C5A  315   0.703   4.730   7.948 -0.0133  0.0590 -0.1143
   20loPI   C6A  316   0.844   4.714   7.538 -0.2711  0.1463  0.1950
   20loPI   C1B  317   0.376   4.867   9.537 -0.0669 -0.2160  0.3412
   20loPI   C2B  318   0.352   4.888   9.154  0.2337  0.0979  0.1568
   20loPI   C3B  319   0.345   4.720   8.668 -0.1723  0.0277  0.1247
   20loPI   C4B  320   0.324   4.730   8.279  0.3608  0.1467 -0.1409
   21loPI    C1  321   5.108  10.888  11.127  0.0795 -0.0804 -0.0035
   21loPI    C2  322   5.366  10.664  11.334  0.1814 -0.1531 -0.2061
   21loPI    C3  323   5.368  11.062  11.375  0.0527 -0.1807  0.0956
   21loPI   PO4  324   5.030  10.748  10.901 -0.0140 -0.0261 -0.3328
   21loPI   GL1  325   5.159  10.658  10.473 -0.0852 -0.1140 -0.0152
   21loPI   GL2  326   5.550  10.760  10.339  0.1872  0.1054 -0.1398
   21loPI   C1A  327   5.220  10.596  10.008  0.1024  0.0757  0.2770
   21loPI   C2A  328   5.321  10.518   9.596  0.1242  0.0398  0.0246
   21loPI   C3A  329   5.339  10.446   9.210  0.0405  0.1935  0.0507
   21loPI   C4A  330   5.362  10.367   8.777 -0.3702 -0.1039  0.1622
   21loPI   C5A  331   5.450  10.081   8.419 -0.2299  0.0126 -0.0058
   21loPI   C6A  332   5.676  10.174   7.973 -0.2233  0.0087  0.5034
   21loPI   C1B  333   5.614  10.903   9.960  0.1098 -0.1935  0.0986
   21loPI   C2B  334   5.624  10.909   9.488  0.1756 -0.2166 -0.1267
   21loPI   C3B  335   5.693  10.815   9.044  0.0402 -0.1580 -0.0606
   21loPI   C4B  336   5.528  10.798   8.685 -0.1211 -0.2278 -0.1432
   22loPI    C1  337  15.898  16.370  11.227  0.0154  0.0435  0.1724
   22loPI    C2  338  15.638  16.259  11.510  0.1176  0.0533  0.2709
   22loPI    C3  339  15.905  15.996  11.368  0.1293  0.0752  0.2521
   22loPI   PO4  340  15.833  16.480  10.907  0.1362  0.1480 -0.1350
   22loPI   GL1  341  15.541  16.481  10.597  0.0420 -0.3126  0.1671
   22loPI   GL2  342  15.475  16.770  10.676 -0.0095 -0.1234  0.3818
   22loPI   C1A  343  15.650  16.369  10.163  0.0531  0.1590  0.0534
   22loPI   C2A  344  15.747  16.309   9.824  0.1793  0.0468 -0.0221
   22loPI   C3A  345  15.826  16.268   9.392 -0.1708 -0.1280  0.0436
   22loPI   C4A  346  15.963  16.404   8.908  0.2233 -0.2453  0.0003
   22loPI   C5A  347  15.886  16.347   8.441 -0.1409  0.2588 -0.0912
   22loPI   C6A  348  15.852  16.490   8.012  0.0169 -0.1714 -0.1802
   22loPI   C1B  349  15.476  16.825  10.240  0.1332 -0.0748 -0.3420
   22loPI   C2B  350  15.492  16.748   9.886  0.2128  0.1302  0.0568
   22loPI   C3B  351  15.584  16.755   9.493  0.1229 -0.1804 -0.0902
   22loPI   C4B  352  15.719  16.874   8.977 -0.2150  0.0157 -0.1822
   23loPI    C1  353   2.754  10.538  10.768  0.2688 -0.0531 -0.0529
   23loPI    C2  354   2.544  10.279  10.988 -0.0590  0.0624 -0.2243
   23loPI    C3  355   2.727  10.588  11.164 -0.2213  0.0882 -0.0983
   23loPI   PO4  356   2.844  10.369  10.607 -0.2112  0.0573  0.2692
   23loPI   GL1  357   2.792  10.314  10.222 -0.0332  0.2456 -0.0261
   23loPI   GL2  358   2.655  10.691  10.286  0.0189 -0.0293  0.0624
   23loPI   C1A  359   2.808  10.393   9.712 -0.1384  0.1171  0.1196
   23loPI   C2A  360   2.898  10.356   9.261 -0.0212 -0.0816  0.1112
   23loPI   C3A  361   2.921  10.355   8.810 -0.0513 -0.2196 -0.2302
   23loPI   C4A  362   2.796  10.247   8.354 -0.0062 -0.2488 -0.2379
   23loPI   C5A  363   2.849  10.279   7.914 -0.0853 -0.0383 -0.1007
   23loPI   C6A  364   3.154  10.579   7.766  0.0664 -0.1460  0.2711
   23loPI   C1B  365   2.560  10.990  10.007 -0.4114  0.0451  0.1921
   23loPI   C2B  366   2.434  10.983   9.598 -0.1467 -0.1660  0.3873
   23loPI   C3B  367   2.483  10.699   9.377  0.0415 -0.1225  0.2192
   23loPI   C4B  368   2.663  10.815   8.961 -0.1583 -0.1986 -0.2273
   24loPI    C1  369   4.132   3.621  11.031 -0.4333 -0.0840  0.0363
   24loPI    C2  370   4.113   3.384  11.352  0.1431 -0.0054  0.1392
   24loPI    C3  371   4.146   3.780  11.398 -0.2217  0.0484 -0.0271
   24loPI   PO4  372   3.923   3.610  10.924 -0.0927 -0.1795  0.2419
   24loPI   GL1  373   3.885   3.515  10.510  0.1899  0.1808 -0.0547
   24loPI   GL2  374   4.109   3.279  10.528  0.0910  0.1946  0.1463
   24loPI   C1A  375   3.848   3.643  10.054 -0.1678 -0.0309  0.0131
   24loPI   C2A  376   3.780   3.566   9.622  0.2771 -0.0573 -0.0558
   24loPI   C3A  377   3.617   3.694   9.110  0.0790 -0.0457 -0.0177
   24loPI   C4A  378   3.539   3.572   8.736 -0.1577 -0.1383  0.0378
   24loPI   C5A  379   3.476   3.547   8.269 -0.0918 -0.1293  0.1642
   24loPI   C6A  380   3.512   3.412   7.970  0.0657  0.4450  0.1597
   24loPI   C1B  381   4.202   3.319  10.090 -0.1762 -0.0586  0.0520
   24loPI   C2B  382   4.177   3.302   9.632  0.0860 -0.1380 -0.4116
   24loPI   C3B  383   4.123   3.332   9.318  0.0024 -0.0407 -0.1493
   24loPI   C4B  384   3.893   3.245   8.901  0.0041 -0.0184  0.1104
   25loPI    C1  385  16.388   3.032  10.949 -0.4009 -0.0343 -0.0112
   25loPI    C2  386  16.054   3.233  11.041 -0.1565  0.2875  0.1975
   25loPI    C3  387  16.241   3.016  11.321 -0.0693  0.2881  0.1400
   25loPI   PO4  388  16.371   2.970  10.651 -0.2466  0.1743  0.1709
   25loPI   GL1  389  16.157   2.779  10.405 -0.0817 -0.1884 -0.0060
   25loPI   GL2  390  15.903   2.618  10.418 -0.1992  0.0178  0.0191
   25loPI   C1A  391  16.245   2.705   9.923  0.1136 -0.0611 -0.0191
   25loPI   C2A  392  16.192   2.645   9.445 -0.3368 -0.0636 -0.1725
   25loPI   C3A  393  16.045   2.848   9.079 -0.0785 -0.1136  0.1851
   25loPI   C4A  394  16.055   2.813   8.689  0.0108 -0.3357 -0.2049
   25loPI   C5A  395  15.918   2.770   8.289 -0.1754  0.0273 -0.0496
   25loPI   C6A  396  15.819   2.509   8.006 -0.0855 -0.1322 -0.1268
   25loPI   C1B  397  15.866   2.514  10.078  0.1669 -0.1553 -0.3479
   25loPI   C2B  398  15.758   2.390   9.599 -0.0699  0.1365 -0.1756
   25loPI   C3B  399  15.976   2.325   9.190 -0.3621 -0.1392  0.0254
   25loPI   C4B  400  15.942   2.171   8.748 -0.0477 -0.2126  0.0637
   26loPI    C1  401  13.816   7.715  10.783 -0.0299 -0.0363  0.0531
   26loPI    C2  402  13.794   7.815  11.170  0.0286 -0.2083  0.1019
   26loPI    C3  403  14.089   7.578  11.041 -0.1311 -0.3532 -0.0030
   26loPI   PO4  404  13.637   7.669  10.696  0.0414 -0.3274 -0.0519
   26loPI   GL1  405  13.533   7.496  10.372 -0.0127  0.0828 -0.1006
   26loPI   GL2  406  13.820   7.606  10.253 -0.0939 -0.2084 -0.0629
   26loPI   C1A  407  13.470   7.770   9.937  0.0132 -0.1522 -0.2282
   26loPI   C2A  408  13.545   7.757   9.455 -0.0257  0.0212  0.1763
   26loPI   C3A  409  13.560   7.647   9.048  0.2920 -0.0877 -0.0470
   26loPI   C4A  410  13.555   7.905   8.686 -0.0684  0.1868 -0.2068
   26loPI   C5A  411  13.429   7.981   8.328  0.3358  0.1316 -0.4184
   26loPI   C6A  412  13.008   8.105   8.227 -0.2691  0.0167  0.2146
   26loPI   C1B  413  13.801   7.421   9.923  0.0493 -0.1472 -0.0637
   26loPI   C2B  414  13.914   7.403   9.485  0.0634  0.1144  0.0033
   26loPI   C3B  415  13.951   7.338   9.053  0.0508  0.0488 -0.1281
   26loPI   C4B  416  13.981   7.492   8.574  0.1363  0.2088  0.1989
   27loPI    C1  417   4.532  11.673  10.874 -0.0363  0.0654 -0.0338
   27loPI    C2  418   4.137  11.610  10.887 -0.0090 -0.0680  0.1948
   27loPI    C3  419   4.292  11.942  11.046 -0.0511  0.0992 -0.1072
   27loPI   PO4  420   4.625  11.654  10.598  0.0078 -0.0014  0.1557
   27loPI   GL1  421   4.597  11.644  10.141  0.1307  0.0631 -0.0900
   27loPI   GL2  422   4.411  11.605   9.949 -0.0420  0.0840 -0.3784
   27loPI   C1A  423   4.789  11.883   9.852  0.2821  0.0920  0.3075
   27loPI   C2A  424   4.727  11.856   9.400 -0.0995 -0.2681 -0.3778
   27loPI   C3A  425   4.722  11.824   9.050  0.3862 -0.2200 -0.1790
   27loPI   C4A  426   4.661  11.858   8.603  0.3236 -0.0253 -0.1046
   27loPI   C5A  427   4.835  11.861   8.255  0.1045 -0.1784  0.2737
   27loPI   C6A  428   4.864  11.957   7.774 -0.0472  0.2828 -0.1474
   27loPI   C1B  429   4.428  11.497   9.490 -0.1553 -0.0582  0.1625
   27loPI   C2B  430   4.486  11.406   9.016  0.3864 -0.2136  0.1975
   27loPI   C3B  431   4.390  11.453   8.655 -0.1666  0.0428  0.1899
   27loPI   C4B  432   4.523  11.232   8.347  0.2170 -0.0341  0.3847
   28loPI    C1  433   9.870   3.534  10.902  0.1105  0.1109 -0.0793
   28loPI    C2  434   9.790   3.281  11.201  0.0690  0.1296 -0.0746
   28loPI    C3  435   9.556   3.600  11.141  0.0893  0.1370 -0.1142
   28loPI   PO4  436   9.804   3.430  10.603 -0.0702 -0.0715 -0.0009
   28loPI   GL1  437   9.539   3.594  10.309  0.1243  0.3694  0.0131
   28loPI   GL2  438   9.363   3.249  10.309  0.2161 -0.2738 -0.0203
   28loPI   C1A  439   9.702   3.714   9.915  0.2027 -0.0684  0.0189
   28loPI   C2A  440   9.591   3.604   9.478  0.1539  0.1462 -0.0463
   28loPI   C3A  441   9.490   3.710   9.059 -0.1280  0.2056  0.0756
   28loPI   C4A  442   9.345   3.818   8.695  0.0594 -0.2941  0.2004
   28loPI   C5A  443   9.333   4.142   8.440  0.1025 -0.1588  0.1128
   28loPI   C6A  444   9.423   4.203   8.030  0.2700  0.0012  0.1599
   28loPI   C1B  445   9.370   3.132   9.862  0.1235  0.0835 -0.2301
   28loPI   C2B  446   9.329   3.139   9.406  0.0754  0.0588  0.1547
   28loPI   C3B  447   9.420   3.236   9.007 -0.0922  0.0517 -0.0747
   28loPI   C4B  448   9.272   3.276   8.603 -0.0123  0.0542 -0.2620
   29loPI    C1  449   1.953   5.939  10.845 -0.0484  0.3125  0.0301
   29loPI    C2  450   1.709   6.246  10.927 -0.0214  0.3135  0.1077
   29loPI    C3  451   1.776   5.965  11.203 -0.1321  0.1789 -0.0007
   29loPI   PO4  452   1.869   5.887  10.540  0.1023 -0.1348  0.1525
   29loPI   GL1  453   1.862   5.854  10.182  0.0802  0.1294 -0.0572
   29loPI   GL2  454   2.149   5.990  10.137 -0.0785 -0.0631 -0.1055
   29loPI   C1A  455   1.824   5.523   9.868 -0.0623 -0.1271  0.0752
   29loPI   C2A  456   1.889   5.478   9.455 -0.0875  0.0584 -0.0574
   29loPI   C3A  457   1.967   5.429   9.010  0.2442 -0.0162 -0.1460
   29loPI   C4A  458   2.000   5.704   8.655 -0.1545  0.0172 -0.0265
   29loPI   C5A  459   2.180   5.878   8.322  0.0523 -0.2453  0.0283
   29loPI   C6A  460   2.092   5.890   7.857 -0.2407  0.0940 -0.1444
   29loPI   C1B  461   2.326   5.790   9.917 -0.2836  0.0295 -0.2622
   29loPI   C2B  462   2.358   5.763   9.500 -0.1480 -0.0587 -0.4160
   29loPI   C3B  463   2.334   5.800   9.123 -0.0394  0.0490  0.0370
   29loPI   C4B  464   2.525   5.744   8.732 -0.1302  0.0111  0.0575
   30loPI    C1  465  17.451   8.349  10.425  0.1171  0.0043 -0.0391
   30loPI    C2  466  17.203   8.114  10.633 -0.1967 -0.0214 -0.4301
   30loPI    C3  467  17.574   7.990  10.549 -0.0335  0.0255  0.1762
   30loPI   PO4  468  17.334   8.374  10.191  0.1054 -0.0791 -0.2890
   30loPI   GL1  469  17.419   8.350   9.856 -0.0152 -0.1772  0.1896
   30loPI   GL2  470  17.686   8.579   9.910 -0.2342  0.0236 -0.3983
   30loPI   C1A  471  17.476   8.436   9.386  0.0450  0.2737 -0.0950
   30loPI   C2A  472  17.590   8.663   8.982  0.3425 -0.0634 -0.0932
   30loPI   C3A  473  17.907   8.690   8.625 -0.0700 -0.1891  0.1525
   30loPI   C4A  474  18.326   8.736   8.518 -0.1258  0.1676  0.0382
   30loPI   C5A  475  18.691   9.056   8.302  0.2904 -0.2017  0.1538
   30loPI   C6A  476  18.766   9.257   7.972  0.1807 -0.3968  0.1067
   30loPI   C1B  477  17.798   8.807   9.537  0.4340  0.1566 -0.1363
   30loPI   C2B  478  17.937   9.034   9.231 -0.0267 -0.0066 -0.0892
   30loPI   C3B  479  18.186   9.085   8.842  0.0916  0.0566  0.0443
   30loPI   C4B  480  18.210   9.373   8.530  0.2161 -0.0456 -0.0299
   31loPI    C1  481  12.968  17.066  11.039 -0.0484 -0.3993 -0.1870
   31loPI    C2  482  12.967  17.192  11.419 -0.2030  0.2546 -0.3923
   31loPI    C3  483  13.092  16.823  11.331  0.0469  0.1702  0.2654
   31loPI   PO4  484  13.046  17.296  10.887  0.1777  0.1712  0.0320
   31loPI   GL1  485  13.269  17.308  10.542  0.2083  0.0686 -0.1826
   31loPI   GL2  486  13.236  16.957  10.545 -0.0321  0.0373  0.1813
   31loPI   C1A  487  13.463  17.254  10.189  0.1427  0.2396 -0.1183
   31loPI   C2A  488  13.499  17.152   9.788  0.0841  0.1631 -0.3726
   31loPI   C3A  489  13.360  17.108   9.352  0.1637  0.1386 -0.1559
   31loPI   C4A  490  13.437  17.096   8.968  0.1266  0.0497  0.0179
   31loPI   C5A  491  13.673  17.228   8.686 -0.0158  0.0031 -0.3433
   31loPI   C6A  492  13.555  17.531   8.385 -0.0575  0.1307  0.1866
   31loPI   C1B  493  13.293  16.749  10.085 -0.2315 -0.1980 -0.1103
   31loPI   C2B  494  13.329  16.660   9.675 -0.2155  0.1097  0.1327
   31loPI   C3B  495  13.156  16.633   9.214  0.0576  0.0513  0.1520
   31loPI   C4B  496  13.038  16.457   8.754  0.1783 -0.2251 -0.1617
   32loPI    C1  497   3.686   5.918  10.975  0.0954 -0.2003 -0.0331
   32loPI    C2  498   3.586   6.203  11.237 -0.0470 -0.0306 -0.2682
   32loPI    C3  499   3.897   5.962  11.312 -0.0621  0.0409  0.0359
   32loPI   PO4  500   3.707   6.032  10.795  0.0860 -0.0069 -0.0820
   32loPI   GL1  501   3.500   6.150  10.408  0.0839  0.1408  0.1817
   32loPI   GL2  502   3.674   6.380  10.275 -0.0359 -0.3713 -0.1433
   32loPI   C1A  503   3.669   5.989   9.962  0.0956  0.2441 -0.0982
   32loPI   C2A  504   3.747   5.890   9.496 -0.0448  0.4990 -0.0130
   32loPI   C3A  505   3.758   5.894   9.015 -0.0473 -0.1564 -0.0067
   32loPI   C4A  506   3.892   5.989   8.595  0.0876  0.1411 -0.2920
   32loPI   C5A  507   3.930   5.753   8.289 -0.4398  0.0739 -0.4011
   32loPI   C6A  508   3.900   5.767   7.928  0.0732 -0.1163 -0.0804
   32loPI   C1B  509   3.676   6.460   9.802  0.1734 -0.0066  0.2213
   32loPI   C2B  510   3.741   6.501   9.345  0.0163 -0.0084  0.0401
   32loPI   C3B  511   3.847   6.366   8.923  0.0443 -0.0641 -0.1785
   32loPI   C4B  512   3.912   6.431   8.448  0.2003 -0.4054  0.0077
   33loPI    C1  513   3.682  11.720  10.925 -0.1074  0.2247 -0.0623
   33loPI    C2  514   3.439  11.405  10.966  0.1994 -0.0128 -0.0277
   33loPI    C3  515   3.408  11.716  11.216 -0.0806 -0.0297 -0.0383
   33loPI   PO4  516   3.662  11.735  10.564  0.4020  0.0489 -0.1041
   33loPI   GL1  517   3.434  11.787  10.167  0.1348  0.3815 -0.1576
   33loPI   GL2  518   3.293  12.081  10.013  0.2727 -0.0342  0.2036
   33loPI   C1A  519   3.401  11.604   9.791  0.1096  0.1491  0.2767
   33loPI   C2A  520   3.273  11.659   9.303 -0.1283  0.0223  0.1046
   33loPI   C3A  521   3.325  11.560   8.909 -0.1458 -0.1328  0.2593
   33loPI   C4A  522   3.181  11.469   8.471 -0.0671  0.0986  0.0047
   33loPI   C5A  523   2.834  11.574   8.289 -0.0811  0.2032 -0.2363
   33loPI   C6A  524   2.597  11.815   8.035  0.0547 -0.4708 -0.2114
   33loPI   C1B  525   3.262  12.131   9.518 -0.1017  0.0440 -0.2315
   33loPI   C2B  526   3.162  12.092   9.071  0.0631  0.2286  0.1070
   33loPI   C3B  527   3.023  12.093   8.681 -0.0302 -0.4124  0.0087
   33loPI   C4B  528   3.036  12.108   8.228 -0.1041  0.1285 -0.0776
   34loPI    C1  529  12.339  14.558  11.207  0.2695  0.0136 -0.0254
   34loPI    C2  530  12.126  14.263  11.373  0.1228  0.0499 -0.1462
   34loPI    C3  531  12.331  14.517  11.604  0.0938 -0.0295 -0.0324
   34loPI   PO4  532  12.143  14.676  11.012  0.0275 -0.0685 -0.0129
   34loPI   GL1  533  11.946  14.322  10.857  0.0482  0.1282  0.0137
   34loPI   GL2  534  11.843  14.293  10.567 -0.1468 -0.4133 -0.2803
   34loPI   C1A  535  12.292  14.231  10.412  0.2113 -0.0608 -0.2488
   34loPI   C2A  536  12.517  14.149  10.014  0.1105  0.1674  0.0380
   34loPI   C3A  537  12.705  13.956   9.730 -0.4957 -0.0941  0.0370
   34loPI   C4A  538  12.779  14.000   9.367 -0.0253 -0.0495 -0.0602
   34loPI   C5A  539  13.010  14.099   8.983 -0.0517 -0.0525 -0.0749
   34loPI   C6A  540  12.990  14.159   8.658 -0.1783  0.1178  0.3433
   34loPI   C1B  541  11.674  14.598  10.225 -0.1993  0.0815  0.1873
   34loPI   C2B  542  11.709  14.683   9.757  0.1395 -0.2922  0.2695
   34loPI   C3B  543  11.914  14.807   9.465 -0.0575 -0.1222  0.0651
   34loPI   C4B  544  11.984  14.695   9.015 -0.0106  0.1370 -0.0747
   35loPI    C1  545   9.132   3.210  10.889  0.1400 -0.1031  0.0105
   35loPI    C2  546   8.946   3.381  11.200  0.0711  0.0290 -0.1020
   35loPI    C3  547   9.252   3.130  11.262  0.1987  0.2231  0.0646
   35loPI   PO4  548   9.205   3.406  10.743 -0.1250  0.2179 -0.2554
   35loPI   GL1  549   8.871   3.469  10.387 -0.0385 -0.3566 -0.0014
   35loPI   GL2  550   9.025   3.649  10.372 -0.2064 -0.0282 -0.0093
   35loPI   C1A  551   8.597   3.468   9.972  0.3617  0.0791  0.0804
   35loPI   C2A  552   8.475   3.434   9.577 -0.1542 -0.4886  0.0526
   35loPI   C3A  553   8.514   3.433   9.134  0.2277  0.1021 -0.3261
   35loPI   C4A  554   8.440   3.553   8.826 -0.1630  0.1046 -0.1829
   35loPI   C5A  555   8.360   3.375   8.528  0.0631 -0.2171  0.1644
   35loPI   C6A  556   8.333   3.241   8.092 -0.0331  0.1152 -0.2159
   35loPI   C1B  557   9.204   3.565   9.914  0.0976 -0.1728  0.2572
   35loPI   C2B  558   8.957   3.569   9.567 -0.2955  0.2484  0.2901
   35loPI   C3B  559   9.000   3.522   9.104 -0.0421  0.1174  0.1308
   35loPI   C4B  560   8.900   3.591   8.651 -0.0660 -0.0789 -0.2338
   36loPI    C1  561  10.571   0.716  10.939 -0.0755 -0.0324 -0.0903
   36loPI    C2  562  10.587   0.544  10.578 -0.2296 -0.0290 -0.0995
   36loPI    C3  563  10.918   0.575  10.799 -0.1610 -0.1536 -0.1835
   36loPI   PO4  564  10.395   0.856  10.918  0.0308 -0.1206 -0.0366
   36loPI   GL1  565  10.248   0.990  10.510  0.2831 -0.0554  0.3728
   36loPI   GL2  566  10.069   0.742  10.395  0.0059  0.0192  0.0456
   36loPI   C1A  567  10.291   1.121  10.025  0.2415  0.0272 -0.0464
   36loPI   C2A  568  10.184   1.142   9.597  0.1523  0.0180  0.0973
   36loPI   C3A  569  10.240   1.137   9.162 -0.0266  0.2167 -0.0094
   36loPI   C4A  570  10.033   1.155   8.803  0.0538 -0.0113  0.1020
   36loPI   C5A  571  10.158   1.001   8.431 -0.0251 -0.1268 -0.0131
   36loPI   C6A  572  10.242   0.940   7.970  0.1130 -0.2288 -0.3102
   36loPI   C1B  573  10.103   0.664   9.938  0.0294 -0.0343 -0.2133
   36loPI   C2B  574  10.174   0.645   9.541  0.1717 -0.1721 -0.1880
   36loPI   C3B  575  10.079   0.638   9.127  0.0214 -0.1549 -0.0310
   36loPI   C4B  576  10.221   0.641   8.839 -0.2389  0.1258 -0.1673
   37loPI    C1  577  15.385  15.136  11.199  0.1890 -0.2549 -0.1391
   37loPI    C2  578  15.164  15.072  11.526 -0.0293  0.1042 -0.2100
   37loPI    C3  579  15.467  15.332  11.539  0.1957 -0.1546 -0.1980
   37loPI   PO4  580  15.152  15.153  11.008 -0.1970  0.0087  0.2952
   37loPI   GL1  581  14.993  15.212  10.535 -0.2188 -0.0550 -0.0074
   37loPI   GL2  582  15.203  15.475  10.374  0.2774  0.0024 -0.0921
   37loPI   C1A  583  14.890  15.141  10.087 -0.1087  0.0544 -0.2971
   37loPI   C2A  584  14.884  15.106   9.691 -0.0003 -0.1569  0.0460
   37loPI   C3A  585  14.913  15.086   9.276 -0.0517  0.0671 -0.5856
   37loPI   C4A  586  15.008  15.105   8.889 -0.0475  0.4479  0.0985
   37loPI   C5A  587  15.196  14.949   8.546 -0.0934  0.0175  0.0460
   37loPI   C6A  588  15.255  14.991   8.164  0.1048 -0.4668  0.1554
   37loPI   C1B  589  15.187  15.514   9.943  0.1068 -0.0982 -0.0764
   37loPI   C2B  590  15.246  15.487   9.509  0.6007 -0.2283 -0.0365
   37loPI   C3B  591  15.274  15.488   9.068  0.2580  0.1490  0.0529
   37loPI   C4B  592  15.362  15.448   8.579  0.0971  0.0441  0.1135
   38loPI    C1  593   9.311  12.302  10.794  0.0464 -0.2614  0.0080
   38loPI    C2  594   9.082  12.181  11.099  0.0951 -0.4145 -0.0154
   38loPI    C3  595   9.470  12.260  11.158 -0.0576  0.3062  0.1299
   38loPI   PO4  596   9.118  12.311  10.607  0.2091 -0.1336  0.0144
   38loPI   GL1  597   9.053  12.211  10.264  0.1046  0.0706  0.1623
   38loPI   GL2  598   9.430  12.286  10.244  0.0473 -0.1081  0.1563
   38loPI   C1A  599   8.806  12.092   9.895 -0.0015 -0.0204 -0.0598
   38loPI   C2A  600   8.612  11.885   9.503 -0.1193 -0.0499  0.1285
   38loPI   C3A  601   8.623  11.874   9.079  0.0677  0.0153 -0.0936
   38loPI   C4A  602   8.678  11.867   8.617  0.1772  0.3575  0.1213
   38loPI   C5A  603   8.947  11.771   8.376 -0.0813  0.0157 -0.1119
   38loPI   C6A  604   9.373  11.894   8.248  0.0424  0.2393  0.2383
   38loPI   C1B  605   9.252  12.369   9.869 -0.1734  0.4344  0.2531
   38loPI   C2B  606   9.389  12.408   9.474  0.0810  0.1561 -0.0314
   38loPI   C3B  607   9.477  12.309   9.189  0.0741 -0.2112  0.0841
   38loPI   C4B  608   9.318  12.254   8.672  0.0906  0.1495 -0.0174
   39loPI    C1  609   1.380   0.432  10.953  0.3634  0.0924 -0.1176
   39loPI    C2  610   1.551   0.588  11.280  0.2972 -0.0967  0.0089
   39loPI    C3  611   1.273   0.303  11.316 -0.0222  0.1801 -0.1959
   39loPI   PO4  612   1.557   0.483  10.787  0.1305  0.0508  0.2429
   39loPI   GL1  613   1.714   0.358  10.406  0.0206 -0.0008 -0.0005
   39loPI   GL2  614   1.820   0.112  10.615 -0.0568  0.2968  0.0385
   39loPI   C1A  615   1.756   0.370   9.884  0.0929  0.3835  0.0226
   39loPI   C2A  616   1.708   0.358   9.403 -0.0043  0.0445 -0.1599
   39loPI   C3A  617   1.821   0.401   8.989  0.0914 -0.2995 -0.0617
   39loPI   C4A  618   1.714   0.159   8.597 -0.0555 -0.1258  0.0304
   39loPI   C5A  619   1.601  -0.306   8.408 -0.3656  0.2701 -0.1437
   39loPI   C6A  620   1.577  -0.742   8.416  0.1145 -0.0702  0.2598
   39loPI   C1B  621   1.862  -0.084  10.173 -0.1520  0.0103  0.0058
   39loPI   C2B  622   1.924  -0.051   9.705  0.0357  0.0966 -0.3584
   39loPI   C3B  623   2.036  -0.192   9.400 -0.0655 -0.0239  0.3567
   39loPI   C4B  624   1.933  -0.119   8.986 -0.1545  0.0933 -0.0270
   40loPI    C1  625  16.973  11.733  11.239 -0.0443  0.3495  0.2158
   40loPI    C2  626  17.133  11.401  11.395 -0.1688  0.1445 -0.0824
   40loPI    C3  627  16.993  11.689  11.636  0.3653  0.1947  0.1828
   40loPI   PO4  628  17.112  11.755  11.040  0.1159 -0.1281  0.3611
   40loPI   GL1  629  16.908  11.605  10.634  0.0568 -0.0513 -0.3274
   40loPI   GL2  630  17.155  11.702  10.522 -0.1156  0.2314 -0.5969
   40loPI   C1A  631  16.910  11.519  10.138  0.0854 -0.0163  0.2535
   40loPI   C2A  632  17.226  11.252   9.856  0.1338  0.0180  0.0740
   40loPI   C3A  633  17.195  11.103   9.431 -0.3199  0.0501  0.0837
   40loPI   C4A  634  17.149  11.048   8.993  0.0454 -0.2937  0.1444
   40loPI   C5A  635  17.285  10.874   8.553 -0.1245  0.2307  0.1534
   40loPI   C6A  636  17.343  10.641   8.243 -0.0345 -0.3119 -0.1495
   40loPI   C1B  637  17.330  11.690  10.067  0.0239 -0.4228  0.1377
   40loPI   C2B  638  17.248  11.624   9.524 -0.0020 -0.1930 -0.0415
   40loPI   C3B  639  17.179  11.906   9.095  0.0258 -0.0274  0.0369
   40loPI   C4B  640  17.399  11.949   8.676 -0.3936 -0.2387 -0.0332
   41loPI    C1  641   5.969  12.517  10.898  0.0756 -0.0884  0.0489
   41loPI    C2  642   6.338  12.375  10.836  0.0307 -0.0851 -0.2415
   41loPI    C3  643   6.057  12.138  10.993  0.1120 -0.1373 -0.1736
   41loPI   PO4  644   5.893  12.611  10.695 -0.1706 -0.0748  0.4762
   41loPI   GL1  645   5.750  13.063  10.581 -0.3471 -0.2061 -0.0781
   41loPI   GL2  646   6.031  12.947  10.428 -0.0910 -0.2330  0.1006
   41loPI   C1A  647   5.663  13.146  10.109  0.0112  0.1942  0.3150
   41loPI   C2A  648   5.750  13.011   9.681 -0.0137 -0.2372 -0.0941
   41loPI   C3A  649   5.703  13.085   9.196 -0.3013  0.0414 -0.2286
   41loPI   C4A  650   5.813  12.974   8.805  0.2533  0.0851 -0.5279
   41loPI   C5A  651   5.769  13.236   8.429  0.0290 -0.0471 -0.1113
   41loPI   C6A  652   5.709  13.344   8.006  0.0775  0.1317  0.2159
   41loPI   C1B  653   6.160  12.795  10.043  0.0483 -0.1608  0.1604
   41loPI   C2B  654   5.966  12.533   9.687  0.0793 -0.0172  0.1256
   41loPI   C3B  655   5.662  12.282   9.345 -0.1060  0.0251 -0.1362
   41loPI   C4B  656   5.736  12.156   8.934  0.1660  0.0940 -0.0940
   42loPI    C1  657  12.155   9.046  11.133 -0.0019 -0.0752 -0.1384
   42loPI    C2  658  12.322   9.207  11.459 -0.0327 -0.1577 -0.0817
   42loPI    C3  659  12.007   8.963  11.495 -0.0659 -0.1294 -0.1767
   42loPI   PO4  660  12.196   9.244  10.967  0.1276  0.2547 -0.3306
   42loPI   GL1  661  12.061   9.109  10.550  0.1811 -0.0141 -0.1902
   42loPI   GL2  662  12.380   9.256  10.379  0.1267  0.0729  0.1110
   42loPI   C1A  663  11.925   9.253  10.146  0.0244 -0.1755 -0.2712
   42loPI   C2A  664  11.803   9.230   9.696 -0.0952  0.0286  0.1503
   42loPI   C3A  665  11.773   9.234   9.245  0.2439 -0.0762 -0.1702
   42loPI   C4A  666  11.729   9.263   8.846  0.1244 -0.0622 -0.2043
   42loPI   C5A  667  11.768   9.714   8.599  0.1765  0.4739 -0.1110
   42loPI   C6A  668  11.692  10.127   8.474 -0.0036 -0.1839  0.1088
   42loPI   C1B  669  12.363   9.005  10.107  0.0636 -0.0095  0.1577
   42loPI   C2B  670  12.493   8.980   9.600 -0.0907 -0.0437 -0.0174
   42loPI   C3B  671  12.293   9.196   9.245 -0.3339  0.0105 -0.1021
   42loPI   C4B  672  12.404   9.282   8.861 -0.1040 -0.4225  0.0595
   43loPI    C1  673   8.986  12.658  10.964 -0.2043  0.0942 -0.1899
   43loPI    C2  674   8.865  12.942  11.219 -0.0053  0.0314 -0.0226
   43loPI    C3  675   8.707  12.575  11.239 -0.1738  0.0949 -0.1587
   43loPI   PO4  676   9.013  12.781  10.773 -0.2786  0.2782  0.1067
   43loPI   GL1  677   9.233  12.859  10.366 -0.2482 -0.2905 -0.0983
   43loPI   GL2  678   9.060  13.007  10.154  0.0871  0.2362  0.1923
   43loPI   C1A  679   9.552  12.727  10.068 -0.3409  0.1792 -0.0788
   43loPI   C2A  680   9.569  12.911   9.701  0.0474  0.1002 -0.1811
   43loPI   C3A  681   9.652  12.826   9.218 -0.0958 -0.0120  0.1176
   43loPI   C4A  682   9.352  12.680   8.864  0.0028 -0.0730 -0.0198
   43loPI   C5A  683   9.137  12.755   8.543 -0.0626 -0.0791 -0.0196
   43loPI   C6A  684   9.325  12.937   8.183 -0.1475  0.0287 -0.0173
   43loPI   C1B  685   9.055  12.904   9.730 -0.0195 -0.0287  0.0266
   43loPI   C2B  686   9.181  12.871   9.348  0.1642  0.0129  0.2475
   43loPI   C3B  687   9.212  13.140   9.029 -0.1904 -0.1791  0.2151
   43loPI   C4B  688   9.675  13.074   8.794  0.2630  0.0127 -0.0406
   44loPI    C1  689   2.353  11.563  10.620  0.0700 -0.1738  0.3595
   44loPI    C2  690   2.519  11.611  10.981  0.1454 -0.0043  0.3034
   44loPI    C3  691   2.595  11.874  10.689  0.0094 -0.0879  0.1913
   44loPI   PO4  692   2.401  11.368  10.517  0.0178  0.1068 -0.0086
   44loPI   GL1  693   2.041  11.156  10.251  0.1186 -0.0394 -0.0233
   44loPI   GL2  694   2.013  11.543  10.240 -0.0634  0.0198  0.2770
   44loPI   C1A  695   2.105  11.200   9.920 -0.0922 -0.0951 -0.0533
   44loPI   C2A  696   1.980  11.380   9.516  0.1632  0.4814 -0.0534
   44loPI   C3A  697   1.886  11.489   9.140 -0.0035 -0.1901 -0.0352
   44loPI   C4A  698   1.726  11.673   8.899  0.1442  0.1488 -0.4798
   44loPI   C5A  699   1.834  11.755   8.581 -0.2490  0.0224 -0.0919
   44loPI   C6A  700   2.008  11.491   8.213 -0.0493  0.0324 -0.0081
   44loPI   C1B  701   1.894  11.807   9.985 -0.0568 -0.1047 -0.1548
   44loPI   C2B  702   1.869  11.833   9.623  0.1293 -0.2320  0.0442
   44loPI   C3B  703   1.700  12.049   9.265  0.0671  0.2865  0.0228
   44loPI   C4B  704   1.452  12.063   8.937  0.0893  0.0904 -0.1960
   45loPI    C1  705  16.767  14.870  11.153  0.0563  0.0782 -0.0934
   45loPI    C2  706  16.928  15.203  11.306  0.1877  0.0527 -0.1752
   45loPI    C3  707  17.083  14.845  11.398  0.0086  0.0092 -0.0384
   45loPI   PO4  708  16.745  14.917  10.907  0.0637 -0.0866 -0.1432
   45loPI   GL1  709  16.831  14.872  10.553 -0.2489  0.0142 -0.2289
   45loPI   GL2  710  17.065  15.059  10.457 -0.4582  0.4348  0.1204
   45loPI   C1A  711  16.766  14.639  10.158  0.0091  0.0561 -0.0681
   45loPI   C2A  712  16.833  14.674   9.757 -0.1484  0.2583 -0.2499
   45loPI   C3A  713  16.799  14.939   9.403 -0.1825 -0.2357 -0.3746
   45loPI   C4A  714  16.708  15.243   9.103  0.3222 -0.2587  0.2460
   45loPI   C5A  715  16.629  15.338   8.755  0.1129  0.1232 -0.0726
   45loPI   C6A  716  16.584  15.052   8.310  0.2108 -0.1028  0.1688
   45loPI   C1B  717  17.090  15.140  10.011 -0.1071 -0.0693  0.0188
   45loPI   C2B  718  17.211  15.227   9.557  0.1825  0.3879  0.2161
   45loPI   C3B  719  17.235  15.283   9.146  0.1296 -0.0430  0.0722
   45loPI   C4B  720  17.412  15.292   8.759 -0.1375 -0.1600 -0.0019
   46loPI    C1  721   5.553  13.769  10.762  0.0763 -0.0954  0.0266
   46loPI    C2  722   5.291  13.976  10.982 -0.0322  0.0402 -0.2256
   46loPI    C3  723   5.676  13.961  11.090 -0.1151 -0.0414  0.0680
   46loPI   PO4  724   5.480  13.884  10.547 -0.0254  0.0140 -0.0592
   46loPI   GL1  725   5.695  14.016  10.221 -0.2173 -0.2619 -0.0515
   46loPI   GL2  726   5.961  14.056  10.363 -0.0925 -0.2844 -0.2729
   46loPI   C1A  727   5.678  14.046   9.752  0.2496 -0.0956  0.2393
   46loPI   C2A  728   5.842  14.130   9.355  0.0611 -0.0461  0.0080
   46loPI   C3A  729   5.778  13.989   9.031 -0.0024 -0.0848 -0.0843
   46loPI   C4A  730   5.905  13.862   8.621  0.1696  0.1156 -0.1469
   46loPI   C5A  731   5.554  13.900   8.352 -0.0413  0.1935  0.1598
   46loPI   C6A  732   5.272  13.669   8.022  0.0204  0.1485 -0.0839
   46loPI   C1B  733   6.028  14.286   9.956 -0.1061  0.2643  0.1067
   46loPI   C2B  734   6.142  14.491   9.548  0.3213  0.0697  0.1550
   46loPI   C3B  735   6.095  14.525   9.104  0.0339  0.1755 -0.3393
   46loPI   C4B  736   6.008  14.363   8.751  0.1790  0.1166 -0.0301
   47loPI    C1  737   9.820   2.481  10.874  0.2340  0.0605 -0.0167
   47loPI    C2  738   9.778   2.770  11.147 -0.0973 -0.0170  0.0180
   47loPI    C3  739   9.700   2.390  11.245 -0.1686 -0.0517 -0.1696
   47loPI   PO4  740  10.117   2.539  10.794 -0.1873  0.1259  0.2392
   47loPI   GL1  741  10.259   2.474  10.357 -0.3940 -0.1662  0.2298
   47loPI   GL2  742  10.004   2.376  10.156 -0.0623 -0.1175  0.3066
   47loPI   C1A  743  10.466   2.240  10.003  0.1436  0.3541 -0.1954
   47loPI   C2A  744  10.443   2.127   9.545 -0.3904  0.2165 -0.1735
   47loPI   C3A  745  10.396   2.176   9.096  0.2516  0.3541 -0.0517
   47loPI   C4A  746  10.331   2.131   8.686  0.2023  0.1499  0.0436
   47loPI   C5A  747  10.587   2.212   8.322  0.0317  0.0175 -0.0410
   47loPI   C6A  748  10.637   2.227   7.915  0.0275 -0.1280 -0.0034
   47loPI   C1B  749  10.108   2.556   9.740 -0.1715 -0.0160 -0.0238
   47loPI   C2B  750  10.083   2.493   9.302 -0.4278  0.1058  0.3201
   47loPI   C3B  751  10.397   2.784   9.143 -0.4872 -0.2531 -0.1644
   47loPI   C4B  752  10.813   2.865   9.060 -0.0474 -0.2357  0.0934
   48loPI    C1  753   8.249   2.127  11.091 -0.2389 -0.0607 -0.2096
   48loPI    C2  754   7.939   2.008  11.313 -0.0522  0.1809  0.1932
   48loPI    C3  755   7.961   2.387  11.188 -0.0352  0.1052 -0.0383
   48loPI   PO4  756   8.279   1.999  10.951 -0.0060 -0.2382 -0.1061
   48loPI   GL1  757   8.114   1.922  10.639 -0.0670 -0.3318  0.0535
   48loPI   GL2  758   8.301   1.681  10.533 -0.2958 -0.3487 -0.1845
   48loPI   C1A  759   8.059   1.941  10.192 -0.2067  0.1184 -0.2030
   48loPI   C2A  760   8.106   1.828   9.704  0.0788 -0.2411 -0.1671
   48loPI   C3A  761   8.118   1.931   9.230  0.1461 -0.1868 -0.0197
   48loPI   C4A  762   8.066   1.853   8.837  0.0991 -0.0057 -0.1782
   48loPI   C5A  763   8.024   1.974   8.432 -0.1494  0.1761 -0.1771
   48loPI   C6A  764   8.086   2.191   7.953  0.2880  0.0708 -0.1685
   48loPI   C1B  765   8.476   1.576  10.136  0.3596  0.0888  0.0450
   48loPI   C2B  766   8.471   1.538   9.768 -0.0806  0.0640 -0.1028
   48loPI   C3B  767   8.465   1.618   9.420 -0.0571  0.1804  0.0380
   48loPI   C4B  768   8.456   1.584   9.003  0.0854  0.0145 -0.0748
   49loPI    C1  769   8.573  15.582  10.702  0.0671  0.3011  0.0138
   49loPI    C2  770   8.819  15.736  10.978  0.0889 -0.1531  0.2579
   49loPI    C3  771   8.462  15.591  11.086 -0.1287  0.1469 -0.0376
   49loPI   PO4  772   8.603  15.348  10.603 -0.0970  0.0045  0.0350
   49loPI   GL1  773   8.454  15.377  10.242 -0.2867 -0.0823  0.0882
   49loPI   GL2  774   8.188  15.595  10.206  0.0658  0.0358  0.0729
   49loPI   C1A  775   8.727  15.495   9.900  0.0001 -0.2638 -0.2410
   49loPI   C2A  776   9.068  15.531   9.677  0.0944 -0.0234  0.0760
   49loPI   C3A  777   9.173  15.692   9.350 -0.0023  0.2886 -0.0086
   49loPI   C4A  778   9.251  15.637   8.966  0.0124 -0.3159  0.2507
   49loPI   C5A  779   9.457  15.503   8.595  0.1277  0.0949  0.4047
   49loPI   C6A  780   9.789  15.156   8.381  0.2239 -0.1281 -0.0666
   49loPI   C1B  781   8.177  15.611   9.718 -0.2400  0.0952  0.0590
   49loPI   C2B  782   8.543  15.520   9.439  0.0818  0.0206 -0.0026
   49loPI   C3B  783   8.706  15.601   9.026 -0.0591  0.0278 -0.4389
   49loPI   C4B  784   8.517  15.891   8.838  0.1026 -0.0556 -0.1410
   50loPI    C1  785   7.722  14.315  10.795 -0.1664  0.0188 -0.0780
   50loPI    C2  786   7.891  14.140  10.478 -0.1443  0.0083 -0.0603
   50loPI    C3  787   8.032  14.067  10.846 -0.0262  0.1943 -0.0675
   50loPI   PO4  788   7.479  14.297  10.685  0.2059 -0.1145  0.1952
   50loPI   GL1  789   7.364  14.274  10.353 -0.0311  0.3188 -0.0360
   50loPI   GL2  790   7.403  13.930  10.242  0.3059  0.1240  0.3011
   50loPI   C1A  791   7.420  14.328   9.843 -0.1511  0.5835 -0.0724
   50loPI   C2A  792   7.398  14.191   9.451 -0.1227  0.1389  0.2575
   50loPI   C3A  793   7.111  14.415   9.162  0.3075 -0.1748 -0.2913
   50loPI   C4A  794   7.074  14.504   8.692  0.2882 -0.0685  0.0004
   50loPI   C5A  795   7.143  14.783   8.355 -0.2113  0.0665  0.0309
   50loPI   C6A  796   6.975  15.228   8.291 -0.2563 -0.2900  0.0952
   50loPI   C1B  797   7.474  13.822   9.795  0.0749  0.0002 -0.1380
   50loPI   C2B  798   7.669  13.550   9.423  0.1525  0.2044  0.1043
   50loPI   C3B  799   7.781  13.571   8.973  0.0217 -0.3582  0.0657
   50loPI   C4B  800   7.719  13.804   8.655  0.0860  0.2015  0.0710
   51loPI    C1  801  17.040  14.060  11.265  0.0401 -0.0538  0.0453
   51loPI    C2  802  16.648  13.983  11.286 -0.0123  0.1922 -0.0003
   51loPI    C3  803  16.893  13.854  11.575 -0.1221  0.0167  0.0161
   51loPI   PO4  804  17.154  14.012  10.951  0.1781 -0.2771  0.2879
   51loPI   GL1  805  17.341  14.225  10.605 -0.1620  0.0490 -0.1092
   51loPI   GL2  806  17.238  14.517  10.541  0.2918  0.0174 -0.0031
   51loPI   C1A  807  17.123  14.169  10.130 -0.2587  0.2183  0.0185
   51loPI   C2A  808  17.058  14.193   9.679 -0.0824 -0.1243  0.0119
   51loPI   C3A  809  17.158  14.317   9.207 -0.2992  0.1311  0.2270
   51loPI   C4A  810  17.203  14.213   8.758  0.2842  0.1099  0.0961
   51loPI   C5A  811  17.420  13.975   8.425 -0.2316  0.0747  0.3223
   51loPI   C6A  812  17.453  13.560   8.200 -0.0831  0.1374 -0.1197
   51loPI   C1B  813  17.240  14.608   9.995 -0.1908  0.0851 -0.0305
   51loPI   C2B  814  17.333  14.718   9.585  0.1403  0.0004  0.0988
   51loPI   C3B  815  17.428  14.765   9.206 -0.4106 -0.1459  0.3139
   51loPI   C4B  816  17.396  14.769   8.780 -0.1804 -0.2308 -0.0697
   52loPI    C1  817  16.826  17.267  11.492 -0.2907  0.1650  0.0990
   52loPI    C2  818  16.887  16.937  11.711  0.0665 -0.0002 -0.2362
   52loPI    C3  819  17.165  17.225  11.700 -0.1428  0.2101 -0.1288
   52loPI   PO4  820  16.765  17.172  11.205  0.0969  0.1406  0.0580
   52loPI   GL1  821  16.866  17.295  10.786 -0.1388  0.0620 -0.1034
   52loPI   GL2  822  17.142  17.131  10.776 -0.0231  0.0197  0.0682
   52loPI   C1A  823  16.906  17.460  10.320 -0.0247 -0.0276  0.1927
   52loPI   C2A  824  16.709  17.499   9.947  0.0180 -0.1479  0.2010
   52loPI   C3A  825  16.740  17.673   9.575 -0.1583 -0.1236  0.2917
   52loPI   C4A  826  16.878  17.706   9.177  0.0285 -0.0367  0.2905
   52loPI   C5A  827  16.871  17.596   8.733 -0.1721  0.3609 -0.0095
   52loPI   C6A  828  16.575  17.510   8.356  0.0772  0.0060 -0.2164
   52loPI   C1B  829  17.315  17.059  10.332  0.1014  0.1109  0.0916
   52loPI   C2B  830  17.374  17.005   9.956  0.0498 -0.2323  0.0294
   52loPI   C3B  831  17.549  16.994   9.537  0.0912  0.0147 -0.0158
   52loPI   C4B  832  17.570  17.021   9.097  0.0901  0.2029 -0.1678
   53loPI    C1  833  11.127   9.902  11.056  0.0239  0.0326 -0.1156
   53loPI    C2  834  11.491   9.764  11.150  0.0975  0.2284 -0.1085
   53loPI    C3  835  11.165   9.556  11.253  0.2089  0.0208 -0.1704
   53loPI   PO4  836  11.136   9.968  10.821  0.0002  0.0400  0.1042
   53loPI   GL1  837  11.111  10.143  10.428 -0.0530  0.2484  0.1464
   53loPI   GL2  838  10.967  10.328  10.255 -0.1982  0.0085  0.0326
   53loPI   C1A  839  11.198   9.884  10.002 -0.1508 -0.2996 -0.3463
   53loPI   C2A  840  11.354   9.638   9.640  0.3695  0.2425 -0.1826
   53loPI   C3A  841  11.294   9.282   9.465 -0.0996  0.0686  0.0656
   53loPI   C4A  842  11.240   9.193   9.109  0.2272  0.0345  0.0034
   53loPI   C5A  843  11.215   9.484   8.770  0.0471  0.1445 -0.3958
   53loPI   C6A  844  10.760   9.487   8.608 -0.2343  0.1288  0.1107
   53loPI   C1B  845  11.030  10.482   9.811 -0.1475  0.0581 -0.0333
   53loPI   C2B  846  11.066  10.651   9.385 -0.1138 -0.1296  0.0701
   53loPI   C3B  847  11.126  10.591   8.967 -0.1653  0.3720 -0.0344
   53loPI   C4B  848  11.309  10.515   8.522 -0.0663 -0.4161  0.0553
   54loPI    C1  849  14.028   6.756  10.740  0.0215  0.0501  0.2436
   54loPI    C2  850  13.672   6.583  10.683  0.1017 -0.0437  0.0176
   54loPI    C3  851  13.751   6.768  11.029 -0.2560  0.1956 -0.0230
   54loPI   PO4  852  14.151   6.697  10.500  0.1208  0.1029  0.3174
   54loPI   GL1  853  13.966   6.563  10.069 -0.1151 -0.1528  0.2581
   54loPI   GL2  854  13.627   6.456  10.228 -0.2532  0.0186  0.5225
   54loPI   C1A  855  13.937   6.490   9.637 -0.1240 -0.0884 -0.1068
   54loPI   C2A  856  13.953   6.487   9.180  0.0180  0.3073  0.0623
   54loPI   C3A  857  13.978   6.562   8.777  0.0026  0.2069 -0.2780
   54loPI   C4A  858  14.023   6.907   8.428 -0.1142  0.4632  0.0176
   54loPI   C5A  859  14.289   7.200   8.145  0.0451  0.1029 -0.0453
   54loPI   C6A  860  14.170   7.613   8.073 -0.0713 -0.2373  0.0028
   54loPI   C1B  861  13.476   6.482   9.718 -0.0303  0.0127  0.2150
   54loPI   C2B  862  13.526   6.241   9.361  0.0347 -0.0833 -0.0213
   54loPI   C3B  863  13.544   6.262   8.887 -0.1331 -0.1799  0.0197
   54loPI   C4B  864  13.380   6.037   8.614  0.4239  0.1893  0.0195
   55loPI    C1  865   5.976   4.025  10.819 -0.0466 -0.1034  0.0608
   55loPI    C2  866   5.785   3.900  11.147  0.2057 -0.1597  0.1883
   55loPI    C3  867   6.041   4.207  11.169  0.1180 -0.0732  0.0154
   55loPI   PO4  868   5.787   3.943  10.668  0.0855  0.0654  0.0365
   55loPI   GL1  869   5.849   3.742  10.298 -0.2323  0.2287 -0.0773
   55loPI   GL2  870   5.777   4.133  10.161  0.0372  0.0628  0.2221
   55loPI   C1A  871   5.644   3.661   9.882  0.0449 -0.6072  0.0774
   55loPI   C2A  872   5.664   3.685   9.446 -0.0773  0.3104  0.0873
   55loPI   C3A  873   5.782   3.712   9.093 -0.1436  0.3025 -0.1936
   55loPI   C4A  874   5.770   3.639   8.702 -0.1091  0.1100 -0.2594
   55loPI   C5A  875   5.923   3.719   8.266  0.1300  0.1191  0.3192
   55loPI   C6A  876   6.160   3.594   7.938  0.0877 -0.1526  0.2328
   55loPI   C1B  877   6.103   3.924   9.842  0.0194  0.2345 -0.0678
   55loPI   C2B  878   6.151   3.895   9.378  0.0513 -0.0051 -0.1599
   55loPI   C3B  879   6.250   3.756   8.913  0.1276 -0.1572 -0.1884
   55loPI   C4B  880   6.354   3.780   8.488 -0.3295  0.3440  0.1817
   56loPI    C1  881   8.898  10.436  11.068  0.4129  0.0553  0.1632
   56loPI    C2  882   8.582  10.680  11.050  0.1212 -0.3250 -0.0140
   56loPI    C3  883   8.886  10.727  10.794  0.2089  0.0346  0.1492
   56loPI   PO4  884   8.839  10.219  11.058 -0.1625 -0.1199  0.3603
   56loPI   GL1  885   8.572  10.318  10.612 -0.1770  0.1724 -0.2241
   56loPI   GL2  886   8.898  10.276  10.497  0.0707 -0.1759 -0.0411
   56loPI   C1A  887   8.400  10.217  10.237 -0.0565 -0.0044 -0.3061
   56loPI   C2A  888   8.384  10.422   9.877  0.2013  0.1446 -0.1275
   56loPI   C3A  889   8.430  10.519   9.428 -0.0483  0.2074 -0.0920
   56loPI   C4A  890   8.456  10.542   8.979 -0.0149 -0.0975 -0.0769
   56loPI   C5A  891   8.436  10.439   8.529 -0.0128  0.1788  0.1310
   56loPI   C6A  892   8.393  10.189   8.213  0.3877 -0.2354  0.1547
   56loPI   C1B  893   9.156  10.570  10.286  0.0127  0.1461 -0.3324
   56loPI   C2B  894   9.161  10.860   9.907 -0.2232 -0.1236  0.1450
   56loPI   C3B  895   9.215  11.065   9.635  0.0150 -0.2879 -0.1337
   56loPI   C4B  896   9.265  11.059   9.169 -0.1871 -0.1674 -0.1049
   57loPI    C1  897   2.327   7.281  10.992  0.1418  0.0348 -0.1055
   57loPI    C2  898   2.637   7.075  11.139  0.2086 -0.1159 -0.4491
   57loPI    C3  899   2.638   7.474  11.154  0.0663 -0.1305  0.2461
   57loPI   PO4  900   2.322   7.227  10.738 -0.1862 -0.0344 -0.1050
   57loPI   GL1  901   2.495   7.135  10.287  0.2165  0.3727 -0.1366
   57loPI   GL2  902   2.757   6.910  10.249  0.1039  0.0827 -0.0440
   57loPI   C1A  903   2.544   6.915   9.791  0.1521  0.2340  0.1765
   57loPI   C2A  904   2.724   6.868   9.390 -0.2249 -0.0842  0.1194
   57loPI   C3A  905   2.491   6.794   9.071  0.2233 -0.1210 -0.3044
   57loPI   C4A  906   2.492   6.693   8.584  0.1078 -0.2065  0.1159
   57loPI   C5A  907   2.559   6.795   8.154 -0.0926 -0.1942  0.3527
   57loPI   C6A  908   2.756   6.949   7.745 -0.2774 -0.0033 -0.1570
   57loPI   C1B  909   3.150   6.944  10.022 -0.0747 -0.0099 -0.1359
   57loPI   C2B  910   3.332   6.846   9.705 -0.2207 -0.1228  0.0408
   57loPI   C3B  911   3.385   6.880   9.211 -0.0042 -0.0476 -0.1187
   57loPI   C4B  912   3.397   6.727   8.870 -0.1788  0.2174  0.0877
   58loPI    C1  913  13.999  11.750  10.743  0.1734  0.0750  0.0831
   58loPI    C2  914  13.717  12.009  10.855  0.0146  0.0466 -0.2385
   58loPI    C3  915  14.040  11.954  11.084 -0.2600  0.0441  0.1597
   58loPI   PO4  916  14.078  11.849  10.507  0.0259  0.0176  0.1233
   58loPI   GL1  917  14.077  11.572  10.190 -0.0729 -0.1953 -0.1735
   58loPI   GL2  918  14.374  11.494  10.090 -0.0639 -0.1349 -0.0069
   58loPI   C1A  919  13.762  11.529   9.792 -0.0199  0.0342  0.2567
   58loPI   C2A  920  13.556  11.511   9.461  0.0047 -0.0126  0.1105
   58loPI   C3A  921  13.357  11.472   9.109  0.1679 -0.3108 -0.1473
   58loPI   C4A  922  13.576  11.310   8.787  0.1762  0.0923  0.1118
   58loPI   C5A  923  13.559  11.175   8.398 -0.1284  0.2519 -0.1059
   58loPI   C6A  924  13.801  10.950   8.024  0.0019  0.1127  0.3717
   58loPI   C1B  925  14.268  11.473   9.646 -0.0057 -0.0011  0.3006
   58loPI   C2B  926  14.337  11.150   9.346  0.0932  0.1054  0.1300
   58loPI   C3B  927  14.494  10.826   9.081 -0.1670  0.0489  0.0360
   58loPI   C4B  928  14.671  10.651   8.862 -0.1329  0.0326  0.1332
   59loPI    C1  929   5.320  15.127  11.409 -0.1177  0.1498  0.0422
   59loPI    C2  930   5.109  15.166  11.746 -0.1432  0.1225  0.0295
   59loPI    C3  931   5.320  14.833  11.680 -0.1840  0.1037 -0.0072
   59loPI   PO4  932   5.143  15.239  11.162  0.0617  0.2884 -0.0030
   59loPI   GL1  933   5.249  15.307  10.721  0.0993  0.3195 -0.2722
   59loPI   GL2  934   5.455  15.473  10.538  0.3427  0.2609  0.0393
   59loPI   C1A  935   5.017  15.281  10.339 -0.0472  0.0920 -0.0981
   59loPI   C2A  936   4.991  15.059   9.968  0.4224  0.1142 -0.0538
   59loPI   C3A  937   4.898  15.055   9.596 -0.1227 -0.0621 -0.0321
   59loPI   C4A  938   4.898  15.066   9.135  0.0812  0.2388  0.0400
   59loPI   C5A  939   4.817  15.087   8.692 -0.0584  0.0434  0.1096
   59loPI   C6A  940   5.004  15.078   8.385  0.1721 -0.2532  0.0522
   59loPI   C1B  941   5.282  15.517   9.995 -0.0365  0.0803 -0.0503
   59loPI   C2B  942   5.270  15.544   9.583  0.1354 -0.1520 -0.2760
   59loPI   C3B  943   5.621  15.487   9.213  0.1820 -0.0561 -0.2444
   59loPI   C4B  944   5.935  15.429   9.000  0.2534 -0.0883  0.0411
   60loPI    C1  945   2.876  16.713  11.321  0.3015 -0.0026 -0.0456
   60loPI    C2  946   2.683  16.968  11.561  0.1066 -0.0001 -0.2031
   60loPI    C3  947   2.603  16.576  11.579  0.3137 -0.0364 -0.0505
   60loPI   PO4  948   2.801  16.779  11.089  0.2045 -0.1113 -0.1153
   60loPI   GL1  949   2.613  16.537  10.682  0.0679  0.2517  0.1365
   60loPI   GL2  950   2.290  16.493  10.668 -0.4224  0.0360 -0.0818
   60loPI   C1A  951   2.952  16.418  10.408 -0.1134 -0.1379 -0.0596
   60loPI   C2A  952   3.013  16.377   9.967 -0.0147  0.0949 -0.1262
   60loPI   C3A  953   3.107  16.407   9.518 -0.0121 -0.0645  0.1114
   60loPI   C4A  954   3.097  16.319   9.114  0.0341 -0.2208 -0.3983
   60loPI   C5A  955   2.977  16.347   8.634  0.1471 -0.1403  0.3641
   60loPI   C6A  956   3.122  16.172   8.290 -0.1293  0.2290 -0.0986
   60loPI   C1B  957   2.475  16.364  10.209 -0.2700  0.2438  0.3699
   60loPI   C2B  958   2.575  16.398   9.761 -0.2519 -0.1859  0.0312
   60loPI   C3B  959   2.519  16.525   9.432 -0.1003 -0.2107  0.1798
   60loPI   C4B  960   2.583  16.380   8.930  0.0549 -0.1894 -0.3387
   61loPI    C1  961  15.205   0.809  10.848 -0.0265 -0.0065 -0.1531
   61loPI    C2  962  15.531   0.858  10.621  0.1078 -0.0431  0.0292
   61loPI    C3  963  15.566   0.831  11.018 -0.1140 -0.0928  0.0469
   61loPI   PO4  964  15.024   0.940  10.693 -0.2346 -0.2064  0.4227
   61loPI   GL1  965  14.696   0.813  10.385 -0.0228  0.1338 -0.0323
   61loPI   GL2  966  14.739   1.094  10.336  0.0708 -0.1120  0.0001
   61loPI   C1A  967  14.735   0.661   9.909  0.2006  0.0234 -0.0423
   61loPI   C2A  968  14.721   0.519   9.426  0.0526 -0.0537  0.3846
   61loPI   C3A  969  14.724   0.464   9.056 -0.0474 -0.1523  0.0613
   61loPI   C4A  970  14.598   0.394   8.649  0.0500 -0.1937 -0.0272
   61loPI   C5A  971  14.676   0.668   8.270 -0.3647 -0.3183 -0.0546
   61loPI   C6A  972  14.656   0.981   8.014 -0.1224  0.1261  0.2374
   61loPI   C1B  973  14.756   1.148   9.886  0.3637  0.1285  0.0929
   61loPI   C2B  974  14.861   1.011   9.482  0.1451  0.5281  0.1834
   61loPI   C3B  975  14.819   0.920   9.094 -0.2047  0.0111  0.0962
   61loPI   C4B  976  14.760   0.895   8.661  0.0190 -0.4475 -0.0711
   62loPI    C1  977  15.111   2.813  10.864  0.0097 -0.0513  0.0314
   62loPI    C2  978  15.453   2.709  10.684  0.0195 -0.0858  0.0700
   62loPI    C3  979  15.369   2.571  11.050 -0.1160 -0.2194 -0.0098
   62loPI   PO4  980  14.950   2.801  10.605  0.0078  0.1452  0.1375
   62loPI   GL1  981  14.776   2.655  10.264  0.1114  0.1578  0.0885
   62loPI   GL2  982  14.637   2.943  10.177 -0.1248 -0.1472  0.3034
   62loPI   C1A  983  14.540   2.465   9.904 -0.2969  0.1217  0.0786
   62loPI   C2A  984  14.563   2.420   9.457 -0.1752 -0.0710  0.1275
   62loPI   C3A  985  14.675   2.452   9.029 -0.0663 -0.1356  0.0694
   62loPI   C4A  986  14.781   2.165   8.718  0.1589  0.1792  0.0716
   62loPI   C5A  987  15.068   2.156   8.385 -0.3460 -0.0107 -0.1130
   62loPI   C6A  988  15.154   1.802   8.137 -0.1550  0.1125  0.1517
   62loPI   C1B  989  14.701   2.900   9.748  0.1298 -0.0319 -0.1815
   62loPI   C2B  990  14.792   2.841   9.275  0.1647 -0.0721  0.0086
   62loPI   C3B  991  14.746   2.955   8.853  0.2675 -0.0386  0.0150
   62loPI   C4B  992  14.761   2.960   8.432  0.1115  0.2263 -0.2613
   63loPI    C1  993   0.488   5.009  10.603 -0.1354  0.0474  0.0504
   63loPI    C2  994   0.513   4.624  10.495 -0.1681  0.0210  0.1362
   63loPI    C3  995   0.242   4.739  10.766  0.0165  0.0602  0.3068
   63loPI   PO4  996   0.454   5.210  10.362  0.1554  0.0902  0.0697
   63loPI   GL1  997   0.784   5.228   9.935  0.1275 -0.1420  0.1047
   63loPI   GL2  998   1.073   5.079   9.813  0.0423  0.4327  0.0564
   63loPI   C1A  999   0.692   5.243   9.533  0.0418 -0.1280  0.0090
   63loPI   C2A 1000   0.677   5.251   9.123  0.0845 -0.1675 -0.0463
   63loPI   C3A 1001   0.663   5.162   8.681  0.1283  0.0409 -0.4046
   63loPI   C4A 1002   0.387   5.207   8.254 -0.2307  0.0696 -0.0844
   63loPI   C5A 1003   0.280   5.112   7.829 -0.1751 -0.0042  0.2547
   63loPI   C6A 1004   0.572   5.163   7.411  0.0212  0.1087  0.1207
   63loPI   C1B 1005   1.155   5.025   9.412  0.0002 -0.4136  0.0094
   63loPI   C2B 1006   1.194   4.993   8.997 -0.2829  0.1177 -0.1147
   63loPI   C3B 1007   1.335   5.080   8.514 -0.2849  0.1874  0.0347
   63loPI   C4B 1008   1.615   5.080   8.169  0.0411 -0.1300  0.0496
   64loPI    C1 1009   6.910   4.327  11.312 -0.1032  0.0369 -0.1134
   64loPI    C2 1010   6.862   4.712  11.407  0.1073  0.0771 -0.1655
   64loPI    C3 1011   7.228   4.552  11.399  0.0324 -0.0923 -0.2680
   64loPI   PO4 1012   6.821   4.278  11.075 -0.1886 -0.3855 -0.0232
   64loPI   GL1 1013   6.985   4.195  10.679 -0.0746 -0.1043  0.2780
   64loPI   GL2 1014   6.708   4.354  10.566  0.1984  0.2542  0.2109
   64loPI   C1A 1015   6.892   3.937  10.417 -0.0190 -0.1171  0.4614
   64loPI   C2A 1016   6.797   3.815   9.961  0.1005  0.0952 -0.0562
   64loPI   C3A 1017   6.781   3.787   9.454 -0.2406  0.3980  0.0469
   64loPI   C4A 1018   6.658   4.003   9.115 -0.2313  0.3653 -0.1973
   64loPI   C5A 1019   6.775   3.867   8.632  0.0372 -0.1101 -0.0616
   64loPI   C6A 1020   7.152   3.904   8.361  0.0267  0.0902  0.2886
   64loPI   C1B 1021   6.987   4.417  10.239 -0.1520 -0.0379  0.2974
   64loPI   C2B 1022   6.994   4.350   9.823 -0.2793 -0.2380  0.2859
   64loPI   C3B 1023   6.898   4.370   9.382  0.0308  0.3203 -0.0831
   64loPI   C4B 1024   6.965   4.373   8.993  0.0822 -0.1613 -0.0363
   65loPI    C1 1025   1.614  15.081  10.941 -0.0872 -0.0080  0.0719
   65loPI    C2 1026   1.613  14.694  10.840  0.1431  0.0383 -0.1174
   65loPI    C3 1027   1.391  14.821  11.148  0.1201 -0.2548 -0.0100
   65loPI   PO4 1028   1.564  15.189  10.732 -0.1345  0.1511 -0.3407
   65loPI   GL1 1029   1.591  14.924  10.382 -0.0710 -0.3760 -0.0471
   65loPI   GL2 1030   1.487  14.637  10.338  0.0416 -0.1551  0.1090
   65loPI   C1A 1031   1.650  15.189   9.908  0.1542 -0.3048  0.0842
   65loPI   C2A 1032   1.542  15.340   9.480  0.1023  0.0397  0.1158
   65loPI   C3A 1033   1.549  15.371   9.117  0.1535 -0.1062  0.0079
   65loPI   C4A 1034   1.609  15.297   8.686 -0.1349 -0.0829  0.1961
   65loPI   C5A 1035   1.942  15.099   8.300  0.0444  0.0805  0.2565
   65loPI   C6A 1036   2.155  14.791   8.134 -0.3442 -0.0821  0.0521
   65loPI   C1B 1037   1.604  14.674   9.965 -0.2220  0.1285 -0.0524
   65loPI   C2B 1038   1.668  14.795   9.524 -0.0350  0.2109  0.1184
   65loPI   C3B 1039   1.748  14.775   9.066  0.0237 -0.2015  0.2615
   65loPI   C4B 1040   1.807  14.804   8.651 -0.0826  0.1354 -0.0745
   66loPI    C1 1041   0.694   0.138  11.067  0.2093 -0.1083 -0.1399
   66loPI    C2 1042   0.503   0.131  10.716  0.3110  0.0572 -0.2001
   66loPI    C3 1043   0.304   0.224  11.050  0.2884  0.2432 -0.2643
   66loPI   PO4 1044   0.880   0.277  10.987 -0.2101  0.1483 -0.0578
   66loPI   GL1 1045   1.029   0.158  10.652  0.0304 -0.0169 -0.2890
   66loPI   GL2 1046   1.259   0.144  10.565 -0.0832 -0.0412  0.1419
   66loPI   C1A 1047   0.773   0.156  10.249 -0.0217  0.0642  0.0134
   66loPI   C2A 1048   0.936   0.106   9.750 -0.1563  0.0632 -0.1917
   66loPI   C3A 1049   0.955   0.129   9.266  0.0393 -0.1405 -0.0656
   66loPI   C4A 1050   0.929   0.080   8.834 -0.0150 -0.0971 -0.0580
   66loPI   C5A 1051   1.143  -0.120   8.470  0.1812 -0.0172 -0.2987
   66loPI   C6A 1052   1.137  -0.336   8.089  0.1148 -0.0665 -0.1875
   66loPI   C1B 1053   1.383   0.129  10.172 -0.1419 -0.0944 -0.2571
   66loPI   C2B 1054   1.407   0.023   9.721 -0.1478 -0.3443 -0.1613
   66loPI   C3B 1055   1.447  -0.063   9.302  0.0706  0.0443  0.2189
   66loPI   C4B 1056   1.387  -0.088   8.885  0.0682 -0.0658  0.1622
   67loPI    C1 1057   4.592  12.827  10.873 -0.0639  0.0685  0.2009
   67loPI    C2 1058   4.684  13.150  10.657  0.1430 -0.0616  0.0905
   67loPI    C3 1059   4.796  13.128  11.040  0.0772  0.0219  0.1149
   67loPI   PO4 1060   4.411  12.728  10.736 -0.4181  0.2623 -0.0023
   67loPI   GL1 1061   4.285  12.524  10.390 -0.3753  0.2075  0.1759
   67loPI   GL2 1062   4.007  12.519  10.393  0.0310 -0.0869  0.3952
   67loPI   C1A 1063   4.408  12.814  10.082 -0.2758  0.0400  0.1493
   67loPI   C2A 1064   4.357  12.746   9.655 -0.3764  0.0663  0.2849
   67loPI   C3A 1065   4.373  12.713   9.317  0.1075 -0.2103  0.3444
   67loPI   C4A 1066   4.278  12.765   8.846 -0.0953  0.1998  0.1928
   67loPI   C5A 1067   4.525  12.851   8.409 -0.2210 -0.2612  0.1777
   67loPI   C6A 1068   4.648  12.758   8.058 -0.0910 -0.1131  0.0096
   67loPI   C1B 1069   4.044  12.472   9.936 -0.1963  0.3135  0.1904
   67loPI   C2B 1070   4.049  12.372   9.535 -0.2631 -0.1777  0.1104
   67loPI   C3B 1071   3.987  12.416   9.103  0.2015  0.0562  0.1403
   67loPI   C4B 1072   3.844  12.348   8.619 -0.0837  0.0549 -0.2671
   68loPI    C1 1073  12.559   3.611  10.510 -0.0750  0.1183  0.0838
   68loPI    C2 1074  12.434   3.599  10.889  0.2306 -0.0543  0.1823
   68loPI    C3 1075  12.826   3.600  10.807  0.1687 -0.3514 -0.1404
   68loPI   PO4 1076  12.452   3.466  10.404 -0.0763 -0.1161 -0.0686
   68loPI   GL1 1077  12.060   3.521  10.052 -0.1322  0.3208  0.0412
   68loPI   GL2 1078  12.112   3.816  10.076 -0.1059 -0.1066 -0.2539
   68loPI   C1A 1079  11.999   3.411   9.692  0.0253 -0.1513 -0.0337
   68loPI   C2A 1080  12.025   3.557   9.340  0.1076 -0.1167 -0.0765
   68loPI   C3A 1081  12.068   3.530   8.895 -0.1197 -0.0234  0.3013
   68loPI   C4A 1082  12.055   3.587   8.453 -0.0071  0.0825 -0.1047
   68loPI   C5A 1083  12.112   3.390   8.075 -0.1274 -0.0092 -0.0187
   68loPI   C6A 1084  11.975   3.090   7.796  0.3635 -0.2531 -0.0457
   68loPI   C1B 1085  12.232   3.934   9.687 -0.0147 -0.1817  0.3230
   68loPI   C2B 1086  12.225   4.069   9.283  0.1530 -0.1899  0.0702
   68loPI   C3B 1087  12.195   4.002   8.805 -0.0594  0.2262  0.2725
   68loPI   C4B 1088  12.142   4.103   8.351 -0.3291 -0.0406  0.0561
   69loPI    C1 1089   1.994  17.887  11.032  0.1118 -0.2784  0.2610
   69loPI    C2 1090   1.709  18.160  11.095  0.2283 -0.0776 -0.0566
   69loPI    C3 1091   1.918  18.014  11.404 -0.0432 -0.0384  0.1498
   69loPI   PO4 1092   2.195  17.985  10.866 -0.1099 -0.0005  0.1804
   69loPI   GL1 1093   2.287  17.863  10.534 -0.0147 -0.0423 -0.3180
   69loPI   GL2 1094   2.636  17.714  10.662  0.1702 -0.1993 -0.1566
   69loPI   C1A 1095   2.419  17.856  10.131  0.0202  0.0908  0.1229
   69loPI   C2A 1096   2.478  17.800   9.719 -0.1114  0.2751 -0.1935
   69loPI   C3A 1097   2.582  17.820   9.317 -0.0469 -0.2790  0.2916
   69loPI   C4A 1098   2.431  17.782   8.892 -0.3044  0.1512 -0.1481
   69loPI   C5A 1099   2.587  17.906   8.459 -0.1161 -0.2595  0.1770
   69loPI   C6A 1100   2.498  17.684   8.010 -0.1015 -0.0644  0.2778
   69loPI   C1B 1101   2.874  17.713  10.167  0.2726 -0.0020  0.0815
   69loPI   C2B 1102   3.000  17.696   9.622  0.1111  0.0348 -0.2928
   69loPI   C3B 1103   3.082  17.643   9.156 -0.0702 -0.2160  0.2797
   69loPI   C4B 1104   3.103  17.643   8.688  0.0691 -0.0852 -0.1287
   70loPI    C1 1105   4.174   0.219  10.822  0.0605 -0.0515 -0.1254
   70loPI    C2 1106   4.005   0.292  11.177 -0.0120 -0.1027 -0.1491
   70loPI    C3 1107   4.206   0.582  10.988 -0.1350 -0.0201 -0.1545
   70loPI   PO4 1108   4.283  -0.064  10.858  0.0825  0.0691 -0.0869
   70loPI   GL1 1109   4.328  -0.221  10.553 -0.0192 -0.3427  0.1106
   70loPI   GL2 1110   4.428  -0.551  10.526 -0.0764 -0.1428 -0.1828
   70loPI   C1A 1111   4.269   0.091  10.210  0.1714  0.0423 -0.1893
   70loPI   C2A 1112   4.347   0.143   9.797 -0.2743 -0.1219 -0.0349
   70loPI   C3A 1113   4.432  -0.093   9.523 -0.2236  0.0998 -0.0469
   70loPI   C4A 1114   4.575  -0.212   9.122  0.2588 -0.0322  0.0695
   70loPI   C5A 1115   4.593  -0.280   8.668  0.0718  0.2694 -0.0771
   70loPI   C6A 1116   4.912  -0.275   8.289  0.3264 -0.1911  0.0703
   70loPI   C1B 1117   4.240  -0.863  10.261 -0.2134 -0.0912 -0.0166
   70loPI   C2B 1118   4.199  -0.877   9.802  0.0254 -0.2058 -0.1938
   70loPI   C3B 1119   4.172  -1.035   9.375 -0.2560  0.0581  0.3059
   70loPI   C4B 1120   4.177  -1.164   8.862 -0.2849  0.1297  0.1421
   71loPI    C1 1121   3.342   4.802  11.072 -0.0674  0.1823  0.1255
   71loPI    C2 1122   3.579   4.779  11.394  0.1246 -0.1318 -0.0342
   71loPI    C3 1123   3.336   4.475  11.302 -0.1228  0.0649 -0.0416
   71loPI   PO4 1124   3.460   4.860  10.877  0.0322 -0.0864  0.0081
   71loPI   GL1 1125   3.587   4.708  10.547  0.0207  0.1636 -0.3865
   71loPI   GL2 1126   3.840   4.990  10.517  0.2242 -0.1717 -0.1575
   71loPI   C1A 1127   3.519   4.397  10.347 -0.0091 -0.0139  0.2777
   71loPI   C2A 1128   3.482   4.402   9.950 -0.1227 -0.0255 -0.0563
   71loPI   C3A 1129   3.509   4.383   9.541 -0.4056 -0.1633 -0.0334
   71loPI   C4A 1130   3.522   4.237   9.062  0.1879 -0.1144 -0.0554
   71loPI   C5A 1131   3.407   4.070   8.735 -0.0451 -0.0326  0.1442
   71loPI   C6A 1132   3.200   4.004   8.478 -0.0762  0.1784 -0.2259
   71loPI   C1B 1133   3.982   4.607  10.203  0.2313 -0.0416  0.2731
   71loPI   C2B 1134   4.148   4.621   9.799  0.1719  0.0555 -0.1443
   71loPI   C3B 1135   4.021   4.556   9.408  0.0185 -0.1448 -0.4073
   71loPI   C4B 1136   3.995   4.548   8.950 -0.1241  0.1097 -0.1665
   72loPI    C1 1137   7.389   0.732  11.308  0.0759  0.1243 -0.1839
   72loPI    C2 1138   7.349   0.385  11.114 -0.0129  0.0560 -0.0451
   72loPI    C3 1139   7.611   0.417  11.414 -0.0472  0.0919 -0.0190
   72loPI   PO4 1140   7.394   0.896  11.120 -0.0855  0.2282  0.0928
   72loPI   GL1 1141   7.229   1.126  10.795  0.0420  0.0853  0.4091
   72loPI   GL2 1142   7.392   1.408  10.841 -0.1073 -0.2993 -0.1218
   72loPI   C1A 1143   7.224   1.345  10.382  0.5365  0.3265 -0.1608
   72loPI   C2A 1144   7.374   1.353   9.994 -0.0909  0.0258  0.0920
   72loPI   C3A 1145   7.552   1.224   9.553  0.0946  0.0145 -0.1151
   72loPI   C4A 1146   7.520   1.280   9.076  0.1676 -0.1950 -0.1998
   72loPI   C5A 1147   7.835   1.396   8.673 -0.1203 -0.1835  0.0667
   72loPI   C6A 1148   8.157   1.475   8.373  0.0795 -0.1291 -0.0959
   72loPI   C1B 1149   7.703   1.621  10.554  0.1278 -0.2099 -0.1041
   72loPI   C2B 1150   7.932   1.438  10.212 -0.2434 -0.0394  0.3541
   72loPI   C3B 1151   7.993   1.362   9.740 -0.0162 -0.1399 -0.1682
   72loPI   C4B 1152   7.986   1.460   9.280  0.2240 -0.0305  0.0055
   73loPI    C1 1153   5.109   0.948  10.831 -0.0006  0.0023  0.0554
   73loPI    C2 1154   5.336   0.729  11.077  0.0126 -0.1018 -0.0486
   73loPI    C3 1155   5.019   0.927  11.220  0.1026 -0.0474  0.0768
   73loPI   PO4 1156   5.246   1.029  10.607  0.1270 -0.2342 -0.1191
   73loPI   GL1 1157   5.418   1.096  10.133  0.1510 -0.0813  0.2555
   73loPI   GL2 1158   5.521   0.900   9.984  0.0516 -0.0060  0.2519
   73loPI   C1A 1159   5.768   1.357  10.043 -0.1334  0.3598  0.1082
   73loPI   C2A 1160   6.285   1.329   9.940 -0.0778 -0.0193 -0.3359
   73loPI   C3A 1161   6.584   1.416   9.605 -0.0640 -0.2026 -0.1565
   73loPI   C4A 1162   6.587   1.562   9.113 -0.1859  0.1457 -0.0252
   73loPI   C5A 1163   6.648   1.343   8.778  0.1307 -0.1662 -0.1437
   73loPI   C6A 1164   6.724   0.951   8.468 -0.2738 -0.0227 -0.2626
   73loPI   C1B 1165   5.371   1.124   9.614 -0.2011  0.3137  0.1300
   73loPI   C2B 1166   5.419   1.432   9.270 -0.2422 -0.1191  0.0730
   73loPI   C3B 1167   5.620   1.735   9.142 -0.1141 -0.2193  0.0957
   73loPI   C4B 1168   5.747   2.006   8.876  0.0662  0.0004 -0.0969
   74loPI    C1 1169   0.707  12.048  11.117  0.3564  0.1610 -0.0931
   74loPI    C2 1170   0.715  12.132  11.508 -0.2063 -0.0529 -0.0249
   74loPI    C3 1171   0.905  11.808  11.369 -0.1211 -0.0533  0.0907
   74loPI   PO4 1172   0.589  12.148  10.856 -0.4142 -0.0539 -0.0632
   74loPI   GL1 1173   0.608  12.212  10.439  0.0473  0.0775  0.0895
   74loPI   GL2 1174   0.937  12.000  10.445 -0.2727  0.5311 -0.3222
   74loPI   C1A 1175   0.483  12.345  10.072  0.0224 -0.1331  0.0806
   74loPI   C2A 1176   0.607  12.493   9.650  0.1348 -0.0308  0.1765
   74loPI   C3A 1177   0.769  12.724   9.204  0.0322 -0.0285  0.0052
   74loPI   C4A 1178   0.664  12.653   8.781 -0.2078  0.0249  0.1743
   74loPI   C5A 1179   0.735  12.485   8.418  0.0340  0.0322  0.2553
   74loPI   C6A 1180   0.582  12.588   8.026 -0.1167 -0.0287 -0.0778
   74loPI   C1B 1181   0.926  12.130   9.954  0.2240 -0.2165 -0.1694
   74loPI   C2B 1182   0.484  11.953   9.716  0.2372 -0.2733  0.1025
   74loPI   C3B 1183   0.435  11.520   9.530  0.2508  0.1794 -0.0781
   74loPI   C4B 1184   0.116  11.262   9.641  0.1118  0.1091  0.0228
   75loPI    C1 1185   2.790   9.462  11.148 -0.0450 -0.1183 -0.0587
   75loPI    C2 1186   2.787   9.805  11.355 -0.2842 -0.0981 -0.0922
   75loPI    C3 1187   2.953   9.477  11.513 -0.0089  0.0439 -0.0804
   75loPI   PO4 1188   2.591   9.387  11.056 -0.2230 -0.1052  0.0101
   75loPI   GL1 1189   2.541   9.490  10.639 -0.0726  0.1020 -0.3113
   75loPI   GL2 1190   2.443   9.836  10.496 -0.0306  0.3732  0.1027
   75loPI   C1A 1191   2.597   9.400  10.191 -0.2094  0.0346  0.0113
   75loPI   C2A 1192   2.530   9.388   9.726  0.1241  0.2134  0.2446
   75loPI   C3A 1193   2.644   9.316   9.273  0.0252 -0.1275  0.1160
   75loPI   C4A 1194   2.569   9.376   8.782 -0.0044  0.0608  0.0727
   75loPI   C5A 1195   2.608   9.280   8.306 -0.0016  0.1974 -0.2679
   75loPI   C6A 1196   2.629   9.118   7.843  0.0194  0.0411  0.2315
   75loPI   C1B 1197   2.253   9.712  10.108  0.0934  0.3383  0.2294
   75loPI   C2B 1198   2.196   9.742   9.711  0.0514  0.1660 -0.0171
   75loPI   C3B 1199   2.174   9.702   9.416  0.0995  0.0996 -0.0685
   75loPI   C4B 1200   2.274   9.735   9.016 -0.1120 -0.0102 -0.0819
   76loPI    C1 1201   0.395  17.630  11.588  0.0417  0.0664  0.1180
   76loPI    C2 1202   0.358  17.239  11.662  0.0164  0.0251 -0.1047
   76loPI    C3 1203   0.716  17.414  11.688 -0.0144  0.0433  0.2500
   76loPI   PO4 1204   0.265  17.712  11.329 -0.1180  0.2176 -0.1182
   76loPI   GL1 1205   0.328  17.630  10.899  0.0848 -0.0562  0.0958
   76loPI   GL2 1206   0.106  17.859  10.796 -0.1359 -0.0719 -0.2174
   76loPI   C1A 1207   0.263  17.424  10.594 -0.3316  0.0989 -0.1577
   76loPI   C2A 1208   0.356  17.250  10.198  0.1404 -0.1271  0.0204
   76loPI   C3A 1209   0.264  17.298   9.881 -0.0751 -0.1254  0.0467
   76loPI   C4A 1210   0.373  17.326   9.417 -0.2686  0.1702  0.0361
   76loPI   C5A 1211   0.313  17.398   8.909 -0.1273  0.0092 -0.0066
   76loPI   C6A 1212   0.285  17.741   8.620  0.0907 -0.0397 -0.0268
   76loPI   C1B 1213   0.103  17.931  10.367 -0.1034 -0.0531 -0.3068
   76loPI   C2B 1214   0.078  17.769  10.003  0.1368 -0.3826 -0.1325
   76loPI   C3B 1215   0.177  17.817   9.578  0.1349 -0.0316 -0.0462
   76loPI   C4B 1216   0.106  17.756   9.110 -0.0721 -0.2040  0.1929
   77loPI    C1 1217   6.286   9.773  10.849 -0.0238  0.0265  0.0798
   77loPI    C2 1218   6.308   9.375  10.877  0.2689  0.0258 -0.1143
   77loPI    C3 1219   5.975   9.565  10.991  0.1542 -0.2659  0.0502
   77loPI   PO4 1220   6.372   9.900  10.597  0.0011 -0.1142  0.0202
   77loPI   GL1 1221   6.358   9.918  10.173 -0.2108 -0.1197  0.4455
   77loPI   GL2 1222   6.561  10.026  10.046 -0.0200 -0.2274  0.1035
   77loPI   C1A 1223   6.374   9.554   9.915  0.2865  0.2314  0.0318
   77loPI   C2A 1224   6.214   9.392   9.498 -0.0697  0.1780 -0.1051
   77loPI   C3A 1225   6.393   9.454   9.121 -0.0068  0.2176  0.1084
   77loPI   C4A 1226   6.582   9.153   8.873  0.1634  0.1667  0.0418
   77loPI   C5A 1227   6.831   9.025   8.638 -0.1396  0.1084  0.0363
   77loPI   C6A 1228   7.112   8.998   8.196 -0.1704  0.0293 -0.1875
   77loPI   C1B 1229   6.519   9.836   9.592  0.1081  0.0518 -0.0298
   77loPI   C2B 1230   6.703   9.528   9.514  0.0264 -0.1290 -0.0844
   77loPI   C3B 1231   6.940   9.477   9.077 -0.2650  0.0881  0.0120
   77loPI   C4B 1232   7.066   9.523   8.667 -0.1646 -0.1042  0.0585
   78loPI    C1 1233  13.319  10.136  10.840 -0.0077  0.0661  0.2957
   78loPI    C2 1234  13.565   9.821  10.873 -0.1570 -0.0755  0.0840
   78loPI    C3 1235  13.450  10.021  11.200  0.2296 -0.0132  0.1860
   78loPI   PO4 1236  13.397  10.269  10.688 -0.2452 -0.0734  0.0431
   78loPI   GL1 1237  13.098  10.296  10.332 -0.1149  0.0383 -0.1009
   78loPI   GL2 1238  12.883  10.505  10.095 -0.0209  0.3437  0.1377
   78loPI   C1A 1239  12.930  10.028   9.923 -0.2852 -0.0261 -0.3991
   78loPI   C2A 1240  12.860  10.033   9.400 -0.0279 -0.0809  0.1431
   78loPI   C3A 1241  12.909   9.979   8.920 -0.0235 -0.2881 -0.0475
   78loPI   C4A 1242  13.118   9.923   8.513  0.0232 -0.0620  0.0367
   78loPI   C5A 1243  13.261   9.730   8.091  0.0325  0.0399  0.1132
   78loPI   C6A 1244  13.195   9.550   7.779  0.0705 -0.1903  0.2154
   78loPI   C1B 1245  12.677  10.462   9.671  0.1181 -0.1008 -0.0339
   78loPI   C2B 1246  12.492  10.381   9.312  0.0712  0.1006 -0.0885
   78loPI   C3B 1247  12.546  10.357   8.930  0.1148 -0.0222  0.2106
   78loPI   C4B 1248  12.823  10.365   8.631  0.1262 -0.0608 -0.4415
   79loPI    C1 1249   3.029  14.020  10.846 -0.1076  0.0444 -0.0857
   79loPI    C2 1250   2.761  13.757  10.710 -0.1085  0.0157 -0.0288
   79loPI    C3 1251   2.763  13.858  11.097 -0.0925  0.0812 -0.0459
   79loPI   PO4 1252   3.296  14.040  10.797 -0.1039 -0.1023 -0.1568
   79loPI   GL1 1253   3.407  14.354  10.585 -0.0450 -0.2844  0.0826
   79loPI   GL2 1254   3.490  14.659  10.625  0.0130 -0.0145  0.1417
   79loPI   C1A 1255   3.338  14.441  10.153  0.0583  0.2459 -0.0447
   79loPI   C2A 1256   3.242  14.529   9.767  0.4338 -0.0558  0.3347
   79loPI   C3A 1257   3.246  14.484   9.248 -0.0859  0.0846 -0.3204
   79loPI   C4A 1258   3.257  14.319   8.882  0.0948 -0.1661 -0.0209
   79loPI   C5A 1259   3.184  14.558   8.473  0.1953 -0.2076  0.2312
   79loPI   C6A 1260   3.220  14.652   8.113  0.0401 -0.2806 -0.3264
   79loPI   C1B 1261   3.220  14.920  10.365  0.1097  0.1287  0.1488
   79loPI   C2B 1262   3.185  15.071   9.985  0.0708  0.1148 -0.3277
   79loPI   C3B 1263   3.121  14.991   9.526  0.0478  0.4652  0.1969
   79loPI   C4B 1264   3.063  14.925   9.069 -0.0136  0.0010 -0.1139
   80loPI    C1 1265   1.055   5.908  10.633 -0.0949  0.0567 -0.0298
   80loPI    C2 1266   1.415   6.072  10.577 -0.0254 -0.0905 -0.0168
   80loPI    C3 1267   1.254   6.064  10.943 -0.0803  0.0530 -0.0372
   80loPI   PO4 1268   0.976   5.932  10.344 -0.1335  0.2855 -0.2378
   80loPI   GL1 1269   0.941   6.125   9.919 -0.0368  0.1368 -0.2902
   80loPI   GL2 1270   0.831   6.393   9.840  0.2641 -0.2210  0.0018
   80loPI   C1A 1271   0.852   6.137   9.438  0.1317  0.1994 -0.2864
   80loPI   C2A 1272   0.765   6.121   8.994 -0.3483 -0.0969 -0.0230
   80loPI   C3A 1273   0.619   6.133   8.626 -0.3704 -0.0725 -0.0204
   80loPI   C4A 1274   0.558   6.129   8.230 -0.1259 -0.3528  0.0155
   80loPI   C5A 1275   0.517   6.129   7.846  0.1554 -0.0362  0.2053
   80loPI   C6A 1276   0.288   6.409   7.612 -0.0502 -0.1707  0.1116
   80loPI   C1B 1277   0.703   6.664   9.480  0.2627 -0.0451  0.2086
   80loPI   C2B 1278   0.640   6.824   9.068 -0.0176 -0.0274  0.2063
   80loPI   C3B 1279   0.730   6.801   8.577  0.1466 -0.1906  0.0642
   80loPI   C4B 1280   0.952   6.793   8.169 -0.0432  0.1321  0.0730
   81loPI    C1 1281  10.085   0.490  10.808  0.1747  0.0436  0.0678
   81loPI    C2 1282   9.685   0.473  10.790  0.1799  0.0454 -0.0621
   81loPI    C3 1283   9.870   0.487  11.145  0.0632  0.0778 -0.0023
   81loPI   PO4 1284  10.119   0.263  10.626  0.1648 -0.0694 -0.0244
   81loPI   GL1 1285  10.180  -0.039  10.267  0.2223  0.1513 -0.0462
   81loPI   GL2 1286  10.352   0.327  10.227 -0.2194  0.0965  0.0626
   81loPI   C1A 1287  10.293  -0.142   9.802  0.0442  0.1671  0.0148
   81loPI   C2A 1288  10.334  -0.202   9.341  0.3044  0.1302  0.0392
   81loPI   C3A 1289  10.268  -0.260   8.973 -0.1774  0.1517  0.1713
   81loPI   C4A 1290  10.144  -0.153   8.567 -0.1208  0.3166  0.2122
   81loPI   C5A 1291  10.038  -0.105   8.187 -0.2882 -0.0906 -0.2170
   81loPI   C6A 1292  10.064   0.216   7.886 -0.0401 -0.0079  0.3028
   81loPI   C1B 1293  10.475   0.314   9.809 -0.2490  0.1475 -0.1211
   81loPI   C2B 1294  10.484   0.308   9.366 -0.1495 -0.2373 -0.1784
   81loPI   C3B 1295  10.407   0.219   8.978  0.2167  0.2772 -0.1447
   81loPI   C4B 1296  10.473   0.232   8.522 -0.0802  0.2773 -0.1665
   82loPI    C1 1297  13.043   4.095  10.466  0.0129 -0.2462  0.0272
   82loPI    C2 1298  13.408   4.245  10.398 -0.1380 -0.0032 -0.2700
   82loPI    C3 1299  13.189   4.383  10.703 -0.0198 -0.0823 -0.1487
   82loPI   PO4 1300  13.011   3.853  10.448  0.2078 -0.1211  0.0379
   82loPI   GL1 1301  12.816   3.669  10.081 -0.0706  0.1412 -0.1541
   82loPI   GL2 1302  12.550   3.683   9.988 -0.0054 -0.2621 -0.0744
   82loPI   C1A 1303  13.039   3.756   9.749  0.0840  0.0711 -0.3116
   82loPI   C2A 1304  13.189   3.789   9.342  0.2065  0.1864  0.2343
   82loPI   C3A 1305  13.050   3.789   8.866  0.1149 -0.4414  0.1203
   82loPI   C4A 1306  13.034   3.828   8.504  0.0139 -0.3127 -0.3984
   82loPI   C5A 1307  12.933   4.116   8.100 -0.0991  0.0531 -0.2962
   82loPI   C6A 1308  13.131   4.135   7.721 -0.1311  0.1341 -0.0556
   82loPI   C1B 1309  12.567   3.614   9.558  0.2461  0.0984  0.0713
   82loPI   C2B 1310  12.505   3.725   9.108  0.1313  0.1095 -0.1828
   82loPI   C3B 1311  12.564   3.619   8.660 -0.0756 -0.0116  0.1032
   82loPI   C4B 1312  12.558   3.695   8.254  0.0213 -0.0570  0.1733
   83loPI    C1 1313  10.109   3.927  10.738 -0.1269  0.0933  0.1160
   83loPI    C2 1314   9.859   4.021  11.036 -0.1655 -0.1047  0.1474
   83loPI    C3 1315  10.253   4.003  11.103 -0.1534  0.0756  0.1302
   83loPI   PO4 1316   9.940   3.918  10.565 -0.1264  0.0060 -0.2670
   83loPI   GL1 1317  10.025   4.163  10.230 -0.0022  0.0109  0.0619
   83loPI   GL2 1318  10.186   4.305  10.426 -0.0146  0.0629  0.0012
   83loPI   C1A 1319   9.881   4.214   9.946  0.1860  0.0067  0.2900
   83loPI   C2A 1320   9.783   4.121   9.480 -0.1282 -0.2762 -0.0776
   83loPI   C3A 1321   9.758   4.065   9.127 -0.0676 -0.1027  0.0735
   83loPI   C4A 1322   9.609   4.280   8.807  0.0168  0.0447  0.2477
   83loPI   C5A 1323   9.751   4.421   8.443 -0.0477 -0.0899 -0.2328
   83loPI   C6A 1324   9.881   4.759   8.176 -0.2875 -0.1589 -0.1194
   83loPI   C1B 1325  10.426   4.211   9.970  0.3133 -0.3603  0.0534
   83loPI   C2B 1326  10.259   4.267   9.620  0.1020  0.0241 -0.2373
   83loPI   C3B 1327  10.382   4.244   9.210  0.0731  0.2029  0.1680
   83loPI   C4B 1328  10.241   4.014   8.875  0.0663 -0.0946  0.1107
   84loPI    C1 1329  13.562   4.612  10.964  0.0546 -0.1237 -0.1418
   84loPI    C2 1330  13.599   4.214  10.979 -0.0688 -0.1460 -0.3775
   84loPI    C3 1331  13.364   4.402  11.241  0.1106 -0.2105 -0.1666
   84loPI   PO4 1332  13.621   4.641  10.627  0.2975  0.0623 -0.0231
   84loPI   GL1 1333  13.728   4.599  10.274 -0.1818  0.3438 -0.2211
   84loPI   GL2 1334  14.089   4.441  10.170 -0.0930  0.1353  0.2126
   84loPI   C1A 1335  13.632   4.379   9.911 -0.0386  0.0412  0.3622
   84loPI   C2A 1336  13.739   4.450   9.446 -0.1424  0.1104 -0.1332
   84loPI   C3A 1337  13.631   4.481   9.088 -0.3625  0.1283  0.0025
   84loPI   C4A 1338  13.693   4.561   8.627 -0.2071  0.1529  0.4099
   84loPI   C5A 1339  13.634   4.729   8.209  0.2049 -0.3254  0.1922
   84loPI   C6A 1340  13.275   5.081   8.087 -0.1824 -0.0590 -0.0282
   84loPI   C1B 1341  14.181   4.616   9.653  0.0734  0.1498 -0.3763
   84loPI   C2B 1342  14.186   4.580   9.238 -0.2959 -0.0928 -0.0924
   84loPI   C3B 1343  14.176   4.643   8.792 -0.0517 -0.0264 -0.2419
   84loPI   C4B 1344  14.252   4.676   8.445 -0.0173 -0.2723  0.0060
   85loPI    C1 1345  14.606   4.863  10.585 -0.1411 -0.0138  0.0470
   85loPI    C2 1346  14.400   5.184  10.706  0.1104  0.1264  0.1116
   85loPI    C3 1347  14.677   5.023  10.945 -0.0815 -0.2005  0.1193
   85loPI   PO4 1348  14.558   4.683  10.468  0.2648  0.2269  0.0963
   85loPI   GL1 1349  14.359   4.807  10.102  0.1385  0.0127  0.1147
   85loPI   GL2 1350  14.106   4.920  10.289 -0.1666 -0.0752 -0.1398
   85loPI   C1A 1351  14.633   4.832   9.733 -0.1588 -0.0980  0.0748
   85loPI   C2A 1352  14.659   4.732   9.369  0.4061 -0.1228 -0.1675
   85loPI   C3A 1353  14.716   4.780   8.877  0.0961 -0.0804 -0.0931
   85loPI   C4A 1354  14.732   4.870   8.543 -0.0390 -0.1830 -0.1695
   85loPI   C5A 1355  14.589   5.103   8.244 -0.1394  0.1303  0.0414
   85loPI   C6A 1356  14.092   5.194   8.203 -0.0800  0.2125  0.1812
   85loPI   C1B 1357  13.887   4.925   9.906 -0.1706  0.2224  0.2558
   85loPI   C2B 1358  13.777   4.948   9.474  0.1763  0.3437  0.2228
   85loPI   C3B 1359  13.783   5.019   9.054  0.0830 -0.0967 -0.1182
   85loPI   C4B 1360  13.687   5.108   8.533  0.2156 -0.0238 -0.0468
   86loPI    C1 1361  12.919   1.268  10.956 -0.0969 -0.0788 -0.0190
   86loPI    C2 1362  13.118   1.011  11.189  0.1848  0.2288  0.0873
   86loPI    C3 1363  12.736   1.099  11.269  0.1732  0.0629  0.2202
   86loPI   PO4 1364  12.993   1.221  10.660  0.0006 -0.1075 -0.2103
   86loPI   GL1 1365  13.236   1.164  10.399  0.0513 -0.1821 -0.2055
   86loPI   GL2 1366  13.096   1.449  10.169 -0.1517 -0.0698 -0.1733
   86loPI   C1A 1367  13.463   1.116  10.025 -0.1764  0.1408  0.1422
   86loPI   C2A 1368  13.502   1.093   9.560 -0.0219  0.0348  0.0882
   86loPI   C3A 1369  13.384   0.930   9.203 -0.2243  0.1354 -0.1595
   86loPI   C4A 1370  13.371   0.976   8.787  0.1423  0.3831  0.0150
   86loPI   C5A 1371  13.207   0.853   8.343 -0.0559 -0.0995  0.1458
   86loPI   C6A 1372  13.045   0.581   7.982 -0.0469  0.0948 -0.1542
   86loPI   C1B 1373  13.079   1.350   9.783 -0.2630  0.3577  0.3113
   86loPI   C2B 1374  13.147   1.392   9.358  0.2347  0.0940 -0.2115
   86loPI   C3B 1375  13.079   1.280   9.000  0.1275  0.0460 -0.1234
   86loPI   C4B 1376  13.113   1.380   8.560  0.0392 -0.0223  0.1582
   87loPI    C1 1377  10.868  14.213  10.938 -0.1714 -0.1435 -0.0150
   87loPI    C2 1378  10.594  13.944  11.053  0.0096 -0.2342  0.2114
   87loPI    C3 1379  10.875  14.067  11.311 -0.0262  0.1189  0.0875
   87loPI   PO4 1380  10.929  14.113  10.627 -0.0016  0.2685  0.0465
   87loPI   GL1 1381  10.972  14.163  10.300 -0.0891 -0.1651  0.3226
   87loPI   GL2 1382  10.718  14.314  10.149 -0.1436 -0.2357  0.0188
   87loPI   C1A 1383  11.133  14.001   9.947  0.2437 -0.1992 -0.0675
   87loPI   C2A 1384  11.146  13.825   9.594 -0.0433 -0.1566  0.1359
   87loPI   C3A 1385  11.242  13.964   9.188 -0.0507  0.0863 -0.0117
   87loPI   C4A 1386  11.352  14.220   8.914  0.2007  0.0076 -0.2402
   87loPI   C5A 1387  11.286  14.096   8.545  0.0082  0.1834 -0.4047
   87loPI   C6A 1388  11.454  14.149   8.129 -0.0278  0.1433 -0.1710
   87loPI   C1B 1389  10.822  14.630   9.911 -0.2480  0.2446 -0.1374
   87loPI   C2B 1390  11.202  14.814   9.573 -0.3546  0.3978 -0.0321
   87loPI   C3B 1391  11.518  14.583   9.328 -0.2789 -0.3129  0.1276
   87loPI   C4B 1392  11.879  14.313   9.248  0.0587  0.3759  0.1249
   88loPI    C1 1393  12.186  15.455  11.125 -0.0274 -0.1667  0.0187
   88loPI    C2 1394  12.433  15.488  11.437  0.0627 -0.2431 -0.0437
   88loPI    C3 1395  12.051  15.385  11.494  0.0310 -0.0738  0.0580
   88loPI   PO4 1396  12.269  15.273  10.963 -0.2386  0.0894  0.1171
   88loPI   GL1 1397  12.497  15.015  10.593 -0.2393 -0.0456 -0.0969
   88loPI   GL2 1398  12.106  14.924  10.444  0.1583 -0.1003  0.1081
   88loPI   C1A 1399  12.530  15.092  10.216 -0.0179  0.0310 -0.0683
   88loPI   C2A 1400  12.730  15.078   9.852 -0.1037 -0.1199 -0.1705
   88loPI   C3A 1401  12.815  15.087   9.515 -0.2047 -0.1606 -0.2196
   88loPI   C4A 1402  12.969  15.050   9.134 -0.2318  0.3230 -0.0608
   88loPI   C5A 1403  13.073  15.111   8.684  0.1177  0.0854 -0.1377
   88loPI   C6A 1404  13.289  14.879   8.444  0.2201  0.2960  0.0513
   88loPI   C1B 1405  12.166  14.809  10.070 -0.0181  0.2735  0.0654
   88loPI   C2B 1406  12.320  14.837   9.689 -0.1929 -0.1849 -0.0908
   88loPI   C3B 1407  12.421  14.871   9.160 -0.1394  0.2474  0.0160
   88loPI   C4B 1408  12.605  14.687   8.758 -0.3274 -0.2329 -0.1106
   89loPI    C1 1409  17.821  16.697  11.297  0.1950 -0.0855  0.0650
   89loPI    C2 1410  17.995  16.890  11.601  0.1976 -0.0868  0.0644
   89loPI    C3 1411  17.867  16.514  11.650  0.2588 -0.1104  0.0440
   89loPI   PO4 1412  17.920  16.810  11.082 -0.0987  0.0795  0.2963
   89loPI   GL1 1413  18.117  16.975  10.794  0.0290 -0.1283 -0.0037
   89loPI   GL2 1414  18.387  16.948  10.754 -0.1177  0.1519 -0.2372
   89loPI   C1A 1415  18.047  16.895  10.348  0.1823 -0.3716  0.2142
   89loPI   C2A 1416  17.922  16.893   9.933 -0.3546 -0.2461 -0.1205
   89loPI   C3A 1417  18.009  17.022   9.593 -0.1231  0.0466 -0.0875
   89loPI   C4A 1418  18.099  16.982   9.127  0.1697 -0.4668  0.0743
   89loPI   C5A 1419  18.178  16.978   8.788  0.0163  0.0219  0.3989
   89loPI   C6A 1420  18.610  17.073   8.585 -0.0582 -0.0295  0.0136
   89loPI   C1B 1421  18.559  16.820  10.403  0.2494 -0.1168 -0.0595
   89loPI   C2B 1422  18.430  16.811   9.988 -0.0165 -0.0600  0.2427
   89loPI   C3B 1423  18.523  16.841   9.527 -0.0924 -0.1111  0.0901
   89loPI   C4B 1424  18.582  16.901   9.086  0.2119 -0.1700  0.1755
   90loPI    C1 1425  12.919   5.181  10.674 -0.1243 -0.2195  0.0402
   90loPI    C2 1426  13.184   4.897  10.772 -0.0244 -0.1793 -0.1081
   90loPI    C3 1427  13.179   5.244  10.971  0.1784 -0.0969 -0.2444
   90loPI   PO4 1428  12.752   4.977  10.507 -0.1423 -0.0636  0.0764
   90loPI   GL1 1429  12.576   4.976  10.212 -0.2422  0.2526 -0.0091
   90loPI   GL2 1430  12.495   4.670   9.988  0.1204  0.2068 -0.2650
   90loPI   C1A 1431  12.369   5.170   9.887 -0.0142 -0.0376 -0.4111
   90loPI   C2A 1432  12.006   5.269   9.774  0.1646 -0.2263  0.2839
   90loPI   C3A 1433  11.760   5.313   9.372 -0.0354  0.1391  0.0988
   90loPI   C4A 1434  11.711   5.323   8.887 -0.0854 -0.2167 -0.0225
   90loPI   C5A 1435  11.424   5.327   8.571  0.1828  0.1077 -0.2106
   90loPI   C6A 1436  11.029   5.171   8.509  0.3250  0.0755 -0.3898
   90loPI   C1B 1437  12.401   4.482   9.545  0.0056 -0.2035  0.0177
   90loPI   C2B 1438  12.376   4.548   9.058  0.1517  0.0270 -0.2865
   90loPI   C3B 1439  12.432   4.583   8.650  0.0889 -0.1894  0.0984
   90loPI   C4B 1440  12.235   4.646   8.224 -0.2274  0.1153  0.0091
   91loPI    C1 1441  14.008  14.476  11.224 -0.1171  0.0499 -0.0061
   91loPI    C2 1442  14.035  14.847  11.370  0.0471  0.0448 -0.0219
   91loPI    C3 1443  14.365  14.653  11.256 -0.0139 -0.1871  0.1866
   91loPI   PO4 1444  13.737  14.526  11.055 -0.1688  0.0029  0.2358
   91loPI   GL1 1445  13.737  14.419  10.615  0.0589 -0.2736 -0.0044
   91loPI   GL2 1446  13.451  14.100  10.626 -0.2730  0.2688 -0.0145
   91loPI   C1A 1447  13.926  14.338  10.268  0.1614 -0.0095 -0.4072
   91loPI   C2A 1448  14.196  14.379   9.951 -0.0230  0.3118 -0.1772
   91loPI   C3A 1449  14.225  14.376   9.500 -0.4165  0.4418 -0.4471
   91loPI   C4A 1450  14.181  14.167   9.086  0.0775 -0.0261 -0.0499
   91loPI   C5A 1451  14.189  14.308   8.704  0.1490  0.3007 -0.2501
   91loPI   C6A 1452  13.809  14.466   8.485  0.1565 -0.0299  0.1059
   91loPI   C1B 1453  13.411  14.376  10.283  0.2744 -0.1529 -0.1007
   91loPI   C2B 1454  13.224  14.353   9.895  0.3237  0.0580  0.3155
   91loPI   C3B 1455  13.270  14.205   9.568 -0.1172  0.2200  0.0216
   91loPI   C4B 1456  13.404  13.896   9.287  0.1756 -0.0706  0.0515
   92loPI    C1 1457   3.631  16.266  11.404 -0.2376  0.0433 -0.0598
   92loPI    C2 1458   3.776  15.902  11.321  0.0109  0.0877  0.1661
   92loPI    C3 1459   3.387  15.949  11.406 -0.0385 -0.1112  0.0554
   92loPI   PO4 1460   3.802  16.443  11.248 -0.1983 -0.0652  0.0970
   92loPI   GL1 1461   3.715  16.560  10.903  0.0190 -0.1009  0.0029
   92loPI   GL2 1462   4.005  16.636  10.795 -0.0188  0.2553  0.0871
   92loPI   C1A 1463   3.435  16.370  10.572 -0.0404 -0.3752  0.2735
   92loPI   C2A 1464   3.541  16.355  10.119  0.0855 -0.0685  0.2040
   92loPI   C3A 1465   3.618  16.301   9.730 -0.0289  0.0896  0.2030
   92loPI   C4A 1466   3.566  16.260   9.319 -0.2350 -0.2614  0.4465
   92loPI   C5A 1467   3.468  16.198   8.865  0.2065  0.1320  0.2775
   92loPI   C6A 1468   3.581  16.132   8.364  0.1303  0.2498 -0.0923
   92loPI   C1B 1469   3.865  16.765  10.363  0.0255 -0.1737 -0.0412
   92loPI   C2B 1470   3.790  16.779   9.998  0.0518 -0.2224 -0.2203
   92loPI   C3B 1471   3.838  16.801   9.626 -0.2143 -0.0575  0.2280
   92loPI   C4B 1472   3.918  16.594   9.174 -0.2932 -0.0204 -0.2927
   93loPI    C1 1473  11.404   5.974  10.863 -0.0907 -0.1078 -0.1702
   93loPI    C2 1474  11.540   6.342  10.943 -0.0407 -0.1286 -0.1590
   93loPI    C3 1475  11.452   6.091  11.242 -0.2303 -0.0696 -0.1640
   93loPI   PO4 1476  11.305   5.932  10.651 -0.0277 -0.2681 -0.1995
   93loPI   GL1 1477  11.153   6.049  10.206 -0.0783 -0.1520 -0.5923
   93loPI   GL2 1478  11.486   6.076  10.139 -0.0208  0.0406  0.0003
   93loPI   C1A 1479  11.100   6.082   9.687 -0.0086 -0.4323 -0.0927
   93loPI   C2A 1480  11.205   6.210   9.254  0.0441 -0.2236  0.2301
   93loPI   C3A 1481  11.172   6.215   8.862 -0.1007  0.0178  0.1449
   93loPI   C4A 1482  11.177   6.086   8.471 -0.1846 -0.0519  0.0792
   93loPI   C5A 1483  11.468   5.983   8.107  0.2514  0.0506 -0.1960
   93loPI   C6A 1484  11.390   6.142   7.684 -0.0449  0.0380 -0.1207
   93loPI   C1B 1485  11.603   6.218   9.797 -0.0516  0.2199 -0.2774
   93loPI   C2B 1486  11.695   6.193   9.410 -0.2565  0.2381  0.1931
   93loPI   C3B 1487  11.777   6.253   8.949  0.0311  0.0227 -0.0588
   93loPI   C4B 1488  11.640   6.302   8.479  0.4194  0.0944  0.1936
   94loPI    C1 1489  15.244   7.127  10.334  0.0516  0.0895  0.0327
   94loPI    C2 1490  15.177   7.414  10.604 -0.0120 -0.0074  0.1209
   94loPI    C3 1491  14.869   7.215  10.444  0.0059  0.2376 -0.2311
   94loPI   PO4 1492  15.404   7.236  10.222  0.1287 -0.0709 -0.0047
   94loPI   GL1 1493  15.630   7.214   9.822 -0.0828  0.2398 -0.0817
   94loPI   GL2 1494  15.351   7.349   9.786 -0.0129  0.0596  0.1678
   94loPI   C1A 1495  15.628   7.179   9.419  0.0389 -0.0724  0.3157
   94loPI   C2A 1496  15.687   7.154   8.947 -0.1413  0.0731 -0.0653
   94loPI   C3A 1497  15.463   7.331   8.548 -0.1179  0.2090  0.0974
   94loPI   C4A 1498  15.514   7.776   8.368 -0.1949  0.1607  0.1464
   94loPI   C5A 1499  15.971   7.913   8.239  0.1758  0.1015 -0.4034
   94loPI   C6A 1500  16.317   7.821   8.291  0.2435  0.1576 -0.0078
   94loPI   C1B 1501  15.437   7.623   9.396 -0.0292  0.2153  0.0920
   94loPI   C2B 1502  15.399   7.646   8.943 -0.0766  0.3883  0.2566
   94loPI   C3B 1503  15.831   7.657   8.726  0.1566 -0.1109 -0.0197
   94loPI   C4B 1504  16.159   7.845   8.792 -0.3641  0.0119 -0.0498
   95loPI    C1 1505  17.374  16.309  11.339 -0.0467 -0.0382 -0.0786
   95loPI    C2 1506  17.262  15.954  11.483  0.1566  0.0079  0.2025
   95loPI    C3 1507  17.418  16.228  11.728  0.0313  0.2811 -0.0181
   95loPI   PO4 1508  17.266  16.218  11.041  0.0048 -0.2132 -0.0471
   95loPI   GL1 1509  17.448  16.270  10.554  0.0575  0.1173 -0.1148
   95loPI   GL2 1510  17.673  16.659  10.668  0.0252 -0.0467 -0.1339
   95loPI   C1A 1511  17.731  16.098  10.283 -0.1673 -0.0967  0.2035
   95loPI   C2A 1512  17.777  16.014   9.876 -0.5496  0.0039 -0.2377
   95loPI   C3A 1513  17.877  16.057   9.416 -0.1189  0.2288  0.2538
   95loPI   C4A 1514  17.916  16.100   9.065  0.0219 -0.4034  0.0274
   95loPI   C5A 1515  18.070  16.038   8.637  0.1086  0.0584  0.3605
   95loPI   C6A 1516  17.965  15.841   8.306 -0.3809 -0.1816  0.2055
   95loPI   C1B 1517  17.627  16.604  10.198 -0.3113  0.1452  0.1194
   95loPI   C2B 1518  17.613  16.497   9.789 -0.3396  0.2059 -0.1457
   95loPI   C3B 1519  17.627  16.530   9.356  0.4278  0.1362 -0.0086
   95loPI   C4B 1520  17.775  16.582   8.938  0.0382 -0.0654 -0.2208
   96loPI    C1 1521  10.033   7.906  10.962 -0.2100 -0.2831 -0.0460
   96loPI    C2 1522   9.710   7.925  11.196 -0.1458 -0.2850  0.0436
   96loPI    C3 1523  10.073   7.887  11.359 -0.0362  0.3708 -0.0200
   96loPI   PO4 1524   9.950   7.657  10.740 -0.0181 -0.0098 -0.2442
   96loPI   GL1 1525   9.544   7.671  10.430 -0.0298  0.0458 -0.0951
   96loPI   GL2 1526   9.815   7.672  10.257  0.2742  0.0342 -0.3667
   96loPI   C1A 1527   9.536   8.062  10.220 -0.0648 -0.0467 -0.1459
   96loPI   C2A 1528   9.658   8.196   9.790 -0.0194  0.0430  0.1767
   96loPI   C3A 1529   9.774   8.295   9.309  0.1787  0.1813  0.0110
   96loPI   C4A 1530   9.767   8.394   8.750  0.0314  0.1192  0.0314
   96loPI   C5A 1531   9.957   8.311   8.379 -0.2424  0.0194  0.1577
   96loPI   C6A 1532   9.765   8.219   7.927  0.2040 -0.0335  0.3123
   96loPI   C1B 1533   9.893   7.735   9.878  0.4097 -0.1565  0.3330
   96loPI   C2B 1534   9.930   7.736   9.531 -0.0276  0.1847 -0.0076
   96loPI   C3B 1535  10.026   7.910   9.048  0.0298  0.0217  0.1343
   96loPI   C4B 1536  10.078   7.874   8.607  0.0299 -0.1278 -0.0768
   97loPI    C1 1537   3.168  11.877  10.666 -0.0464 -0.0426 -0.1221
   97loPI    C2 1538   2.958  11.887  11.006  0.0546  0.1334 -0.0639
   97loPI    C3 1539   3.006  11.541  10.811 -0.0919  0.0507  0.0449
   97loPI   PO4 1540   3.044  12.062  10.563  0.0557 -0.3246 -0.0079
   97loPI   GL1 1541   3.038  12.409  10.317  0.2117 -0.0866 -0.0250
   97loPI   GL2 1542   2.735  12.229  10.139  0.2496 -0.1628  0.0929
   97loPI   C1A 1543   3.063  12.592   9.885 -0.0082 -0.1288  0.0663
   97loPI   C2A 1544   3.031  12.611   9.462  0.1537  0.0095  0.3528
   97loPI   C3A 1545   2.982  12.571   8.967  0.0860 -0.0319 -0.1758
   97loPI   C4A 1546   2.799  12.542   8.541  0.0199 -0.2392 -0.1391
   97loPI   C5A 1547   2.993  12.613   8.236  0.3824 -0.3024  0.2408
   97loPI   C6A 1548   2.828  12.496   7.840 -0.0213 -0.3772 -0.2185
   97loPI   C1B 1549   2.720  12.263   9.688  0.3113  0.1523  0.0201
   97loPI   C2B 1550   2.692  12.273   9.245 -0.3640  0.0078 -0.0486
   97loPI   C3B 1551   2.575  12.171   8.889  0.0590 -0.0059  0.4179
   97loPI   C4B 1552   2.557  12.080   8.519  0.0900  0.2552  0.1975
   98loPI    C1 1553  16.015   3.702  10.775 -0.0656  0.1085  0.1083
   98loPI    C2 1554  15.738   3.622  11.051 -0.0316  0.1492  0.1544
   98loPI    C3 1555  16.109   3.722  11.163  0.0702 -0.1465  0.0908
   98loPI   PO4 1556  15.794   3.848  10.589 -0.0383  0.0137  0.1251
   98loPI   GL1 1557  15.585   3.845  10.251  0.0694 -0.0476  0.1843
   98loPI   GL2 1558  15.282   3.732  10.283 -0.0197 -0.4803 -0.1565
   98loPI   C1A 1559  15.708   3.866   9.880  0.0535 -0.0431  0.0162
   98loPI   C2A 1560  15.809   3.827   9.458  0.1085 -0.1011 -0.2584
   98loPI   C3A 1561  15.795   3.726   9.128  0.2986 -0.2305 -0.1049
   98loPI   C4A 1562  15.849   3.655   8.723 -0.0776  0.1677  0.0672
   98loPI   C5A 1563  15.741   3.676   8.308  0.1777  0.0284 -0.0281
   98loPI   C6A 1564  15.592   3.778   8.012  0.0609  0.1557  0.2299
   98loPI   C1B 1565  15.262   3.650   9.857 -0.0927 -0.2887  0.0775
   98loPI   C2B 1566  15.356   3.582   9.454 -0.0071 -0.1619  0.0787
   98loPI   C3B 1567  15.291   3.552   9.060  0.0290  0.1624  0.2264
   98loPI   C4B 1568  15.319   3.589   8.621 -0.2835 -0.0071 -0.0013
   99loPI    C1 1569   1.734   5.315  10.330 -0.0726  0.1918  0.0882
   99loPI    C2 1570   1.888   5.376  10.694  0.1543 -0.0496  0.0357
   99loPI    C3 1571   2.117   5.422  10.369  0.0551 -0.1939 -0.0559
   99loPI   PO4 1572   1.466   5.530  10.409  0.2574 -0.0781  0.0415
   99loPI   GL1 1573   1.312   5.457  10.019 -0.3005 -0.1749 -0.1460
   99loPI   GL2 1574   1.375   5.858   9.977 -0.0629  0.0967 -0.2107
   99loPI   C1A 1575   1.412   5.445   9.596  0.1818 -0.1280 -0.0301
   99loPI   C2A 1576   1.501   5.518   9.103 -0.0804 -0.1498 -0.1257
   99loPI   C3A 1577   1.544   5.549   8.649  0.1806 -0.2752  0.0089
   99loPI   C4A 1578   1.344   5.610   8.241 -0.1622 -0.2701 -0.1696
   99loPI   C5A 1579   1.251   5.445   7.917 -0.1021 -0.3137 -0.3748
   99loPI   C6A 1580   1.229   4.992   7.799 -0.2073  0.1728  0.2562
   99loPI   C1B 1581   1.370   5.920   9.613 -0.0950 -0.2212 -0.1405
   99loPI   C2B 1582   1.368   6.080   9.154  0.1271 -0.0407 -0.0700
   99loPI   C3B 1583   1.266   5.999   8.713  0.0940  0.0342 -0.3180
   99loPI   C4B 1584   0.999   5.858   8.469  0.1160 -0.0867  0.1019
  100loPI    C1 1585  12.668   1.660  10.816  0.0391 -0.0834 -0.3250
  100loPI    C2 1586  12.871   1.906  11.057 -0.3787  0.1096 -0.1594
  100loPI    C3 1587  12.671   1.595  11.210 -0.2995 -0.0160 -0.3077
  100loPI   PO4 1588  12.754   1.629  10.612  0.2389  0.0845 -0.2968
  100loPI   GL1 1589  12.835   1.847  10.334 -0.0439 -0.2410 -0.0341
  100loPI   GL2 1590  13.094   2.008  10.361 -0.2833  0.1867 -0.0535
  100loPI   C1A 1591  12.730   1.766   9.888 -0.1352  0.2847 -0.1423
  100loPI   C2A 1592  12.728   1.813   9.500  0.0799  0.1893  0.1107
  100loPI   C3A 1593  12.755   1.679   9.029 -0.2529  0.0179  0.2593
  100loPI   C4A 1594  12.809   1.740   8.655  0.1752  0.0403 -0.1253
  100loPI   C5A 1595  12.883   2.009   8.293 -0.1641 -0.0015  0.3279
  100loPI   C6A 1596  12.835   2.394   8.021 -0.0070 -0.1261  0.1056
  100loPI   C1B 1597  13.216   1.930   9.952  0.0522  0.1262 -0.0856
  100loPI   C2B 1598  13.183   1.901   9.522  0.1744 -0.0951  0.3368
  100loPI   C3B 1599  13.253   1.759   9.053 -0.1211 -0.1845  0.1184
  100loPI   C4B 1600  13.309   1.869   8.661 -0.2280 -0.2460 -0.3022
  101loPI    C1 1601   3.866  14.393  10.933 -0.1336 -0.0338  0.0185
  101loPI    C2 1602   3.910  14.273  11.312  0.0043  0.2110  0.0827
  101loPI    C3 1603   3.745  14.028  11.042  0.1806 -0.0780  0.2322
  101loPI   PO4 1604   4.159  14.514  10.899 -0.0270 -0.1584  0.2153
  101loPI   GL1 1605   4.302  14.482  10.484  0.2158  0.0995 -0.0331
  101loPI   GL2 1606   3.893  14.487  10.380 -0.1144  0.1323 -0.2148
  101loPI   C1A 1607   4.252  14.325  10.005  0.1339  0.1365 -0.2072
  101loPI   C2A 1608   4.234  14.350   9.621 -0.0586 -0.1072  0.1973
  101loPI   C3A 1609   4.315  14.234   9.250  0.1674  0.1643 -0.1164
  101loPI   C4A 1610   4.400  14.209   8.772  0.1067  0.5778 -0.1994
  101loPI   C5A 1611   4.212  13.945   8.400  0.3154 -0.1283  0.1402
  101loPI   C6A 1612   3.784  13.780   8.289  0.0976  0.0190  0.0210
  101loPI   C1B 1613   3.783  14.396   9.949  0.2524 -0.1068  0.2055
  101loPI   C2B 1614   3.735  14.314   9.603  0.1574  0.2240 -0.1387
  101loPI   C3B 1615   3.805  14.240   9.201  0.1063  0.3740 -0.4054
  101loPI   C4B 1616   3.756  14.355   8.785 -0.0166  0.0339  0.0291
  102loPI    C1 1617  15.482   0.332  10.817  0.1503  0.1048  0.1862
  102loPI    C2 1618  15.169   0.304  11.064 -0.0278  0.1422 -0.0316
  102loPI    C3 1619  15.524   0.424  11.204 -0.0745 -0.0317  0.2451
  102loPI   PO4 1620  15.334   0.385  10.608  0.1178  0.0116  0.0926
  102loPI   GL1 1621  15.398   0.215  10.205 -0.0128 -0.3091 -0.0721
  102loPI   GL2 1622  15.700   0.480  10.215 -0.0280  0.2573 -0.0282
  102loPI   C1A 1623  15.518   0.092   9.782  0.0586  0.4618  0.1067
  102loPI   C2A 1624  15.510   0.077   9.322  0.0330 -0.2269 -0.0433
  102loPI   C3A 1625  15.591   0.252   8.917 -0.0730  0.4074  0.2698
  102loPI   C4A 1626  15.891   0.341   8.534  0.1101  0.2219 -0.0045
  102loPI   C5A 1627  16.192   0.214   8.277 -0.2845 -0.0511 -0.1991
  102loPI   C6A 1628  16.265   0.217   7.829  0.0037  0.2701 -0.1401
  102loPI   C1B 1629  15.869   0.442   9.897 -0.0022  0.0130 -0.2135
  102loPI   C2B 1630  15.880   0.482   9.493  0.3161 -0.2075  0.2344
  102loPI   C3B 1631  15.735   0.653   9.142  0.1839 -0.1012  0.2376
  102loPI   C4B 1632  15.966   0.773   8.848  0.1303  0.1228 -0.1373
  103loPI    C1 1633   0.370   8.134  10.273 -0.0828 -0.0237 -0.2127
  103loPI    C2 1634   0.504   8.500  10.361  0.0370 -0.1434  0.1195
  103loPI    C3 1635   0.763   8.204  10.291 -0.0581 -0.1206 -0.3581
  103loPI   PO4 1636   0.148   8.203  10.146  0.0171  0.1166  0.0346
  103loPI   GL1 1637   0.146   8.010   9.681  0.3139 -0.1073 -0.0944
  103loPI   GL2 1638  -0.158   8.198   9.582 -0.0069  0.0103  0.1146
  103loPI   C1A 1639   0.209   8.029   9.328  0.2190 -0.3895 -0.0288
  103loPI   C2A 1640   0.038   7.876   8.914  0.2178  0.0904 -0.1729
  103loPI   C3A 1641  -0.020   7.701   8.499  0.2596  0.2661  0.2188
  103loPI   C4A 1642  -0.059   7.577   8.070 -0.0523  0.2829  0.2245
  103loPI   C5A 1643   0.211   7.349   7.923  0.0372  0.0917 -0.3902
  103loPI   C6A 1644   0.382   7.576   7.515 -0.0518  0.1250  0.3464
  103loPI   C1B 1645  -0.234   8.237   9.125 -0.0300 -0.1161 -0.0914
  103loPI   C2B 1646  -0.359   8.254   8.714 -0.1443  0.2124  0.0517
  103loPI   C3B 1647  -0.549   8.447   8.310 -0.4558 -0.0577  0.1512
  103loPI   C4B 1648  -0.953   8.420   8.028 -0.1045 -0.1376  0.3084
  104loPI    C1 1649   2.795  15.244  10.996  0.2887  0.2778 -0.1053
  104loPI    C2 1650   2.841  14.994  11.305  0.0656  0.1053 -0.2092
  104loPI    C3 1651   2.579  15.296  11.329  0.1110  0.1440 -0.1983
  104loPI   PO4 1652   3.034  15.264  10.935  0.0834  0.0758 -0.0950
  104loPI   GL1 1653   3.333  15.432  10.545 -0.1258  0.1198  0.1326
  104loPI   GL2 1654   3.314  15.726  10.571  0.0282  0.4030  0.0137
  104loPI   C1A 1655   3.535  15.523  10.109 -0.1948  0.4400  0.0095
  104loPI   C2A 1656   3.422  15.441   9.690  0.0733  0.0158 -0.1627
  104loPI   C3A 1657   3.404  15.301   9.245 -0.1530  0.3059  0.0410
  104loPI   C4A 1658   3.393  15.322   8.845  0.4267  0.3089 -0.0407
  104loPI   C5A 1659   3.045  15.364   8.652 -0.1694 -0.1149 -0.0948
  104loPI   C6A 1660   2.934  15.545   8.237 -0.5011  0.0226 -0.2413
  104loPI   C1B 1661   3.186  15.954  10.280 -0.2524  0.1765 -0.0813
  104loPI   C2B 1662   3.288  15.946   9.868 -0.0259 -0.2820  0.1928
  104loPI   C3B 1663   3.211  15.933   9.550  0.0599  0.1333 -0.0775
  104loPI   C4B 1664   3.173  15.799   9.093 -0.3815  0.1301  0.0081
  105loPI    C1 1665   9.194   4.183  10.953 -0.2844  0.1439  0.0044
  105loPI    C2 1666   8.872   4.007  10.794 -0.1856 -0.0780  0.0457
  105loPI    C3 1667   9.096   3.811  11.061  0.0687  0.0180 -0.0934
  105loPI   PO4 1668   9.243   4.319  10.714  0.0156  0.2499 -0.0629
  105loPI   GL1 1669   8.981   4.365  10.346 -0.0702  0.2537 -0.1099
  105loPI   GL2 1670   8.872   4.643  10.262  0.0672 -0.3016 -0.0518
  105loPI   C1A 1671   8.838   4.113  10.091  0.0027  0.1130 -0.1213
  105loPI   C2A 1672   8.751   3.900   9.776  0.0534 -0.0931  0.0174
  105loPI   C3A 1673   8.669   3.927   9.335  0.0493  0.1216  0.2409
  105loPI   C4A 1674   8.597   4.031   8.881 -0.0205 -0.1961 -0.0912
  105loPI   C5A 1675   8.653   3.927   8.409  0.0913 -0.0633 -0.3601
  105loPI   C6A 1676   8.771   3.589   8.113  0.0792  0.0940 -0.0406
  105loPI   C1B 1677   8.965   4.619   9.868 -0.1362 -0.0046 -0.1394
  105loPI   C2B 1678   8.957   4.652   9.440  0.1679  0.1742  0.1661
  105loPI   C3B 1679   8.794   4.491   9.146 -0.2440 -0.2185  0.2263
  105loPI   C4B 1680   8.735   4.500   8.758 -0.0189  0.3667  0.0839
  106loPI    C1 1681   2.435   8.917  10.946  0.0197 -0.0512  0.0716
  106loPI    C2 1682   2.091   8.842  11.135 -0.0519 -0.0514 -0.0575
  106loPI    C3 1683   2.437   8.822  11.334 -0.1308  0.0050  0.0868
  106loPI   PO4 1684   2.438   9.004  10.779  0.2373 -0.0560  0.1317
  106loPI   GL1 1685   2.374   8.795  10.422 -0.1916  0.2495 -0.1716
  106loPI   GL2 1686   2.728   8.898  10.324 -0.1095  0.0943 -0.0785
  106loPI   C1A 1687   2.411   8.878   9.915 -0.3338  0.2117 -0.1024
  106loPI   C2A 1688   2.680   8.771   9.493  0.1698  0.0594 -0.0604
  106loPI   C3A 1689   2.539   8.852   9.086  0.3918 -0.0259 -0.4890
  106loPI   C4A 1690   2.563   8.839   8.715  0.0959  0.1281 -0.2244
  106loPI   C5A 1691   2.544   8.737   8.328 -0.0112 -0.0627 -0.0980
  106loPI   C6A 1692   2.676   8.483   8.038 -0.1544 -0.1074  0.1000
  106loPI   C1B 1693   2.647   8.454  10.072 -0.0048 -0.1312  0.0168
  106loPI   C2B 1694   2.748   8.283   9.612  0.2185  0.0418  0.0532
  106loPI   C3B 1695   2.844   8.428   9.161  0.3601  0.0625  0.0907
  106loPI   C4B 1696   2.741   8.299   8.623 -0.2267 -0.1739  0.2397
  107loPI    C1 1697   2.378   5.316  10.840  0.0344  0.0345  0.0417
  107loPI    C2 1698   2.580   5.553  11.091 -0.0837  0.1030  0.0728
  107loPI    C3 1699   2.180   5.550  11.096 -0.0842 -0.0403  0.0195
  107loPI   PO4 1700   2.580   5.203  10.679 -0.0053 -0.2914  0.1258
  107loPI   GL1 1701   2.647   5.178  10.243  0.2092  0.2004  0.0455
  107loPI   GL2 1702   2.747   5.528  10.095 -0.0170  0.2455 -0.0245
  107loPI   C1A 1703   2.728   5.054   9.866 -0.1109  0.4094  0.0965
  107loPI   C2A 1704   2.660   4.974   9.532 -0.1515 -0.2837 -0.0602
  107loPI   C3A 1705   2.741   4.976   9.175  0.0141  0.0609 -0.0035
  107loPI   C4A 1706   2.879   4.904   8.822 -0.0050  0.2600  0.0223
  107loPI   C5A 1707   2.897   4.784   8.472  0.0365 -0.0686  0.3089
  107loPI   C6A 1708   3.199   4.459   8.241 -0.1573 -0.1171  0.0491
  107loPI   C1B 1709   2.787   5.536   9.695  0.0361  0.3007  0.0022
  107loPI   C2B 1710   2.751   5.557   9.218  0.0538  0.1861  0.0248
  107loPI   C3B 1711   2.890   5.437   8.808  0.1933  0.0496 -0.1101
  107loPI   C4B 1712   2.813   5.402   8.486 -0.0108 -0.3923  0.2386
  108loPI    C1 1713   4.565   3.966  11.188  0.0310  0.2324  0.2090
  108loPI    C2 1714   4.484   4.340  11.306 -0.0479  0.3228 -0.1229
  108loPI    C3 1715   4.214   4.134  11.094 -0.0142  0.0672  0.0787
  108loPI   PO4 1716   4.683   3.978  10.965 -0.2664  0.1356 -0.0998
  108loPI   GL1 1717   4.432   4.217  10.606 -0.1104 -0.1556  0.2309
  108loPI   GL2 1718   4.690   4.071  10.469  0.0396  0.3703 -0.1044
  108loPI   C1A 1719   4.410   4.307  10.107 -0.2669 -0.1207 -0.0710
  108loPI   C2A 1720   4.477   4.242   9.663 -0.0896 -0.1497 -0.1314
  108loPI   C3A 1721   4.374   4.255   9.202  0.0069  0.1882 -0.1192
  108loPI   C4A 1722   4.402   4.291   8.753 -0.0633 -0.2190  0.1506
  108loPI   C5A 1723   4.153   4.298   8.476 -0.0200 -0.0878  0.1596
  108loPI   C6A 1724   3.706   4.445   8.458 -0.0225 -0.2452  0.3665
  108loPI   C1B 1725   4.834   3.879  10.087 -0.0647  0.1782 -0.1451
  108loPI   C2B 1726   4.828   3.944   9.705 -0.1116  0.0901 -0.1078
  108loPI   C3B 1727   4.825   3.934   9.368  0.2437 -0.0110  0.0002
  108loPI   C4B 1728   4.825   3.962   8.987 -0.1534 -0.2628  0.0387
  109loPI    C1 1729  15.936   5.412  10.961 -0.0202 -0.0118  0.0643
  109loPI    C2 1730  15.673   5.712  10.990  0.0789  0.0886 -0.0622
  109loPI    C3 1731  15.894   5.609  11.306 -0.0588  0.0525  0.0233
  109loPI   PO4 1732  15.828   5.230  10.759  0.0196 -0.4976  0.0834
  109loPI   GL1 1733  15.795   4.998  10.331  0.3206 -0.0223 -0.0188
  109loPI   GL2 1734  15.549   5.130  10.242  0.0957 -0.0358 -0.0610
  109loPI   C1A 1735  15.891   4.706  10.023  0.1917  0.1871 -0.1812
  109loPI   C2A 1736  15.918   4.793   9.601 -0.0714 -0.0287  0.3231
  109loPI   C3A 1737  16.047   4.763   9.253 -0.2181  0.3920  0.3422
  109loPI   C4A 1738  16.089   4.746   8.818  0.0202  0.4334 -0.1142
  109loPI   C5A 1739  16.180   4.791   8.459  0.0814  0.2442  0.2502
  109loPI   C6A 1740  16.211   4.513   8.059  0.1033  0.0949 -0.3413
  109loPI   C1B 1741  15.538   5.053   9.805  0.1664 -0.1542 -0.1810
  109loPI   C2B 1742  15.547   5.062   9.379  0.0699 -0.0233 -0.1446
  109loPI   C3B 1743  15.736   5.064   8.989 -0.0818  0.1844  0.1340
  109loPI   C4B 1744  15.735   5.009   8.564 -0.0887  0.1550  0.0288
  110loPI    C1 1745   1.701  17.481  11.422  0.0420  0.2220  0.1508
  110loPI    C2 1746   2.061  17.438  11.252 -0.0781  0.0333 -0.0626
  110loPI    C3 1747   2.032  17.554  11.634  0.2096 -0.0113 -0.0250
  110loPI   PO4 1748   1.569  17.621  11.223  0.2482 -0.1869 -0.0589
  110loPI   GL1 1749   1.570  17.693  10.744  0.0317 -0.0611  0.1610
  110loPI   GL2 1750   1.846  17.541  10.737 -0.0338  0.5820 -0.0920
  110loPI   C1A 1751   1.496  17.661  10.333  0.1950  0.0231 -0.0851
  110loPI   C2A 1752   1.617  17.556   9.927  0.1495  0.1495 -0.1749
  110loPI   C3A 1753   1.678  17.554   9.488  0.1484 -0.0251 -0.1264
  110loPI   C4A 1754   1.610  17.518   8.999 -0.3162 -0.1325 -0.3807
  110loPI   C5A 1755   1.941  17.509   8.733  0.2618 -0.0270  0.3904
  110loPI   C6A 1756   2.325  17.330   8.670 -0.1085  0.1225 -0.0935
  110loPI   C1B 1757   1.940  17.464  10.305  0.1522  0.0779  0.1991
  110loPI   C2B 1758   2.171  17.478   9.981  0.3175 -0.2773 -0.1742
  110loPI   C3B 1759   2.152  17.419   9.627  0.2327  0.2163  0.0913
  110loPI   C4B 1760   2.245  17.423   9.188 -0.2765  0.0729  0.1642
  111loPI    C1 1761  15.430   6.687  10.281  0.1154  0.2390 -0.0831
  111loPI    C2 1762  15.757   6.907  10.216  0.3610  0.0104  0.3317
  111loPI    C3 1763  15.624   6.853  10.589 -0.1811  0.1342  0.1656
  111loPI   PO4 1764  15.477   6.486  10.093 -0.2568  0.0857 -0.0119
  111loPI   GL1 1765  15.559   6.597   9.765 -0.3032 -0.1516 -0.1381
  111loPI   GL2 1766  15.277   6.846   9.771 -0.0062  0.3899 -0.2739
  111loPI   C1A 1767  15.618   6.686   9.427 -0.0062 -0.0696  0.1345
  111loPI   C2A 1768  15.483   6.673   9.021  0.0824 -0.2358 -0.1079
  111loPI   C3A 1769  15.418   6.811   8.616  0.5132 -0.1599 -0.0755
  111loPI   C4A 1770  15.508   6.549   8.213  0.1200  0.2008  0.2525
  111loPI   C5A 1771  15.674   6.172   7.980 -0.1565  0.2169  0.1197
  111loPI   C6A 1772  15.636   5.844   7.766 -0.3263 -0.0774  0.0600
  111loPI   C1B 1773  15.156   6.986   9.334  0.1356  0.0222  0.2017
  111loPI   C2B 1774  15.212   7.158   8.996  0.0865  0.0054 -0.0410
  111loPI   C3B 1775  14.939   7.212   8.625 -0.0865 -0.0372  0.1136
  111loPI   C4B 1776  14.935   7.210   8.265 -0.0251 -0.1578  0.2407
  112loPI    C1 1777  17.834   0.072  11.112 -0.2273 -0.2734 -0.1957
  112loPI    C2 1778  17.926   0.006  11.496 -0.1388  0.0183 -0.1642
  112loPI    C3 1779  17.549  -0.037  11.370 -0.1830  0.0012 -0.0267
  112loPI   PO4 1780  17.857   0.237  10.988 -0.3341  0.1184  0.1172
  112loPI   GL1 1781  17.853   0.316  10.496 -0.1937  0.1050 -0.0235
  112loPI   GL2 1782  17.621   0.071  10.557 -0.0552 -0.2056 -0.0021
  112loPI   C1A 1783  17.894   0.273  10.086 -0.2170 -0.0324 -0.1346
  112loPI   C2A 1784  17.966   0.243   9.641 -0.3732 -0.3335  0.0087
  112loPI   C3A 1785  18.055   0.198   9.216 -0.1062 -0.0515  0.0108
  112loPI   C4A 1786  18.057   0.146   8.760 -0.1174  0.1516  0.3925
  112loPI   C5A 1787  17.839  -0.177   8.507 -0.0211  0.1652  0.0454
  112loPI   C6A 1788  17.617  -0.507   8.355  0.0876 -0.0753  0.1631
  112loPI   C1B 1789  17.682  -0.176  10.223 -0.0216  0.0472  0.0204
  112loPI   C2B 1790  17.642  -0.154   9.857  0.1570 -0.3950 -0.0247
  112loPI   C3B 1791  17.734  -0.151   9.477 -0.1660 -0.1197 -0.1691
  112loPI   C4B 1792  17.677  -0.165   9.044  0.1295  0.1444  0.1914
  113loPI    C1 1793  13.883  18.036  11.172  0.1859  0.0743  0.0118
  113loPI    C2 1794  13.811  18.068  11.564 -0.1147 -0.2486 -0.0122
  113loPI    C3 1795  13.641  17.774  11.353  0.0940 -0.1149 -0.3750
  113loPI   PO4 1796  13.846  18.294  11.098  0.1595 -0.0629  0.1352
  113loPI   GL1 1797  13.720  18.368  10.730 -0.2568  0.2740 -0.2410
  113loPI   GL2 1798  13.748  18.664  10.644  0.0032  0.2648 -0.0272
  113loPI   C1A 1799  13.769  18.284  10.294 -0.1558  0.0716 -0.0336
  113loPI   C2A 1800  13.723  18.311   9.854 -0.0490  0.1055  0.1941
  113loPI   C3A 1801  13.720  18.134   9.425 -0.1639  0.0870  0.0430
  113loPI   C4A 1802  13.737  18.168   8.972  0.2167  0.0696 -0.1566
  113loPI   C5A 1803  13.679  18.005   8.564  0.2203 -0.0900 -0.1487
  113loPI   C6A 1804  13.874  18.169   8.109 -0.3231 -0.0189  0.0624
  113loPI   C1B 1805  13.806  18.832  10.158 -0.0496  0.2746  0.2403
  113loPI   C2B 1806  13.907  18.828   9.799  0.0695  0.2322 -0.1374
  113loPI   C3B 1807  13.841  18.670   9.454  0.2597  0.0332  0.1322
  113loPI   C4B 1808  13.842  18.650   9.071  0.1704 -0.1030  0.0928
  114loPI    C1 1809   9.196   7.989  11.026  0.2535 -0.0477  0.0123
  114loPI    C2 1810   8.919   7.893  11.299  0.1686  0.2282  0.0267
  114loPI    C3 1811   9.270   8.046  11.415  0.1980  0.1886 -0.0098
  114loPI   PO4 1812   9.143   8.235  10.886  0.1417 -0.0022  0.2333
  114loPI   GL1 1813   9.262   8.398  10.503 -0.1285  0.0332  0.1809
  114loPI   GL2 1814   8.940   8.418  10.457 -0.2076 -0.2016 -0.0842
  114loPI   C1A 1815   9.353   8.529  10.131 -0.0341 -0.1853 -0.0962
  114loPI   C2A 1816   9.425   8.655   9.763  0.0156  0.0311 -0.0536
  114loPI   C3A 1817   9.499   8.770   9.407 -0.0018 -0.0684  0.0708
  114loPI   C4A 1818   9.589   8.785   9.073 -0.0889 -0.1761 -0.0567
  114loPI   C5A 1819   9.371   8.714   8.754 -0.0221 -0.1441  0.1350
  114loPI   C6A 1820   9.233   8.371   8.511  0.2630 -0.1111 -0.0192
  114loPI   C1B 1821   8.882   8.542   9.948  0.2385 -0.0671  0.0002
  114loPI   C2B 1822   8.917   8.601   9.538 -0.2263 -0.0867 -0.1202
  114loPI   C3B 1823   9.017   8.725   9.140 -0.1490 -0.0112  0.1123
  114loPI   C4B 1824   8.908   8.766   8.674  0.0964 -0.1103 -0.0378
  115loPI    C1 1825   4.109   1.266  11.145 -0.0533  0.2555  0.0265
  115loPI    C2 1826   3.757   1.077  11.128 -0.0400  0.2389 -0.0686
  115loPI    C3 1827   3.893   1.213  11.478  0.0402 -0.0980  0.0348
  115loPI   PO4 1828   4.208   1.061  10.858  0.4854  0.1313 -0.0190
  115loPI   GL1 1829   4.399   1.020  10.440  0.2292 -0.0531 -0.3222
  115loPI   GL2 1830   4.364   0.730  10.500 -0.2372 -0.1375 -0.0121
  115loPI   C1A 1831   4.482   1.131   9.974  0.2829 -0.0125 -0.3400
  115loPI   C2A 1832   4.576   1.029   9.545 -0.1384 -0.0486 -0.1787
  115loPI   C3A 1833   4.714   0.768   9.207  0.3930  0.0389 -0.1472
  115loPI   C4A 1834   4.997   0.589   8.798  0.3832 -0.1791  0.0823
  115loPI   C5A 1835   5.336   0.244   8.641  0.1001 -0.0553 -0.0896
  115loPI   C6A 1836   5.669   0.346   8.345 -0.1025  0.1212 -0.0855
  115loPI   C1B 1837   4.372   0.656  10.084 -0.0086  0.0800 -0.0631
  115loPI   C2B 1838   4.454   0.600   9.666 -0.2469 -0.3056 -0.1694
  115loPI   C3B 1839   4.319   0.417   9.262 -0.1153 -0.1497  0.2044
  115loPI   C4B 1840   4.534   0.261   8.929 -0.2215  0.0296  0.2982
  116loPI    C1 1841   5.307  12.964  10.873 -0.2275 -0.0145  0.0920
  116loPI    C2 1842   5.453  13.327  10.959  0.0965 -0.1196 -0.0008
  116loPI    C3 1843   5.350  13.078  11.254  0.1124 -0.0462  0.0669
  116loPI   PO4 1844   5.155  12.938  10.665 -0.1198  0.3148  0.2517
  116loPI   GL1 1845   5.268  13.002  10.266 -0.1588 -0.1011 -0.0623
  116loPI   GL2 1846   4.956  13.112  10.213 -0.3125 -0.0109  0.0781
  116loPI   C1A 1847   5.230  13.118   9.804 -0.0448 -0.0610  0.0225
  116loPI   C2A 1848   5.218  13.172   9.333 -0.2041  0.0048 -0.0986
  116loPI   C3A 1849   5.201  13.190   8.970 -0.2704  0.3075 -0.0077
  116loPI   C4A 1850   5.323  13.028   8.587  0.1227 -0.2517  0.0859
  116loPI   C5A 1851   5.410  12.686   8.259  0.1436 -0.3258  0.1026
  116loPI   C6A 1852   5.514  12.498   7.881 -0.0546  0.2641  0.2204
  116loPI   C1B 1853   4.573  13.240   9.901  0.1483 -0.1800  0.1300
  116loPI   C2B 1854   4.741  13.309   9.525 -0.1093 -0.0925 -0.0733
  116loPI   C3B 1855   4.726  13.244   9.228  0.4390 -0.2658 -0.0460
  116loPI   C4B 1856   4.615  13.236   8.752 -0.3748 -0.2345  0.2036
  117loPI    C1 1857  17.628  10.473  10.938 -0.2430  0.0153  0.0490
  117loPI    C2 1858  17.701  10.843  11.073 -0.0524  0.0715 -0.2013
  117loPI    C3 1859  17.971  10.553  11.129 -0.1150  0.0173 -0.1781
  117loPI   PO4 1860  17.526  10.480  10.687 -0.0078  0.1187  0.0262
  117loPI   GL1 1861  17.364  10.516  10.304 -0.1732 -0.1451  0.1452
  117loPI   GL2 1862  17.199  10.720  10.264  0.2472 -0.2211 -0.0028
  117loPI   C1A 1863  17.606  10.834   9.817 -0.1792 -0.1169  0.1852
  117loPI   C2A 1864  17.645  10.906   9.357  0.3075  0.2464 -0.0155
  117loPI   C3A 1865  17.601  11.008   8.923 -0.3041 -0.0924  0.0166
  117loPI   C4A 1866  17.863  11.025   8.684 -0.0540 -0.2850 -0.3882
  117loPI   C5A 1867  17.776  10.902   8.372  0.1732  0.1023  0.1884
  117loPI   C6A 1868  17.687  10.779   7.908  0.0859 -0.2183  0.0518
  117loPI   C1B 1869  17.092  10.786   9.877 -0.0614  0.1034  0.0836
  117loPI   C2B 1870  16.774  10.814   9.498  0.0753  0.5568  0.0736
  117loPI   C3B 1871  16.805  10.703   9.160 -0.2832  0.1807 -0.2002
  117loPI   C4B 1872  16.631  10.342   8.845  0.0392  0.0501 -0.1789
  118loPI    C1 1873  10.855  17.821  10.939 -0.0957 -0.0237 -0.0743
  118loPI    C2 1874  11.065  18.153  11.016 -0.0114 -0.0973  0.0161
  118loPI    C3 1875  10.899  17.947  11.316 -0.0277 -0.1603 -0.0359
  118loPI   PO4 1876  11.001  17.716  10.761 -0.0822 -0.1478 -0.0840
  118loPI   GL1 1877  11.165  17.725  10.342  0.1462 -0.0190 -0.0852
  118loPI   GL2 1878  11.002  17.459  10.265  0.1636  0.1647 -0.1673
  118loPI   C1A 1879  11.249  18.074  10.082  0.0382 -0.0482  0.1685
  118loPI   C2A 1880  11.323  18.120   9.631  0.1450 -0.0337  0.1436
  118loPI   C3A 1881  11.332  18.017   9.221 -0.1194  0.1444 -0.1379
  118loPI   C4A 1882  11.289  17.888   8.722 -0.0313  0.0595  0.0398
  118loPI   C5A 1883  11.295  17.609   8.455  0.1755 -0.3065 -0.4338
  118loPI   C6A 1884  11.059  17.327   8.217  0.3287 -0.0411 -0.2084
  118loPI   C1B 1885  11.026  17.350   9.911 -0.0534 -0.0645  0.0512
  118loPI   C2B 1886  11.073  17.470   9.527 -0.3045  0.2011  0.0904
  118loPI   C3B 1887  11.081  17.519   9.093  0.0335 -0.3314  0.0035
  118loPI   C4B 1888  10.876  17.429   8.674 -0.1316  0.2205  0.0279
  119loPI    C1 1889   9.178   0.493  10.877  0.0363  0.0281  0.2187
  119loPI    C2 1890   9.079   0.792  11.124  0.1699  0.1570  0.1178
  119loPI    C3 1891   9.307   0.491  11.256  0.1775  0.1865  0.1727
  119loPI   PO4 1892   9.215   0.592  10.639 -0.0725 -0.0215 -0.0224
  119loPI   GL1 1893   9.474   0.514  10.362  0.0097  0.1254  0.0411
  119loPI   GL2 1894   9.767   0.299  10.304  0.0844  0.0422  0.1188
  119loPI   C1A 1895   9.605   0.547   9.844 -0.2468 -0.1943 -0.1562
  119loPI   C2A 1896   9.669   0.505   9.459 -0.1224 -0.2823 -0.2032
  119loPI   C3A 1897   9.573   0.496   9.083  0.2982  0.2455  0.4895
  119loPI   C4A 1898   9.453   0.428   8.629  0.2713 -0.0207 -0.0856
  119loPI   C5A 1899   9.187   0.173   8.284 -0.1949  0.1646 -0.0677
  119loPI   C6A 1900   9.241  -0.184   7.899  0.1072 -0.3323  0.1050
  119loPI   C1B 1901   9.917   0.187   9.925  0.0321  0.1383  0.2070
  119loPI   C2B 1902  10.024   0.149   9.446 -0.0397 -0.4532 -0.0903
  119loPI   C3B 1903   9.928   0.175   9.019 -0.0324  0.1018  0.0816
  119loPI   C4B 1904   9.993   0.284   8.584  0.2390  0.0544 -0.0702
  120loPI    C1 1905   6.656   4.856  10.971 -0.0195 -0.0698 -0.1485
  120loPI    C2 1906   6.672   5.252  11.030 -0.0788 -0.0725 -0.1130
  120loPI    C3 1907   6.374   5.038  11.189  0.0891 -0.1686  0.0786
  120loPI   PO4 1908   6.726   4.876  10.715 -0.1198 -0.0175  0.1152
  120loPI   GL1 1909   6.649   4.845  10.308 -0.1219  0.0872 -0.1941
  120loPI   GL2 1910   6.412   4.737  10.287 -0.2701 -0.2118  0.0630
  120loPI   C1A 1911   6.670   4.713   9.858  0.2094 -0.1218  0.1343
  120loPI   C2A 1912   6.467   4.783   9.432 -0.1064 -0.2328 -0.4330
  120loPI   C3A 1913   6.476   4.825   9.021 -0.0418  0.0040 -0.0433
  120loPI   C4A 1914   6.585   4.997   8.635 -0.0774  0.2744  0.1007
  120loPI   C5A 1915   6.509   5.235   8.281 -0.0726 -0.2729  0.2213
  120loPI   C6A 1916   6.285   5.317   7.952  0.2414 -0.2207  0.3552
  120loPI   C1B 1917   6.159   4.721   9.896 -0.0030  0.3031  0.1538
  120loPI   C2B 1918   5.892   4.815   9.497  0.1295 -0.2274 -0.1752
  120loPI   C3B 1919   5.992   4.837   9.129  0.3147  0.0373 -0.1006
  120loPI   C4B 1920   6.057   4.663   8.801 -0.2382 -0.0279  0.2494
  121loPI    C1 1921   6.028   7.307  11.034 -0.4019  0.0040  0.0509
  121loPI    C2 1922   6.333   7.379  11.282 -0.2143 -0.1356 -0.1362
  121loPI    C3 1923   5.983   7.562  11.339 -0.1167 -0.0231  0.1189
  121loPI   PO4 1924   6.102   7.275  10.809  0.0308  0.2921  0.1235
  121loPI   GL1 1925   6.097   7.184  10.349 -0.1240 -0.3078  0.2481
  121loPI   GL2 1926   6.229   7.524  10.426  0.0302  0.2931  0.4105
  121loPI   C1A 1927   6.004   7.042   9.898  0.1189 -0.1260  0.0701
  121loPI   C2A 1928   6.085   7.099   9.381  0.0493  0.1310  0.3339
  121loPI   C3A 1929   6.108   7.138   8.940 -0.0794 -0.2949 -0.1321
  121loPI   C4A 1930   6.202   7.082   8.510 -0.2117 -0.0274 -0.2045
  121loPI   C5A 1931   6.107   7.024   8.127 -0.0772 -0.0619  0.0684
  121loPI   C6A 1932   5.978   6.601   7.987  0.0787 -0.2106 -0.2517
  121loPI   C1B 1933   6.512   7.229  10.126 -0.2424 -0.1787 -0.1630
  121loPI   C2B 1934   6.457   7.137   9.680 -0.0871  0.0823  0.1751
  121loPI   C3B 1935   6.627   7.145   9.295 -0.0828  0.1767 -0.1634
  121loPI   C4B 1936   6.616   7.207   8.870  0.2078 -0.0353  0.0940
  122loPI    C1 1937   7.992   8.351  10.742  0.0031  0.2358  0.2468
  122loPI    C2 1938   7.709   8.251  11.006  0.1749 -0.3600  0.2192
  122loPI    C3 1939   7.626   8.256  10.615  0.0769 -0.0505  0.2415
  122loPI   PO4 1940   8.256   8.244  10.729 -0.4868  0.0141 -0.0198
  122loPI   GL1 1941   8.458   8.348  10.313  0.2573 -0.1325  0.1503
  122loPI   GL2 1942   8.560   8.120  10.172 -0.0462  0.2581 -0.0425
  122loPI   C1A 1943   8.379   8.573  10.002 -0.2689  0.1793 -0.2231
  122loPI   C2A 1944   8.416   8.551   9.624  0.3482  0.0043 -0.2231
  122loPI   C3A 1945   8.503   8.595   9.249 -0.2289 -0.2215  0.0822
  122loPI   C4A 1946   8.476   8.773   8.824  0.1170  0.2886  0.0700
  122loPI   C5A 1947   8.336   8.825   8.425  0.0276 -0.0322 -0.1175
  122loPI   C6A 1948   8.469   8.627   8.112 -0.1188 -0.2180 -0.0805
  122loPI   C1B 1949   8.694   8.134   9.723  0.0153 -0.2501 -0.0915
  122loPI   C2B 1950   8.783   8.159   9.316 -0.1257  0.3547  0.1356
  122loPI   C3B 1951   8.798   8.278   8.980  0.0567 -0.1260  0.3305
  122loPI   C4B 1952   8.722   8.377   8.516  0.0105 -0.0091  0.2427
  123loPI    C1 1953   2.926  11.008  10.635 -0.2523 -0.0174  0.2323
  123loPI    C2 1954   2.670  11.146  10.910 -0.1586  0.0123  0.3053
  123loPI    C3 1955   3.020  10.988  11.024 -0.1129  0.0383  0.2023
  123loPI   PO4 1956   2.868  11.209  10.471  0.0205  0.2989  0.0952
  123loPI   GL1 1957   2.901  11.406  10.054 -0.1323  0.1517 -0.0845
  123loPI   GL2 1958   2.883  11.708  10.270 -0.2431 -0.1758  0.1594
  123loPI   C1A 1959   3.045  11.333   9.620  0.3560  0.0327  0.0549
  123loPI   C2A 1960   2.962  11.293   9.201  0.2810 -0.1673 -0.0058
  123loPI   C3A 1961   3.075  11.123   8.807  0.1416 -0.3218 -0.1064
  123loPI   C4A 1962   2.998  10.805   8.594 -0.0321  0.0901 -0.1361
  123loPI   C5A 1963   3.146  10.571   8.272  0.2070 -0.1904  0.0772
  123loPI   C6A 1964   3.455  10.272   8.091 -0.1568  0.1503  0.1208
  123loPI   C1B 1965   2.915  11.829   9.813  0.0392 -0.0327  0.0328
  123loPI   C2B 1966   2.839  11.854   9.425 -0.1552  0.1206 -0.0725
  123loPI   C3B 1967   2.762  11.772   9.119 -0.2037 -0.0436 -0.0518
  123loPI   C4B 1968   2.782  11.606   8.757 -0.1473 -0.0322 -0.0091
  124loPI    C1 1969  10.641  17.005  11.325  0.1188  0.2960 -0.0567
  124loPI    C2 1970  10.795  16.716  11.554  0.0065  0.2669 -0.0170
  124loPI    C3 1971  10.817  17.097  11.672 -0.0337  0.2539  0.0329
  124loPI   PO4 1972  10.707  16.884  11.057  0.1965 -0.0014  0.3297
  124loPI   GL1 1973  10.451  16.758  10.695  0.3157  0.3523  0.1340
  124loPI   GL2 1974  10.791  16.623  10.566  0.0338  0.1166  0.1419
  124loPI   C1A 1975  10.302  16.764  10.288 -0.5436  0.2723  0.1187
  124loPI   C2A 1976  10.217  17.012   9.896 -0.4822  0.1420 -0.0048
  124loPI   C3A 1977  10.106  16.900   9.473  0.0746 -0.0093  0.1404
  124loPI   C4A 1978  10.144  16.716   9.124  0.0717 -0.0201 -0.2401
  124loPI   C5A 1979  10.207  16.448   8.850  0.2537 -0.0663  0.6868
  124loPI   C6A 1980  10.238  16.232   8.476 -0.0336  0.2457 -0.0125
  124loPI   C1B 1981  10.830  16.431  10.098  0.0131  0.2640  0.3526
  124loPI   C2B 1982  10.949  16.441   9.639  0.4383  0.0230  0.0931
  124loPI   C3B 1983  10.794  16.136   9.423 -0.0292  0.2236  0.2739
  124loPI   C4B 1984  10.406  16.028   9.314 -0.0025  0.0606  0.0852
  125loPI    C1 1985   3.794   3.094  10.873  0.0663  0.1097 -0.0581
  125loPI    C2 1986   3.909   2.983  11.240  0.0372  0.1643 -0.0324
  125loPI    C3 1987   3.637   3.273  11.194 -0.0212  0.1000 -0.0951
  125loPI   PO4 1988   3.881   2.912  10.747 -0.1405  0.1059 -0.1982
  125loPI   GL1 1989   3.805   2.786  10.362  0.0858 -0.0815 -0.2958
  125loPI   GL2 1990   3.522   2.708  10.368  0.2078  0.0937 -0.3518
  125loPI   C1A 1991   4.063   2.834   9.972  0.0649 -0.0159 -0.2666
  125loPI   C2A 1992   4.118   2.806   9.503 -0.1010 -0.1039 -0.1551
  125loPI   C3A 1993   4.385   2.988   9.095  0.0868 -0.2662  0.1892
  125loPI   C4A 1994   4.300   3.276   8.750  0.1665  0.1138  0.2099
  125loPI   C5A 1995   4.383   3.431   8.260  0.0081 -0.0956  0.2464
  125loPI   C6A 1996   4.237   3.215   7.875  0.1799  0.3504 -0.2558
  125loPI   C1B 1997   3.574   2.634   9.951  0.0009 -0.0985  0.5231
  125loPI   C2B 1998   3.442   2.428   9.631 -0.2155 -0.1075  0.2198
  125loPI   C3B 1999   3.336   2.230   9.317  0.0435  0.3540  0.1622
  125loPI   C4B 2000   3.133   2.027   8.998 -0.1484 -0.0427 -0.0584
  126loPI    C1 2001  14.396   2.953  10.663 -0.0609 -0.1876  0.0376
  126loPI    C2 2002  14.269   2.965  11.042 -0.0768 -0.2699  0.0352
  126loPI    C3 2003  14.582   2.737  10.943 -0.0571 -0.2292  0.0032
  126loPI   PO4 2004  14.249   3.220  10.585  0.3164  0.1214 -0.1982
  126loPI   GL1 2005  14.140   3.413  10.228 -0.0596  0.3048  0.2596
  126loPI   GL2 2006  13.877   3.538  10.168 -0.0858 -0.1342 -0.0901
  126loPI   C1A 2007  14.264   3.209   9.858  0.0835 -0.1692  0.2187
  126loPI   C2A 2008  14.395   3.210   9.384 -0.0032 -0.2917  0.0871
  126loPI   C3A 2009  14.373   3.256   8.931  0.2166 -0.0178  0.1588
  126loPI   C4A 2010  14.399   3.282   8.612 -0.2666 -0.1622  0.1995
  126loPI   C5A 2011  14.428   3.579   8.234  0.0684  0.0006  0.0478
  126loPI   C6A 2012  14.126   3.786   8.126  0.0112  0.1852  0.1672
  126loPI   C1B 2013  13.933   3.582   9.743 -0.1566  0.1253 -0.0402
  126loPI   C2B 2014  13.993   3.590   9.264 -0.1056 -0.1944 -0.0073
  126loPI   C3B 2015  14.034   3.587   8.892 -0.0737  0.1077 -0.2210
  126loPI   C4B 2016  13.954   3.580   8.554  0.1453  0.1871 -0.1706
  127loPI    C1 2017  16.213   4.342  10.751  0.0869 -0.0725 -0.1351
  127loPI    C2 2018  16.430   4.102  10.986  0.0027  0.2170  0.2493
  127loPI    C3 2019  16.550   4.477  10.918 -0.0372  0.1741 -0.0796
  127loPI   PO4 2020  16.192   4.222  10.527 -0.1850  0.1656  0.2139
  127loPI   GL1 2021  16.116   4.038  10.146  0.1698 -0.0801 -0.2891
  127loPI   GL2 2022  15.849   4.221  10.156  0.0495 -0.0763 -0.1405
  127loPI   C1A 2023  16.279   3.887   9.822 -0.1472  0.0379 -0.0569
  127loPI   C2A 2024  16.311   3.911   9.380  0.2331 -0.0021 -0.0756
  127loPI   C3A 2025  16.268   3.856   9.049 -0.0575 -0.2283 -0.5374
  127loPI   C4A 2026  16.290   3.842   8.557 -0.0697 -0.1572  0.0549
  127loPI   C5A 2027  16.457   3.556   8.246  0.1491 -0.2157  0.2131
  127loPI   C6A 2028  16.741   3.307   8.076  0.1905 -0.0512  0.3166
  127loPI   C1B 2029  15.948   4.270   9.681  0.0405  0.2295 -0.0895
  127loPI   C2B 2030  15.914   4.256   9.208  0.0583  0.0119  0.0409
  127loPI   C3B 2031  15.964   4.206   8.773 -0.1633 -0.3521  0.1023
  127loPI   C4B 2032  15.879   4.189   8.355 -0.1443  0.0566  0.1093
  128loPI    C1 2033   8.369  14.685  10.953 -0.2475  0.0854 -0.0523
  128loPI    C2 2034   8.340  15.082  10.993  0.1916  0.1045  0.1350
  128loPI    C3 2035   8.697  14.905  11.020  0.0167 -0.2920 -0.0797
  128loPI   PO4 2036   8.203  14.519  10.751  0.1290 -0.3032 -0.0721
  128loPI   GL1 2037   8.238  14.514  10.368  0.2322  0.2804 -0.0457
  128loPI   GL2 2038   8.374  14.840  10.062  0.1142 -0.2524  0.1707
  128loPI   C1A 2039   7.887  14.580  10.042  0.3104  0.2465 -0.1680
  128loPI   C2A 2040   7.846  14.773   9.710  0.0974  0.0105  0.1513
  128loPI   C3A 2041   8.028  14.698   9.322 -0.0184  0.0918  0.0704
  128loPI   C4A 2042   8.074  14.609   8.910 -0.0390  0.1497  0.0902
  128loPI   C5A 2043   8.031  14.404   8.510 -0.0578  0.0848 -0.0624
  128loPI   C6A 2044   7.882  14.059   8.270 -0.2500 -0.1251 -0.0203
  128loPI   C1B 2045   8.287  14.539   9.720 -0.1026 -0.2218  0.2670
  128loPI   C2B 2046   8.446  14.413   9.336 -0.0593  0.2054 -0.1846
  128loPI   C3B 2047   8.520  14.444   8.947  0.1030  0.0957 -0.1820
  128loPI   C4B 2048   8.462  14.622   8.556  0.2461  0.0249 -0.0828
  129loPI    C1 2049   5.454  11.746  10.791 -0.2159  0.2301 -0.0702
  129loPI    C2 2050   5.081  11.602  10.818 -0.0485 -0.2026  0.0080
  129loPI    C3 2051   5.335  11.557  11.124  0.1285 -0.0831 -0.1195
  129loPI   PO4 2052   5.572  11.595  10.616 -0.1659  0.1662  0.0597
  129loPI   GL1 2053   5.595  11.583  10.224  0.0730  0.3698  0.0888
  129loPI   GL2 2054   5.737  11.740  10.136  0.2044  0.1415  0.1728
  129loPI   C1A 2055   5.487  11.435   9.865 -0.2377  0.0055  0.1967
  129loPI   C2A 2056   5.467  11.407   9.442  0.1487 -0.1257  0.0348
  129loPI   C3A 2057   5.464  11.249   8.945  0.1878  0.0627  0.1609
  129loPI   C4A 2058   5.380  11.279   8.626 -0.0695  0.1248  0.1455
  129loPI   C5A 2059   5.239  11.559   8.298 -0.0604 -0.0187  0.0384
  129loPI   C6A 2060   5.275  11.638   7.852  0.0135 -0.0399  0.2211
  129loPI   C1B 2061   5.773  11.811   9.799 -0.2432 -0.0879  0.0814
  129loPI   C2B 2062   5.812  11.783   9.348  0.3876  0.0446  0.0252
  129loPI   C3B 2063   5.848  11.620   8.894 -0.0891 -0.0917  0.1107
  129loPI   C4B 2064   5.663  11.693   8.527  0.1669 -0.2361  0.1387
  130loPI    C1 2065  16.833  10.060  10.843  0.1417  0.2971  0.0250
  130loPI    C2 2066  16.612   9.885  11.127  0.1664  0.0612 -0.0984
  130loPI    C3 2067  16.663  10.282  11.129  0.1081  0.0691  0.1843
  130loPI   PO4 2068  16.772  10.011  10.634  0.0770 -0.0606  0.0674
  130loPI   GL1 2069  17.018  10.085  10.341 -0.2384 -0.1008  0.0264
  130loPI   GL2 2070  17.010   9.840  10.071  0.2058  0.0675  0.1378
  130loPI   C1A 2071  17.114  10.264   9.965 -0.1237 -0.0172  0.0707
  130loPI   C2A 2072  16.996  10.331   9.540 -0.1204 -0.3170 -0.1018
  130loPI   C3A 2073  17.246  10.626   9.370 -0.0309 -0.0639  0.2269
  130loPI   C4A 2074  17.438  10.558   8.980 -0.0873 -0.0821  0.4229
  130loPI   C5A 2075  17.653  10.458   8.605 -0.0356  0.1100 -0.0273
  130loPI   C6A 2076  18.110  10.312   8.501 -0.0934  0.0395 -0.0723
  130loPI   C1B 2077  16.884   9.852   9.645 -0.2514 -0.0410  0.1006
  130loPI   C2B 2078  16.833   9.894   9.196 -0.1427 -0.0158 -0.3339
  130loPI   C3B 2079  17.050  10.021   8.929 -0.0956  0.0455  0.0723
  130loPI   C4B 2080  17.145  10.337   8.596 -0.0243 -0.0015 -0.0618
  131loPI    C1 2081   7.403  11.618  11.113 -0.0255  0.0395  0.4268
  131loPI    C2 2082   7.400  12.010  11.190 -0.3275  0.0899  0.1747
  131loPI    C3 2083   7.129  11.853  10.941  0.2079 -0.1712 -0.2625
  131loPI   PO4 2084   7.659  11.553  11.026  0.1827  0.1422 -0.2489
  131loPI   GL1 2085   7.653  11.525  10.518 -0.0760 -0.1745 -0.3352
  131loPI   GL2 2086   7.864  11.769  10.294 -0.1170  0.1201 -0.0047
  131loPI   C1A 2087   7.721  11.256  10.272 -0.1046 -0.1486  0.2802
  131loPI   C2A 2088   7.861  11.271   9.910 -0.1082  0.1285  0.0592
  131loPI   C3A 2089   7.965  11.417   9.583 -0.0656  0.0939  0.0408
  131loPI   C4A 2090   7.903  11.388   9.195 -0.0364 -0.0948  0.1377
  131loPI   C5A 2091   7.876  11.332   8.735 -0.0851 -0.1120  0.0349
  131loPI   C6A 2092   7.980  11.211   8.338  0.1934  0.0519  0.0639
  131loPI   C1B 2093   8.242  11.458  10.149  0.1108 -0.1547  0.0648
  131loPI   C2B 2094   8.447  11.430   9.644 -0.0447  0.0014 -0.0359
  131loPI   C3B 2095   8.438  11.421   9.224  0.0010  0.0972 -0.4354
  131loPI   C4B 2096   8.501  11.380   8.825 -0.1718 -0.0536  0.0384
  132loPI    C1 2097  13.047  11.191  10.821  0.0159 -0.0754  0.0395
  132loPI    C2 2098  13.359  11.236  11.067 -0.0344  0.0223  0.0859
  132loPI    C3 2099  12.995  11.166  11.217 -0.0550  0.0245  0.0370
  132loPI   PO4 2100  13.034  11.307  10.663 -0.3135 -0.4211 -0.1364
  132loPI   GL1 2101  12.891  11.123  10.327  0.0183  0.1782  0.2174
  132loPI   GL2 2102  12.636  10.973  10.313  0.0526 -0.1316 -0.0102
  132loPI   C1A 2103  13.194  10.933  10.023  0.0714  0.3453  0.1156
  132loPI   C2A 2104  13.212  11.032   9.539 -0.2506 -0.1526 -0.1050
  132loPI   C3A 2105  13.182  10.957   9.119  0.0468 -0.1076  0.1682
  132loPI   C4A 2106  13.185  10.959   8.699 -0.2004  0.1958  0.1983
  132loPI   C5A 2107  13.182  10.876   8.335 -0.0584  0.1279 -0.2006
  132loPI   C6A 2108  13.390  10.653   7.990 -0.1293 -0.0308  0.0568
  132loPI   C1B 2109  12.745  10.941   9.814  0.0662 -0.3968 -0.0212
  132loPI   C2B 2110  12.727  10.904   9.314  0.0024  0.0756 -0.4191
  132loPI   C3B 2111  12.668  10.866   8.893 -0.0694  0.2369  0.0317
  132loPI   C4B 2112  12.720  11.052   8.510  0.1261 -0.2883  0.0823
  133loPI    C1 2113   6.876   6.193  11.154 -0.1306 -0.1496  0.2852
  133loPI    C2 2114   7.210   6.082  11.345  0.1813  0.1471 -0.0721
  133loPI    C3 2115   6.958   6.340  11.517  0.1625 -0.0312  0.1740
  133loPI   PO4 2116   6.948   6.197  10.793 -0.1479  0.1211 -0.2051
  133loPI   GL1 2117   6.788   6.063  10.470 -0.3128  0.0096  0.1671
  133loPI   GL2 2118   6.721   6.350  10.280 -0.2561 -0.0525  0.0943
  133loPI   C1A 2119   6.883   5.718  10.114  0.1734  0.1989  0.0029
  133loPI   C2A 2120   6.908   5.805   9.700  0.1495  0.1426  0.1290
  133loPI   C3A 2121   6.989   5.893   9.231  0.0187  0.2037 -0.1994
  133loPI   C4A 2122   6.949   5.932   8.769 -0.0541  0.1915 -0.1862
  133loPI   C5A 2123   7.051   5.771   8.354 -0.1822  0.2174 -0.1769
  133loPI   C6A 2124   7.010   5.393   8.019  0.3276  0.0082 -0.0424
  133loPI   C1B 2125   6.592   6.318   9.816  0.0640 -0.1344 -0.2017
  133loPI   C2B 2126   6.602   6.349   9.341  0.1417 -0.2243 -0.2451
  133loPI   C3B 2127   6.681   6.284   8.975 -0.1888  0.0083  0.1273
  133loPI   C4B 2128   6.570   6.162   8.493 -0.2170  0.1090  0.0678
  134loPI    C1 2129   6.666  12.826  11.136 -0.0043 -0.1976 -0.2748
  134loPI    C2 2130   7.023  12.686  11.247 -0.0713 -0.0203  0.1891
  134loPI    C3 2131   6.728  12.431  11.157  0.0862 -0.1678  0.0819
  134loPI   PO4 2132   6.755  13.042  10.989 -0.1917  0.2378 -0.2444
  134loPI   GL1 2133   6.585  13.099  10.518 -0.0893 -0.0256 -0.0658
  134loPI   GL2 2134   6.687  13.290  10.273 -0.0285  0.0518 -0.1862
  134loPI   C1A 2135   6.707  12.789  10.192  0.1478  0.1406 -0.0513
  134loPI   C2A 2136   6.758  12.689   9.814 -0.2316  0.0417 -0.1717
  134loPI   C3A 2137   6.539  12.442   9.459 -0.1335 -0.0046 -0.2377
  134loPI   C4A 2138   6.535  12.448   8.927 -0.0841 -0.0224 -0.0219
  134loPI   C5A 2139   6.778  12.694   8.572  0.2316  0.1320  0.4161
  134loPI   C6A 2140   7.102  12.504   8.308 -0.1737 -0.0251 -0.3125
  134loPI   C1B 2141   6.768  13.192   9.819 -0.1217 -0.0336  0.6318
  134loPI   C2B 2142   6.753  13.016   9.431 -0.0537  0.2009  0.2641
  134loPI   C3B 2143   6.411  13.132   9.048  0.2663  0.1427 -0.0020
  134loPI   C4B 2144   6.356  13.005   8.626  0.2926  0.0351 -0.1567
  135loPI    C1 2145  10.205  16.036  11.043  0.2297 -0.2323 -0.2764
  135loPI    C2 2146  10.334  15.804  11.343  0.1800  0.1298  0.0333
  135loPI    C3 2147  10.003  16.024  11.388  0.1441  0.1521 -0.3085
  135loPI   PO4 2148  10.320  15.887  10.806  0.1228 -0.0880 -0.2032
  135loPI   GL1 2149  10.561  15.771  10.478  0.0450 -0.0513  0.0635
  135loPI   GL2 2150  10.699  15.512  10.512  0.3141 -0.1146 -0.1010
  135loPI   C1A 2151  10.991  15.982  10.280  0.1041  0.2444 -0.0324
  135loPI   C2A 2152  11.200  16.064   9.956  0.2824  0.2085 -0.0201
  135loPI   C3A 2153  11.298  16.080   9.604 -0.2805 -0.0150  0.2956
  135loPI   C4A 2154  11.217  16.160   9.142  0.1406 -0.2174  0.0527
  135loPI   C5A 2155  11.207  16.324   8.750  0.2285  0.1121  0.0610
  135loPI   C6A 2156  11.529  16.457   8.331  0.0060  0.0814  0.0323
  135loPI   C1B 2157  10.766  15.626  10.031 -0.1899  0.1605  0.2310
  135loPI   C2B 2158  10.703  15.585   9.636 -0.0725  0.1115  0.0844
  135loPI   C3B 2159  10.767  15.705   9.094 -0.0863  0.1259 -0.1973
  135loPI   C4B 2160  11.039  15.800   8.784 -0.1116 -0.1693 -0.0381
  136loPI    C1 2161  14.621   0.577  11.193  0.1283 -0.0916 -0.5028
  136loPI    C2 2162  14.235   0.603  11.092  0.0206  0.0371 -0.0821
  136loPI    C3 2163  14.411   0.905  11.286  0.2524 -0.1443 -0.0051
  136loPI   PO4 2164  14.727   0.535  11.041 -0.1804 -0.1981 -0.0093
  136loPI   GL1 2165  14.832   0.440  10.671  0.3728 -0.1323  0.0044
  136loPI   GL2 2166  14.693   0.105  10.607 -0.0731  0.0326  0.3747
  136loPI   C1A 2167  14.858   0.354  10.231  0.5237  0.0364  0.0041
  136loPI   C2A 2168  14.985   0.206   9.824 -0.0279 -0.0516  0.0646
  136loPI   C3A 2169  15.019   0.148   9.375  0.1040  0.1016  0.1981
  136loPI   C4A 2170  15.112   0.081   8.975 -0.1162 -0.2976 -0.0399
  136loPI   C5A 2171  14.878  -0.036   8.589  0.1008  0.0758  0.0246
  136loPI   C6A 2172  14.829  -0.272   8.154  0.0093  0.2594 -0.3674
  136loPI   C1B 2173  14.183   0.020  10.415 -0.0981  0.2417  0.1845
  136loPI   C2B 2174  14.035  -0.150  10.051  0.1554  0.3222 -0.1340
  136loPI   C3B 2175  14.075  -0.097   9.667 -0.3039 -0.0910 -0.1257
  136loPI   C4B 2176  14.140  -0.230   9.252  0.1392 -0.3776 -0.0791
  137loPI    C1 2177   0.220  13.003  11.192  0.0378 -0.1865 -0.2926
  137loPI    C2 2178  -0.150  13.139  11.122  0.0687  0.1412  0.1446
  137loPI    C3 2179  -0.092  12.842  11.384  0.1179  0.1136  0.1025
  137loPI   PO4 2180   0.297  12.997  10.896 -0.0247  0.0753  0.0091
  137loPI   GL1 2181   0.492  13.214  10.673 -0.0185 -0.0142 -0.1186
  137loPI   GL2 2182   0.414  13.593  10.424 -0.0884  0.1411 -0.2225
  137loPI   C1A 2183   0.391  13.101  10.205 -0.0497  0.4018  0.1352
  137loPI   C2A 2184   0.289  13.397   9.959  0.0478 -0.0583  0.0551
  137loPI   C3A 2185   0.189  13.624   9.637 -0.1895  0.1606  0.1261
  137loPI   C4A 2186   0.202  13.739   9.244  0.2420 -0.1071  0.1607
  137loPI   C5A 2187   0.002  13.894   8.805 -0.2713 -0.0870 -0.5011
  137loPI   C6A 2188  -0.091  13.714   8.431  0.0402 -0.0662 -0.2314
  137loPI   C1B 2189   0.503  13.851  10.014 -0.1722  0.0942 -0.0744
  137loPI   C2B 2190   0.538  14.025   9.580  0.1081 -0.2959 -0.0702
  137loPI   C3B 2191   0.500  14.215   9.126  0.1177  0.1100 -0.0291
  137loPI   C4B 2192   0.564  14.279   8.684 -0.2263  0.0288  0.1048
  138loPI    C1 2193  14.803  17.439  10.846  0.0335 -0.3041  0.3223
  138loPI    C2 2194  14.431  17.403  10.988 -0.0273 -0.0590  0.2304
  138loPI    C3 2195  14.729  17.506  11.233 -0.0860  0.1051  0.2339
  138loPI   PO4 2196  14.784  17.614  10.684  0.0217 -0.1910  0.0815
  138loPI   GL1 2197  14.587  17.699  10.361  0.0180  0.0537 -0.1634
  138loPI   GL2 2198  14.294  17.541  10.396  0.0322 -0.1123 -0.2017
  138loPI   C1A 2199  14.544  18.008  10.022  0.2721 -0.2450  0.1035
  138loPI   C2A 2200  14.545  18.040   9.519  0.3582  0.2125  0.2650
  138loPI   C3A 2201  14.616  17.858   9.113  0.0584  0.2853 -0.1438
  138loPI   C4A 2202  14.543  17.561   8.728  0.0336  0.1019 -0.1190
  138loPI   C5A 2203  14.419  17.512   8.290 -0.0944 -0.2407  0.1925
  138loPI   C6A 2204  14.060  17.627   8.200  0.0190  0.0056 -0.3069
  138loPI   C1B 2205  14.371  17.535   9.934  0.0649 -0.4737  0.0230
  138loPI   C2B 2206  14.511  17.570   9.582 -0.0056 -0.2343 -0.1800
  138loPI   C3B 2207  14.363  17.354   9.244 -0.0900  0.2215 -0.2321
  138loPI   C4B 2208  14.229  17.045   8.924 -0.0390 -0.0891  0.0501
  139loPI    C1 2209   1.374   9.057  10.858 -0.0101  0.0047  0.1994
  139loPI    C2 2210   1.604   9.143  11.174  0.1563 -0.1196  0.1132
  139loPI    C3 2211   1.624   8.781  11.004  0.0170 -0.0763  0.0027
  139loPI   PO4 2212   1.490   9.312  10.705 -0.0076 -0.0964  0.0424
  139loPI   GL1 2213   1.760   9.178  10.287 -0.0814 -0.0515 -0.0079
  139loPI   GL2 2214   1.508   9.411  10.176  0.3845 -0.0075 -0.1698
  139loPI   C1A 2215   2.088   9.286   9.929  0.0760 -0.2152  0.2189
  139loPI   C2A 2216   2.086   9.186   9.466 -0.0518 -0.0189 -0.2706
  139loPI   C3A 2217   2.199   9.189   9.006 -0.2020 -0.0758  0.0596
  139loPI   C4A 2218   2.147   9.163   8.585 -0.1048  0.0208 -0.0438
  139loPI   C5A 2219   2.150   9.504   8.344  0.0695  0.0607  0.1050
  139loPI   C6A 2220   2.194   9.567   7.983  0.1000  0.0334  0.5665
  139loPI   C1B 2221   1.650   9.534   9.871  0.1630  0.0141 -0.0146
  139loPI   C2B 2222   1.701   9.504   9.481 -0.2610  0.0806  0.3146
  139loPI   C3B 2223   1.799   9.540   9.137 -0.0641 -0.1895 -0.2523
  139loPI   C4B 2224   1.780   9.579   8.698 -0.1443 -0.0547 -0.3361
  140loPI    C1 2225  17.825   3.847  10.879  0.1566  0.0605  0.0083
  140loPI    C2 2226  17.600   3.524  10.954  0.1395  0.0343 -0.1523
  140loPI    C3 2227  17.780   3.717  11.255 -0.0712  0.0364 -0.0258
  140loPI   PO4 2228  17.865   3.753  10.616  0.0335 -0.1469 -0.2445
  140loPI   GL1 2229  18.206   3.736  10.319  0.0220 -0.0698  0.0191
  140loPI   GL2 2230  18.162   3.394  10.435 -0.1367  0.0945  0.2685
  140loPI   C1A 2231  18.460   3.739   9.925 -0.0361 -0.2925  0.4744
  140loPI   C2A 2232  18.615   3.775   9.508  0.0182 -0.0471 -0.0765
  140loPI   C3A 2233  18.777   3.658   9.099 -0.0486 -0.2345 -0.0237
  140loPI   C4A 2234  18.699   3.756   8.687  0.0928  0.0164  0.2763
  140loPI   C5A 2235  18.839   3.909   8.278  0.1566 -0.1888  0.0184
  140loPI   C6A 2236  18.960   4.275   8.107 -0.0972  0.0468  0.1687
  140loPI   C1B 2237  18.063   3.385   9.988 -0.0189 -0.1714  0.2988
  140loPI   C2B 2238  18.165   3.428   9.520  0.2088 -0.0603 -0.1700
  140loPI   C3B 2239  18.294   3.352   9.105 -0.0811 -0.3134 -0.3237
  140loPI   C4B 2240  18.453   3.324   8.738  0.1162 -0.1996 -0.1195
  141loPI    C1 2241   7.910   7.483  10.577  0.1243  0.1043 -0.0899
  141loPI    C2 2242   7.904   7.815  10.800 -0.1629  0.0858 -0.0663
  141loPI    C3 2243   7.760   7.822  10.427 -0.0955  0.0064 -0.0943
  141loPI   PO4 2244   8.098   7.403  10.590 -0.1249  0.3459  0.0410
  141loPI   GL1 2245   8.316   7.580  10.276  0.3861 -0.2313 -0.1183
  141loPI   GL2 2246   8.333   7.803  10.458  0.0225  0.0338  0.2243
  141loPI   C1A 2247   8.324   7.681   9.732 -0.2240  0.0030 -0.2738
  141loPI   C2A 2248   8.494   7.677   9.316  0.1111 -0.0443 -0.2710
  141loPI   C3A 2249   8.578   7.813   8.918 -0.1498 -0.0159 -0.0166
  141loPI   C4A 2250   8.445   7.956   8.532 -0.2219  0.0179 -0.2782
  141loPI   C5A 2251   8.308   8.201   8.217  0.1731 -0.0856  0.1642
  141loPI   C6A 2252   8.085   8.271   7.891  0.1743  0.1643  0.0215
  141loPI   C1B 2253   8.065   8.036  10.186 -0.0909  0.0545  0.0521
  141loPI   C2B 2254   8.192   8.148   9.805 -0.1947 -0.0188 -0.1420
  141loPI   C3B 2255   8.189   8.130   9.327 -0.0255 -0.0894 -0.1955
  141loPI   C4B 2256   8.299   8.283   8.888  0.1779  0.1474 -0.0127
  142loPI    C1 2257   2.050   6.827  10.652 -0.0169  0.1969  0.0106
  142loPI    C2 2258   1.723   7.057  10.630 -0.3203 -0.2384 -0.1824
  142loPI    C3 2259   1.741   6.759  10.897  0.1622  0.1352  0.2230
  142loPI   PO4 2260   2.097   6.836  10.390 -0.2284  0.0192 -0.0737
  142loPI   GL1 2261   1.897   6.707   9.950  0.1593  0.2225  0.1903
  142loPI   GL2 2262   2.015   7.001   9.897  0.2816  0.1883  0.0690
  142loPI   C1A 2263   1.652   6.899   9.561 -0.0105  0.0225  0.2042
  142loPI   C2A 2264   1.471   6.805   9.162  0.3204 -0.1371 -0.0316
  142loPI   C3A 2265   1.605   6.468   8.822 -0.0294  0.0460  0.1967
  142loPI   C4A 2266   1.993   6.456   8.518 -0.1556 -0.1857 -0.1327
  142loPI   C5A 2267   2.152   6.333   8.176 -0.1127  0.3589 -0.1500
  142loPI   C6A 2268   2.322   6.425   7.740  0.1776  0.1771 -0.1294
  142loPI   C1B 2269   2.123   6.940   9.469  0.2414 -0.0918  0.1987
  142loPI   C2B 2270   1.976   7.154   9.179 -0.0906 -0.0777 -0.0921
  142loPI   C3B 2271   1.980   7.343   8.862  0.3307 -0.0209 -0.1198
  142loPI   C4B 2272   2.245   7.484   8.493  0.0748  0.1986 -0.3010
  143loPI    C1 2273   0.495   1.402  11.305  0.2783 -0.0255  0.3042
  143loPI    C2 2274   0.248   1.119  11.443 -0.0053 -0.1101 -0.3401
  143loPI    C3 2275   0.639   1.043  11.408  0.0040 -0.2324 -0.0140
  143loPI   PO4 2276   0.348   1.531  11.137  0.2460 -0.3190 -0.1086
  143loPI   GL1 2277   0.150   1.599  10.786 -0.2805 -0.0129 -0.0686
  143loPI   GL2 2278  -0.129   1.649  10.774 -0.0575  0.1805  0.1644
  143loPI   C1A 2279   0.257   1.597  10.307  0.0583 -0.2745 -0.1592
  143loPI   C2A 2280   0.292   1.571   9.919  0.0655  0.1781 -0.0008
  143loPI   C3A 2281   0.373   1.583   9.519 -0.1591  0.0993 -0.2106
  143loPI   C4A 2282   0.423   1.550   9.107  0.3070 -0.0328 -0.1060
  143loPI   C5A 2283   0.333   1.482   8.647 -0.0884 -0.3841 -0.0717
  143loPI   C6A 2284   0.198   1.128   8.410 -0.0481 -0.2223  0.1163
  143loPI   C1B 2285  -0.215   1.669  10.331 -0.0192 -0.0789  0.0238
  143loPI   C2B 2286  -0.225   1.656   9.884  0.0548  0.0697 -0.0184
  143loPI   C3B 2287  -0.121   1.627   9.436 -0.3113 -0.0566 -0.3890
  143loPI   C4B 2288  -0.055   1.593   9.038 -0.0422 -0.0871  0.2546
  144loPI    C1 2289  12.439  16.484  10.775 -0.2492  0.0841 -0.0342
  144loPI    C2 2290  12.560  16.294  11.106 -0.0240  0.1013 -0.1050
  144loPI    C3 2291  12.559  16.694  11.094 -0.0205  0.1004 -0.1289
  144loPI   PO4 2292  12.579  16.278  10.604  0.0005 -0.0089 -0.0773
  144loPI   GL1 2293  12.337  16.095  10.387 -0.2695 -0.0989  0.2728
  144loPI   GL2 2294  12.068  15.942  10.340  0.4524 -0.0618  0.4635
  144loPI   C1A 2295  12.602  16.159   9.962 -0.0144  0.0723  0.0953
  144loPI   C2A 2296  12.663  16.037   9.511 -0.0359 -0.0591 -0.4956
  144loPI   C3A 2297  12.702  16.207   9.110  0.1883  0.0384  0.1141
  144loPI   C4A 2298  12.718  15.965   8.751 -0.1719  0.2580  0.1425
  144loPI   C5A 2299  12.873  15.643   8.455  0.2757  0.0199 -0.0368
  144loPI   C6A 2300  13.152  15.310   8.227 -0.2185 -0.0537  0.1925
  144loPI   C1B 2301  12.163  15.954   9.795 -0.0892 -0.0187 -0.0930
  144loPI   C2B 2302  12.256  15.799   9.341 -0.0266  0.0257  0.0346
  144loPI   C3B 2303  12.246  15.760   8.937 -0.0741 -0.0134 -0.1030
  144loPI   C4B 2304  11.892  15.618   8.665  0.0502 -0.3756 -0.0560
  145loPI    C1 2305   6.197  11.129  10.800 -0.0115  0.1770  0.0782
  145loPI    C2 2306   6.346  11.488  10.895 -0.0381  0.1901  0.0704
  145loPI    C3 2307   6.277  11.218  11.182 -0.2864  0.2936  0.1113
  145loPI   PO4 2308   6.298  11.133  10.556 -0.1026 -0.1996  0.2135
  145loPI   GL1 2309   6.235  11.222  10.068 -0.1394 -0.0435  0.2577
  145loPI   GL2 2310   5.896  11.263  10.099  0.3195  0.2752 -0.0665
  145loPI   C1A 2311   6.392  11.164   9.580  0.0047  0.1046 -0.2772
  145loPI   C2A 2312   6.523  11.034   9.207 -0.0355 -0.0700  0.4275
  145loPI   C3A 2313   6.557  10.964   8.813 -0.4577 -0.2010 -0.2766
  145loPI   C4A 2314   6.467  10.724   8.367  0.0713 -0.0009 -0.2142
  145loPI   C5A 2315   6.591  10.825   8.068  0.0474 -0.1177  0.1610
  145loPI   C6A 2316   6.858  10.671   7.795  0.0051 -0.0690  0.0026
  145loPI   C1B 2317   5.925  11.294   9.651  0.1309  0.4045  0.0397
  145loPI   C2B 2318   5.871  11.243   9.217 -0.1453 -0.6497 -0.0541
  145loPI   C3B 2319   5.964  11.155   8.856 -0.0818  0.2091 -0.1715
  145loPI   C4B 2320   6.154  11.030   8.566  0.0864  0.2446 -0.2130
  146loPI    C1 2321   7.514  11.139  10.834  0.0948  0.1200 -0.1065
  146loPI    C2 2322   7.533  10.758  10.713 -0.0747  0.0649  0.0363
  146loPI    C3 2323   7.859  10.989  10.698  0.0553 -0.1156  0.0467
  146loPI   PO4 2324   7.252  11.160  10.748  0.3278 -0.0029 -0.0065
  146loPI   GL1 2325   7.188  11.121  10.338  0.1423  0.1805 -0.3985
  146loPI   GL2 2326   7.208  11.275  10.029  0.1431 -0.1757  0.1105
  146loPI   C1A 2327   7.345  10.786  10.162  0.1760 -0.4091 -0.0689
  146loPI   C2A 2328   7.646  10.850   9.784  0.0388  0.0057  0.1115
  146loPI   C3A 2329   7.637  10.922   9.327  0.2420 -0.3223  0.2418
  146loPI   C4A 2330   7.650  10.857   8.937 -0.3427 -0.2394 -0.2129
  146loPI   C5A 2331   7.602  10.828   8.467 -0.1918  0.1011 -0.1356
  146loPI   C6A 2332   7.556  10.475   8.153  0.1009 -0.0240  0.0090
  146loPI   C1B 2333   7.257  11.180   9.612  0.0481  0.1838  0.0853
  146loPI   C2B 2334   7.372  11.312   9.191 -0.1402  0.0127  0.1272
  146loPI   C3B 2335   7.416  11.222   8.694  0.0278  0.1383 -0.0145
  146loPI   C4B 2336   7.494  11.389   8.275 -0.0776 -0.2321 -0.1432
  147loPI    C1 2337   4.126   4.591  10.814  0.2128  0.0575  0.0807
  147loPI    C2 2338   4.101   4.623  11.212 -0.0310 -0.1340  0.0827
  147loPI    C3 2339   3.779   4.517  10.999  0.1238 -0.1304 -0.1563
  147loPI   PO4 2340   4.350   4.772  10.730 -0.1029 -0.3465 -0.0392
  147loPI   GL1 2341   4.382   4.904  10.323  0.1796  0.1678 -0.0991
  147loPI   GL2 2342   4.729   4.727  10.373 -0.1298 -0.0112  0.0086
  147loPI   C1A 2343   4.163   5.146   9.991  0.0925 -0.1799 -0.3545
  147loPI   C2A 2344   4.105   5.149   9.560  0.2676  0.1283  0.0860
  147loPI   C3A 2345   4.069   5.007   9.196  0.4310 -0.1282  0.0679
  147loPI   C4A 2346   4.170   5.123   8.763  0.1076  0.1481  0.2346
  147loPI   C5A 2347   4.127   4.774   8.450 -0.0230 -0.1673 -0.1949
  147loPI   C6A 2348   3.991   4.679   8.023 -0.3402  0.0071  0.0731
  147loPI   C1B 2349   4.604   4.788   9.868 -0.1668  0.1051 -0.2964
  147loPI   C2B 2350   4.612   4.757   9.484 -0.2854  0.0279  0.1769
  147loPI   C3B 2351   4.580   4.750   8.981 -0.2859 -0.1257 -0.0856
  147loPI   C4B 2352   4.632   4.692   8.573 -0.1134 -0.2620  0.0722
  148loPI    C1 2353   3.872  17.864  11.210 -0.0548 -0.2251 -0.0362
  148loPI    C2 2354   3.728  17.779  11.574  0.0589 -0.0666  0.0467
  148loPI    C3 2355   4.070  17.612  11.450  0.0565 -0.0665  0.0400
  148loPI   PO4 2356   3.690  17.899  11.024 -0.0504 -0.2473  0.1141
  148loPI   GL1 2357   3.869  17.924  10.561  0.1329 -0.0849  0.1725
  148loPI   GL2 2358   3.864  17.629  10.557 -0.2406  0.3838 -0.2220
  148loPI   C1A 2359   3.767  18.041  10.228  0.0257 -0.0680  0.1393
  148loPI   C2A 2360   3.889  18.035   9.816 -0.0877  0.0320 -0.1619
  148loPI   C3A 2361   3.974  18.059   9.439 -0.1036  0.3610 -0.1825
  148loPI   C4A 2362   3.928  18.018   8.944 -0.1694 -0.0655  0.4733
  148loPI   C5A 2363   4.168  18.313   8.615  0.2433 -0.2108  0.0700
  148loPI   C6A 2364   4.518  18.532   8.471 -0.0161 -0.1231 -0.1926
  148loPI   C1B 2365   4.038  17.625  10.141 -0.1501 -0.1357  0.1383
  148loPI   C2B 2366   3.991  17.575   9.636 -0.0401 -0.0625 -0.0259
  148loPI   C3B 2367   4.095  17.612   9.231  0.1946  0.2646 -0.1687
  148loPI   C4B 2368   4.049  17.456   8.805  0.0187  0.0271 -0.0873
  149loPI    C1 2369  10.850   7.573  10.805  0.0103 -0.1353  0.0810
  149loPI    C2 2370  10.939   7.639  10.421 -0.0853 -0.2385  0.0405
  149loPI    C3 2371  11.188   7.764  10.708 -0.1219  0.0385 -0.0447
  149loPI   PO4 2372  10.669   7.351  10.781 -0.1742 -0.0511  0.0621
  149loPI   GL1 2373  10.637   7.136  10.413 -0.1065 -0.1680  0.4470
  149loPI   GL2 2374  10.479   6.968  10.199  0.0638  0.2312 -0.0194
  149loPI   C1A 2375  10.781   7.352  10.013  0.0135 -0.2018 -0.0831
  149loPI   C2A 2376  10.785   7.368   9.588  0.0769 -0.3351  0.3658
  149loPI   C3A 2377  10.826   7.445   9.116 -0.0892  0.1878 -0.2793
  149loPI   C4A 2378  10.764   7.480   8.651 -0.2476 -0.3022 -0.3353
  149loPI   C5A 2379  10.582   7.511   8.210 -0.4269  0.0244 -0.0032
  149loPI   C6A 2380  10.303   7.790   8.100  0.0312 -0.0474  0.1968
  149loPI   C1B 2381  10.602   6.882   9.778  0.1148  0.2478 -0.1230
  149loPI   C2B 2382  10.510   6.986   9.389  0.2117  0.0748 -0.2328
  149loPI   C3B 2383  10.223   6.993   9.024  0.0253  0.0786  0.1059
  149loPI   C4B 2384   9.941   6.906   8.730 -0.0321 -0.0591  0.3776
  150loPI    C1 2385   9.300  15.815  10.928 -0.0215  0.0354  0.1444
  150loPI    C2 2386   9.483  16.009  11.226  0.0944 -0.2567  0.2665
  150loPI    C3 2387   9.217  15.722  11.308 -0.1054 -0.1261  0.0874
  150loPI   PO4 2388   9.183  16.065  10.797  0.0125  0.1726 -0.1473
  150loPI   GL1 2389   8.955  16.043  10.386  0.0909 -0.0434 -0.6008
  150loPI   GL2 2390   8.941  15.727  10.385 -0.0233 -0.0867 -0.1945
  150loPI   C1A 2391   8.623  15.929  10.063 -0.0596  0.0363  0.1116
  150loPI   C2A 2392   8.771  15.926   9.524  0.2470  0.0464 -0.3071
  150loPI   C3A 2393   8.980  16.043   9.067 -0.0834 -0.0755  0.0910
  150loPI   C4A 2394   8.968  16.037   8.592 -0.1334  0.1728 -0.2174
  150loPI   C5A 2395   9.010  15.837   8.209 -0.2242  0.3128  0.0276
  150loPI   C6A 2396   8.791  16.015   7.833 -0.2635  0.3093 -0.2763
  150loPI   C1B 2397   9.090  15.877   9.953 -0.2095  0.1422  0.1025
  150loPI   C2B 2398   9.315  16.035   9.615  0.0517 -0.1610 -0.0488
  150loPI   C3B 2399   9.417  16.182   9.220 -0.1529  0.1159 -0.1025
  150loPI   C4B 2400   9.612  16.098   8.863 -0.1203  0.2549 -0.0325
  151loPI    C1 2401  16.505  15.769  10.881 -0.1015 -0.0870 -0.0651
  151loPI    C2 2402  16.578  15.462  11.127  0.2975  0.1747  0.1554
  151loPI    C3 2403  16.376  15.781  11.260 -0.0407  0.0500 -0.0480
  151loPI   PO4 2404  16.748  15.792  10.749 -0.0554 -0.3102  0.0597
  151loPI   GL1 2405  16.733  15.662  10.309 -0.1710  0.3213 -0.1922
  151loPI   GL2 2406  16.975  15.579  10.100 -0.2627 -0.1979  0.1207
  151loPI   C1A 2407  16.492  15.848  10.019  0.2134  0.1216 -0.0064
  151loPI   C2A 2408  16.454  15.817   9.549  0.0022  0.5373 -0.0249
  151loPI   C3A 2409  16.560  15.760   9.043 -0.0793  0.0592  0.4422
  151loPI   C4A 2410  16.695  15.870   8.619 -0.1375  0.1427  0.0535
  151loPI   C5A 2411  16.783  16.179   8.257  0.3146 -0.0981 -0.1548
  151loPI   C6A 2412  16.823  16.568   8.098 -0.1651 -0.0273 -0.1289
  151loPI   C1B 2413  16.924  15.963   9.719 -0.1908 -0.0947  0.0782
  151loPI   C2B 2414  16.859  16.155   9.423 -0.2938  0.0419  0.2025
  151loPI   C3B 2415  16.861  16.184   9.060 -0.0828  0.2283  0.1515
  151loPI   C4B 2416  17.051  16.212   8.653  0.0070 -0.0189  0.0521
  152loPI    C1 2417  16.081  15.505  10.977  0.1603 -0.1663  0.0642
  152loPI    C2 2418  15.698  15.566  11.073  0.1308 -0.1319 -0.0733
  152loPI    C3 2419  15.958  15.450  11.354  0.1088  0.2581  0.1142
  152loPI   PO4 2420  16.020  15.386  10.717 -0.3636 -0.0060 -0.1436
  152loPI   GL1 2421  15.853  15.211  10.506  0.1786  0.0432 -0.1973
  152loPI   GL2 2422  15.545  15.181  10.686 -0.1147  0.0759  0.0384
  152loPI   C1A 2423  15.880  15.042  10.069  0.2197  0.0854 -0.1083
  152loPI   C2A 2424  15.826  14.932   9.585 -0.2048 -0.2288  0.3190
  152loPI   C3A 2425  15.943  14.786   9.205  0.1589 -0.3283  0.1789
  152loPI   C4A 2426  15.917  14.736   8.807 -0.1788 -0.1484  0.0807
  152loPI   C5A 2427  16.087  14.649   8.386  0.0699  0.1906 -0.3374
  152loPI   C6A 2428  16.356  14.578   8.063 -0.2384 -0.0137  0.0850
  152loPI   C1B 2429  15.417  15.035  10.296  0.2977  0.1822  0.0396
  152loPI   C2B 2430  15.407  15.092   9.903  0.1001 -0.1027  0.0231
  152loPI   C3B 2431  15.382  14.996   9.479 -0.0761 -0.1271  0.1341
  152loPI   C4B 2432  15.431  14.876   9.056  0.1056 -0.1709 -0.1522
  153loPI    C1 2433  15.382  16.192  11.077 -0.0905  0.0669 -0.1176
  153loPI    C2 2434  15.153  16.442  10.864 -0.3374 -0.0597 -0.0060
  153loPI    C3 2435  15.387  16.584  11.156 -0.3511  0.0588 -0.0520
  153loPI   PO4 2436  15.550  16.053  10.883 -0.1201 -0.1390  0.0529
  153loPI   GL1 2437  15.782  16.003  10.515  0.2387  0.0527  0.0389
  153loPI   GL2 2438  15.640  15.719  10.497  0.5966  0.0261  0.0368
  153loPI   C1A 2439  15.964  15.913  10.154  0.0560 -0.1244 -0.0601
  153loPI   C2A 2440  15.994  15.844   9.738 -0.0698 -0.0094 -0.0268
  153loPI   C3A 2441  16.060  15.812   9.235  0.0817  0.1982  0.1458
  153loPI   C4A 2442  16.132  15.896   8.785  0.3150 -0.1758 -0.0139
  153loPI   C5A 2443  16.201  15.959   8.352  0.1014  0.0782  0.0142
  153loPI   C6A 2444  16.327  16.208   7.971 -0.3047 -0.0647 -0.0302
  153loPI   C1B 2445  15.666  15.487  10.134 -0.0178 -0.0131  0.1432
  153loPI   C2B 2446  15.696  15.466   9.687 -0.1280 -0.1561 -0.1997
  153loPI   C3B 2447  15.718  15.315   9.271  0.0016  0.1942  0.0932
  153loPI   C4B 2448  15.703  15.182   8.825 -0.1806 -0.3003 -0.2842
  154loPI    C1 2449  15.622  12.749  11.140  0.3619  0.0290  0.2185
  154loPI    C2 2450  15.423  13.074  11.262 -0.0001 -0.0676 -0.0936
  154loPI    C3 2451  15.282  12.710  11.348  0.2051 -0.1409 -0.0626
  154loPI   PO4 2452  15.648  12.731  10.923  0.2200  0.2198 -0.2790
  154loPI   GL1 2453  15.824  12.731  10.501 -0.0208  0.0253 -0.1380
  154loPI   GL2 2454  15.594  12.577  10.415 -0.1847 -0.0627  0.1535
  154loPI   C1A 2455  15.951  13.023  10.272  0.0417  0.1855 -0.1563
  154loPI   C2A 2456  16.283  13.283  10.176  0.0940 -0.1349 -0.0572
  154loPI   C3A 2457  16.478  13.301   9.734 -0.2715 -0.0750  0.0330
  154loPI   C4A 2458  16.552  13.430   9.304  0.2153  0.0735  0.1724
  154loPI   C5A 2459  16.658  13.408   8.864  0.1507 -0.1904  0.4011
  154loPI   C6A 2460  16.522  13.546   8.412 -0.1751 -0.1510  0.1856
  154loPI   C1B 2461  15.333  12.460  10.224 -0.0915  0.4754  0.0896
  154loPI   C2B 2462  15.229  12.755   9.886 -0.1895  0.1401  0.0074
  154loPI   C3B 2463  15.226  12.729   9.507 -0.2520 -0.0073  0.1729
  154loPI   C4B 2464  15.270  12.642   9.129 -0.2409  0.1009  0.0990
  155loPI    C1 2465   1.045  12.957  11.082 -0.0380 -0.1381 -0.0832
  155loPI    C2 2466   0.949  12.598  11.232  0.0408 -0.1001  0.0597
  155loPI    C3 2467   0.732  12.920  11.328  0.2407 -0.0327  0.2971
  155loPI   PO4 2468   1.014  12.986  10.879  0.1778  0.1277 -0.0436
  155loPI   GL1 2469   0.903  12.898  10.456 -0.1753  0.1786  0.0028
  155loPI   GL2 2470   0.931  12.631  10.384  0.0425 -0.3370 -0.1356
  155loPI   C1A 2471   0.858  13.259  10.276  0.0182  0.4619  0.0618
  155loPI   C2A 2472   0.808  13.504   9.898 -0.3422  0.0266 -0.2373
  155loPI   C3A 2473   0.845  13.505   9.486  0.1871  0.2539  0.1896
  155loPI   C4A 2474   0.803  13.699   9.100 -0.1436 -0.3056 -0.1188
  155loPI   C5A 2475   0.565  13.779   8.766 -0.0538  0.2003  0.2491
  155loPI   C6A 2476   0.384  13.951   8.389 -0.3269 -0.1955  0.1841
  155loPI   C1B 2477   0.824  12.774   9.989 -0.2903  0.1872 -0.3203
  155loPI   C2B 2478   0.587  13.023   9.704 -0.0548  0.1346  0.0905
  155loPI   C3B 2479   0.569  13.148   9.313  0.1212 -0.0395 -0.1235
  155loPI   C4B 2480   0.596  13.176   8.872 -0.3294 -0.0707  0.0482
  156loPI    C1 2481   4.745   6.930  11.155  0.0665  0.0828 -0.0742
  156loPI    C2 2482   4.910   6.999  11.512 -0.3507  0.0563  0.1290
  156loPI    C3 2483   4.806   6.627  11.409  0.1686 -0.0059 -0.2029
  156loPI   PO4 2484   4.875   6.991  10.876 -0.1006 -0.2279 -0.1117
  156loPI   GL1 2485   4.795   6.830  10.448 -0.3378  0.0659 -0.2007
  156loPI   GL2 2486   4.621   7.115  10.415  0.2320  0.0689  0.1417
  156loPI   C1A 2487   4.744   6.755   9.977 -0.1974 -0.3425 -0.0332
  156loPI   C2A 2488   4.980   6.633   9.586  0.1289  0.2444 -0.0797
  156loPI   C3A 2489   5.251   6.661   9.229  0.0593  0.0235 -0.1062
  156loPI   C4A 2490   5.433   6.499   8.899 -0.2040  0.2720  0.0271
  156loPI   C5A 2491   5.398   6.607   8.481 -0.2980 -0.0956  0.1465
  156loPI   C6A 2492   5.082   6.283   8.186  0.1159  0.2587 -0.1012
  156loPI   C1B 2493   4.369   7.096   9.993 -0.1125 -0.0875 -0.0917
  156loPI   C2B 2494   4.351   7.097   9.666 -0.2248  0.0950  0.0807
  156loPI   C3B 2495   4.504   7.038   9.304  0.1165  0.0935 -0.0736
  156loPI   C4B 2496   4.607   6.919   8.891  0.1965  0.0823  0.0901
  157loPI    C1 2497   5.720   0.844  10.520 -0.0687  0.0772  0.1494
  157loPI    C2 2498   5.784   0.921  10.907 -0.1449  0.0119  0.1753
  157loPI    C3 2499   6.094   0.873  10.659 -0.0959  0.0794  0.2229
  157loPI   PO4 2500   5.573   0.648  10.485 -0.0582 -0.0224 -0.0567
  157loPI   GL1 2501   5.262   0.576  10.368  0.0290 -0.0013  0.2912
  157loPI   GL2 2502   5.099   0.434  10.624 -0.2375 -0.0344 -0.1430
  157loPI   C1A 2503   5.277   0.447   9.946  0.0128 -0.0771  0.1104
  157loPI   C2A 2504   5.355   0.381   9.529 -0.1052 -0.1522  0.0691
  157loPI   C3A 2505   5.483   0.477   9.094  0.0227  0.0318  0.0526
  157loPI   C4A 2506   5.818   0.449   8.900  0.0164  0.3289 -0.2155
  157loPI   C5A 2507   6.036   0.643   8.576  0.2372 -0.0561 -0.1512
  157loPI   C6A 2508   6.256   0.844   8.377 -0.1926  0.0551 -0.1427
  157loPI   C1B 2509   5.180   0.042  10.240 -0.4160 -0.0490 -0.0432
  157loPI   C2B 2510   5.074  -0.093   9.836  0.2033 -0.2242  0.0256
  157loPI   C3B 2511   5.012  -0.238   9.408  0.3212 -0.0753  0.0544
  157loPI   C4B 2512   5.034  -0.473   8.946 -0.0572 -0.2022 -0.0872
  158loPI    C1 2513  10.932  14.625  10.586 -0.2856  0.1172 -0.0777
  158loPI    C2 2514  11.241  14.579  10.836 -0.3585 -0.1548 -0.0346
  158loPI    C3 2515  11.278  14.475  10.452 -0.3083  0.0801 -0.0946
  158loPI   PO4 2516  10.798  14.740  10.771 -0.1350  0.0051  0.2354
  158loPI   GL1 2517  10.513  15.007  10.552 -0.0573 -0.0839  0.0426
  158loPI   GL2 2518  10.448  14.702  10.299  0.1234 -0.0458  0.0549
  158loPI   C1A 2519  10.704  15.110  10.134  0.0973 -0.0233  0.0344
  158loPI   C2A 2520  10.890  15.150   9.721 -0.0842  0.0663 -0.3434
  158loPI   C3A 2521  11.057  15.137   9.233  0.0501 -0.1244 -0.0870
  158loPI   C4A 2522  11.251  14.987   8.998 -0.0820 -0.0649 -0.1714
  158loPI   C5A 2523  11.197  14.990   8.576  0.0279  0.3151  0.1022
  158loPI   C6A 2524  11.169  15.262   8.135 -0.0659 -0.1897  0.0414
  158loPI   C1B 2525  10.304  14.788   9.985  0.1426 -0.0087 -0.1087
  158loPI   C2B 2526  10.119  14.772   9.546  0.5551 -0.1911  0.1752
  158loPI   C3B 2527  10.240  14.710   9.006  0.1654  0.0369  0.1330
  158loPI   C4B 2528  10.117  14.745   8.577  0.0744 -0.2900 -0.1309
  159loPI    C1 2529   6.053  14.780  11.204 -0.0481 -0.0230  0.1410
  159loPI    C2 2530   5.813  14.962  11.467  0.1265  0.3323  0.0597
  159loPI    C3 2531   6.198  14.904  11.555  0.0840  0.0444  0.0632
  159loPI   PO4 2532   6.012  14.879  10.889 -0.0521 -0.0452  0.0506
  159loPI   GL1 2533   5.716  14.934  10.526 -0.1305  0.2162  0.3118
  159loPI   GL2 2534   5.385  14.898  10.463  0.2554  0.0946  0.0884
  159loPI   C1A 2535   5.655  14.632  10.196 -0.0957  0.0055 -0.0327
  159loPI   C2A 2536   5.578  14.560   9.817 -0.3852 -0.1116 -0.2761
  159loPI   C3A 2537   5.591  14.583   9.420 -0.4056  0.0882 -0.1159
  159loPI   C4A 2538   5.614  14.478   8.983 -0.3561  0.2233  0.0836
  159loPI   C5A 2539   5.488  14.341   8.555  0.2355 -0.0723 -0.0805
  159loPI   C6A 2540   5.525  14.605   8.183 -0.2258 -0.1898 -0.0665
  159loPI   C1B 2541   5.438  15.047  10.069 -0.0965  0.2931  0.1436
  159loPI   C2B 2542   5.393  14.972   9.635 -0.0702  0.0807  0.0946
  159loPI   C3B 2543   5.363  15.052   9.196 -0.0369 -0.4976 -0.2087
  159loPI   C4B 2544   5.389  15.295   8.772 -0.0205  0.1112  0.0164
  160loPI    C1 2545  13.068  16.500  10.984  0.1395  0.0421 -0.3686
  160loPI    C2 2546  13.437  16.646  10.941  0.1582  0.0884 -0.0743
  160loPI    C3 2547  13.383  16.254  10.994  0.1626  0.0783 -0.1435
  160loPI   PO4 2548  13.003  16.542  10.824 -0.0270 -0.0995 -0.0064
  160loPI   GL1 2549  13.038  16.296  10.400  0.0226 -0.2915  0.0557
  160loPI   GL2 2550  13.357  16.358  10.449  0.2533 -0.1837  0.0002
  160loPI   C1A 2551  13.171  16.292   9.947  0.0871  0.2343 -0.0131
  160loPI   C2A 2552  13.139  16.222   9.488 -0.0146 -0.0094 -0.0496
  160loPI   C3A 2553  13.254  15.957   9.140  0.0495 -0.3101  0.2214
  160loPI   C4A 2554  13.374  15.878   8.618 -0.0913  0.1343 -0.1420
  160loPI   C5A 2555  13.390  15.842   8.208  0.0174  0.1066 -0.1617
  160loPI   C6A 2556  13.793  15.907   7.981 -0.3766  0.1053 -0.2314
  160loPI   C1B 2557  13.697  16.339  10.189 -0.0218  0.2659 -0.0406
  160loPI   C2B 2558  13.674  16.259   9.772  0.2586 -0.0719  0.0937
  160loPI   C3B 2559  13.615  16.333   9.365  0.1667 -0.1559 -0.0795
  160loPI   C4B 2560  13.560  16.440   8.888  0.0709 -0.0493 -0.1838
  161loPI    C1 2561   9.073   7.108  10.718 -0.0783  0.1343 -0.2761
  161loPI    C2 2562   8.716   7.194  10.558 -0.1633  0.1890 -0.0605
  161loPI    C3 2563   8.758   6.871  10.790 -0.0067  0.0290 -0.3072
  161loPI   PO4 2564   9.237   7.137  10.550 -0.2012  0.2321 -0.0771
  161loPI   GL1 2565   9.291   7.286  10.146  0.0707  0.1729 -0.0622
  161loPI   GL2 2566   9.027   7.194  10.093 -0.2001 -0.1710 -0.2121
  161loPI   C1A 2567   9.254   7.627   9.861 -0.1919 -0.0167 -0.0817
  161loPI   C2A 2568   9.450   7.817   9.561  0.0074  0.4094  0.0804
  161loPI   C3A 2569   9.576   7.730   9.127 -0.0797 -0.2738 -0.1054
  161loPI   C4A 2570   9.565   7.842   8.705 -0.1450 -0.1427 -0.2175
  161loPI   C5A 2571   9.546   7.933   8.296  0.0191  0.0293 -0.1828
  161loPI   C6A 2572   9.268   8.119   7.919 -0.0516 -0.2212  0.0656
  161loPI   C1B 2573   9.080   7.047   9.762 -0.0871  0.0742  0.2844
  161loPI   C2B 2574   8.947   6.896   9.336  0.3128 -0.0017  0.0314
  161loPI   C3B 2575   8.965   6.751   8.934  0.0133  0.1901  0.0359
  161loPI   C4B 2576   9.064   6.646   8.544  0.1087  0.2283  0.0543
  162loPI    C1 2577  11.949   4.870  11.046 -0.0390  0.0118  0.1097
  162loPI    C2 2578  11.591   5.048  11.052 -0.0099  0.0882 -0.2261
  162loPI    C3 2579  11.910   5.238  11.199 -0.0792  0.0806 -0.0637
  162loPI   PO4 2580  11.845   4.651  10.886  0.3469 -0.2446  0.3196
  162loPI   GL1 2581  11.540   4.558  10.598  0.1983  0.0186 -0.0178
  162loPI   GL2 2582  11.361   4.413  10.559 -0.1918  0.1004 -0.2934
  162loPI   C1A 2583  11.649   4.649  10.134  0.2971  0.0708 -0.1629
  162loPI   C2A 2584  11.527   4.822   9.653  0.0271  0.0000 -0.2233
  162loPI   C3A 2585  11.471   4.881   9.154  0.0591 -0.2464  0.3557
  162loPI   C4A 2586  11.526   4.890   8.732  0.2836 -0.0008 -0.1638
  162loPI   C5A 2587  11.434   4.826   8.381  0.0600 -0.2006 -0.0669
  162loPI   C6A 2588  11.462   4.595   8.042  0.1335  0.0491 -0.2002
  162loPI   C1B 2589  11.142   4.617  10.286  0.0620 -0.3587  0.1462
  162loPI   C2B 2590  11.070   4.715   9.836  0.0542  0.0134  0.0784
  162loPI   C3B 2591  11.056   4.699   9.354  0.1861 -0.3168 -0.1542
  162loPI   C4B 2592  10.954   4.859   8.967 -0.2261  0.1250 -0.0549
  163loPI    C1 2593   1.425  10.370  10.711 -0.0947  0.1053 -0.0867
  163loPI    C2 2594   1.594  10.674  10.907 -0.3424  0.1720  0.0265
  163loPI    C3 2595   1.486  10.344  11.105 -0.0823  0.0116 -0.0944
  163loPI   PO4 2596   1.570  10.351  10.536  0.0703 -0.1504  0.1220
  163loPI   GL1 2597   1.456  10.441  10.202 -0.0672 -0.1403  0.0031
  163loPI   GL2 2598   1.226  10.613  10.253 -0.0626  0.1398 -0.2487
  163loPI   C1A 2599   1.600  10.448   9.744  0.2421 -0.0389 -0.2343
  163loPI   C2A 2600   1.522  10.418   9.338  0.3431 -0.0217  0.1525
  163loPI   C3A 2601   1.696  10.613   8.971  0.0092 -0.1657  0.0096
  163loPI   C4A 2602   1.790  10.842   8.656 -0.1411 -0.0578 -0.0874
  163loPI   C5A 2603   2.062  10.964   8.324  0.2022 -0.0963 -0.0355
  163loPI   C6A 2604   2.077  11.111   7.901  0.3272  0.0415 -0.1298
  163loPI   C1B 2605   1.062  10.593   9.937 -0.1826 -0.2940 -0.0243
  163loPI   C2B 2606   1.215  10.743   9.632  0.2196  0.2725 -0.0036
  163loPI   C3B 2607   1.218  10.781   9.155  0.2527  0.0530 -0.1506
  163loPI   C4B 2608   1.277  10.859   8.677 -0.1669 -0.0654  0.0859
  164loPI    C1 2609   4.312  10.505  10.899  0.1091  0.1304 -0.0904
  164loPI    C2 2610   4.693  10.403  10.965  0.0722  0.0561  0.0098
  164loPI    C3 2611   4.566  10.771  11.055  0.1130  0.0714  0.0045
  164loPI   PO4 2612   4.339  10.328  10.628  0.2138 -0.2310 -0.0256
  164loPI   GL1 2613   4.083  10.444  10.293 -0.1940  0.0549 -0.3128
  164loPI   GL2 2614   4.198  10.734  10.346 -0.1753  0.1967 -0.0461
  164loPI   C1A 2615   4.103  10.431   9.787  0.0653  0.3261  0.0246
  164loPI   C2A 2616   4.247  10.593   9.419 -0.1203  0.0979 -0.0266
  164loPI   C3A 2617   4.375  10.555   9.011  0.0794  0.2725  0.1565
  164loPI   C4A 2618   4.225  10.274   8.661  0.1183 -0.2016 -0.1392
  164loPI   C5A 2619   3.999  10.352   8.265  0.1786 -0.0660  0.3101
  164loPI   C6A 2620   3.681  10.703   8.295  0.2940 -0.1126  0.0608
  164loPI   C1B 2621   3.830  10.772   9.988  0.1207  0.1610  0.0487
  164loPI   C2B 2622   3.467  11.057   9.776  0.2726  0.2636 -0.1939
  164loPI   C3B 2623   3.438  11.051   9.325 -0.1454  0.0175 -0.0819
  164loPI   C4B 2624   3.532  11.051   8.848 -0.1574  0.0704  0.0134
  165loPI    C1 2625  12.620   5.013  11.011  0.2106 -0.0596 -0.0182
  165loPI    C2 2626  12.457   4.806  11.311  0.0160  0.0412 -0.0525
  165loPI    C3 2627  12.788   5.021  11.373  0.0810 -0.0857  0.0433
  165loPI   PO4 2628  12.337   5.109  10.905  0.1011  0.1829 -0.1147
  165loPI   GL1 2629  12.125   4.948  10.563 -0.3743  0.0162 -0.3437
  165loPI   GL2 2630  11.948   5.187  10.598 -0.1100  0.0406 -0.0441
  165loPI   C1A 2631  12.076   4.886  10.123  0.2784  0.1589 -0.1514
  165loPI   C2A 2632  12.058   4.786   9.749 -0.0394  0.1082 -0.2127
  165loPI   C3A 2633  11.971   4.875   9.250  0.0769  0.0646 -0.0199
  165loPI   C4A 2634  12.071   4.964   8.799  0.1818 -0.0250  0.1912
  165loPI   C5A 2635  11.928   5.126   8.483 -0.4094  0.0859 -0.1528
  165loPI   C6A 2636  11.865   4.966   8.113  0.0354  0.0321 -0.0312
  165loPI   C1B 2637  11.720   5.206  10.199  0.2017 -0.3572  0.1650
  165loPI   C2B 2638  11.294   5.136  10.016 -0.2959 -0.0562  0.0640
  165loPI   C3B 2639  11.287   5.235   9.582  0.0463 -0.1266 -0.3984
  165loPI   C4B 2640  11.245   5.302   9.115  0.0583 -0.0431  0.3392
  166loPI    C1 2641  13.677   5.145  10.792  0.1671  0.2661  0.1344
  166loPI    C2 2642  14.009   5.286  10.966  0.1702  0.1526  0.2224
  166loPI    C3 2643  13.729   5.106  11.187  0.0064  0.3296  0.1623
  166loPI   PO4 2644  13.740   5.214  10.537 -0.4204  0.2052  0.0813
  166loPI   GL1 2645  13.499   5.196  10.213 -0.2905 -0.0867  0.1356
  166loPI   GL2 2646  13.252   5.175  10.302 -0.1139 -0.1389 -0.0437
  166loPI   C1A 2647  13.488   5.221   9.732 -0.2123 -0.0808  0.0658
  166loPI   C2A 2648  13.472   5.294   9.312 -0.2696 -0.0633  0.1500
  166loPI   C3A 2649  13.362   5.369   8.833  0.3052  0.1360  0.1406
  166loPI   C4A 2650  12.978   5.249   8.838 -0.0174 -0.0360  0.2123
  166loPI   C5A 2651  12.592   5.088   8.986 -0.0238 -0.0183 -0.0598
  166loPI   C6A 2652  12.486   5.008   9.414  0.1061  0.1031  0.1347
  166loPI   C1B 2653  13.011   5.113   9.875 -0.1231  0.1522  0.2887
  166loPI   C2B 2654  12.847   4.767   9.687  0.0387 -0.0045  0.1920
  166loPI   C3B 2655  12.847   4.577   9.294  0.1554 -0.1890  0.1357
  166loPI   C4B 2656  12.815   4.705   8.874 -0.3661  0.2589 -0.0566
  167loPI    C1 2657  12.637   5.509  11.094  0.0090 -0.1535  0.2151
  167loPI    C2 2658  12.734   5.841  11.295 -0.0845 -0.0654  0.1158
  167loPI    C3 2659  12.906   5.493  11.389  0.1142  0.0356  0.1311
  167loPI   PO4 2660  12.727   5.591  10.796 -0.0586 -0.2488  0.1899
  167loPI   GL1 2661  12.843   5.675  10.343 -0.5578 -0.1331  0.1106
  167loPI   GL2 2662  12.814   5.428  10.202  0.2433 -0.0838  0.0259
  167loPI   C1A 2663  12.754   5.944   9.909 -0.1532  0.0589  0.0382
  167loPI   C2A 2664  12.467   5.968   9.686  0.1351  0.1035 -0.0214
  167loPI   C3A 2665  12.199   6.240   9.358  0.0138  0.0914 -0.0450
  167loPI   C4A 2666  12.341   6.265   8.927 -0.0778 -0.0302 -0.0094
  167loPI   C5A 2667  12.465   6.083   8.519 -0.0121  0.3453  0.3639
  167loPI   C6A 2668  12.475   5.688   8.279  0.1617 -0.1599  0.1026
  167loPI   C1B 2669  12.692   5.480   9.765  0.3090  0.1063  0.0418
  167loPI   C2B 2670  12.420   5.439   9.518 -0.0878 -0.0059 -0.1764
  167loPI   C3B 2671  12.269   5.422   9.121 -0.0247  0.0449 -0.0657
  167loPI   C4B 2672  12.373   5.417   8.674 -0.0855 -0.1632  0.2003
  168loPI    C1 2673   3.715  10.804  10.517 -0.2425 -0.0065  0.1428
  168loPI    C2 2674   3.588  10.453  10.375  0.1195 -0.0780 -0.0174
  168loPI    C3 2675   3.808  10.465  10.709  0.1688 -0.0111 -0.0522
  168loPI   PO4 2676   3.491  10.923  10.533 -0.2872  0.0989  0.1853
  168loPI   GL1 2677   3.213  11.016  10.183 -0.1250  0.1054 -0.0218
  168loPI   GL2 2678   3.134  10.691  10.306  0.1629  0.0697 -0.0236
  168loPI   C1A 2679   2.979  10.900   9.843 -0.1722 -0.0577  0.0396
  168loPI   C2A 2680   3.013  10.766   9.441 -0.0493  0.1065  0.0793
  168loPI   C3A 2681   3.191  10.742   9.071  0.4142 -0.3078 -0.1028
  168loPI   C4A 2682   3.422  10.569   8.793 -0.2184  0.1664  0.0227
  168loPI   C5A 2683   3.691  10.192   8.679 -0.0688  0.0449 -0.1751
  168loPI   C6A 2684   3.834   9.841   8.458 -0.1282  0.2114  0.1218
  168loPI   C1B 2685   3.358  10.612   9.994 -0.1062  0.0636 -0.3123
  168loPI   C2B 2686   3.571  10.637   9.558 -0.2297  0.1704  0.1795
  168loPI   C3B 2687   3.724  10.597   9.197  0.3176  0.0762  0.1046
  168loPI   C4B 2688   3.889  10.671   8.748 -0.0076 -0.1408  0.1558
  169loPI    C1 2689   1.343   4.237  10.582  0.0864 -0.4139 -0.2302
  169loPI    C2 2690   1.105   4.065  10.311 -0.1725 -0.2004 -0.1430
  169loPI    C3 2691   0.985   4.396  10.501  0.2212 -0.0537 -0.1408
  169loPI   PO4 2692   1.601   4.127  10.537 -0.1536  0.0681  0.2631
  169loPI   GL1 2693   1.661   3.960  10.188  0.3134  0.0575  0.2000
  169loPI   GL2 2694   1.419   3.737  10.278  0.2313  0.0185 -0.0321
  169loPI   C1A 2695   1.339   4.083   9.827 -0.0033 -0.0290 -0.0116
  169loPI   C2A 2696   1.375   4.146   9.396  0.1384 -0.0190 -0.3743
  169loPI   C3A 2697   1.574   4.127   8.997 -0.0150 -0.1620 -0.1794
  169loPI   C4A 2698   1.620   4.159   8.564 -0.0710 -0.3883 -0.1812
  169loPI   C5A 2699   1.891   4.045   8.233  0.0268  0.2969 -0.0303
  169loPI   C6A 2700   2.361   3.939   8.125 -0.1617 -0.1613  0.4920
  169loPI   C1B 2701   1.486   3.632   9.834  0.1391 -0.1659  0.0101
  169loPI   C2B 2702   1.525   3.642   9.414  0.2442  0.0904 -0.1154
  169loPI   C3B 2703   1.746   3.619   8.971 -0.2272  0.0035  0.1247
  169loPI   C4B 2704   1.700   3.641   8.526  0.1251  0.0601  0.2145
  170loPI    C1 2705   1.267   8.234  10.456  0.2106  0.1920 -0.0104
  170loPI    C2 2706   1.454   8.437  10.746  0.0708  0.0345  0.1927
  170loPI    C3 2707   1.499   8.040  10.717 -0.0052  0.0344  0.0666
  170loPI   PO4 2708   1.291   8.350  10.291  0.1720  0.0112  0.0265
  170loPI   GL1 2709   1.001   8.708  10.000  0.3546  0.0838 -0.0627
  170loPI   GL2 2710   1.274   8.995  10.036  0.1516 -0.0127  0.1168
  170loPI   C1A 2711   0.806   8.752   9.627 -0.0423 -0.0506  0.1366
  170loPI   C2A 2712   0.998   8.759   9.244 -0.2488 -0.0227 -0.2511
  170loPI   C3A 2713   1.143   8.907   8.997 -0.1857 -0.1686 -0.1849
  170loPI   C4A 2714   1.132   9.186   8.696 -0.1818  0.3345  0.1500
  170loPI   C5A 2715   1.133   9.339   8.342  0.2392  0.2247  0.0304
  170loPI   C6A 2716   1.299   9.258   7.941  0.1921  0.0804  0.4006
  170loPI   C1B 2717   1.250   9.112   9.599  0.1965  0.1028 -0.0385
  170loPI   C2B 2718   1.192   9.383   9.286 -0.1556  0.0616  0.1990
  170loPI   C3B 2719   1.303   9.607   8.862 -0.2960 -0.0057  0.2334
  170loPI   C4B 2720   1.407   9.863   8.407 -0.1821  0.2501  0.0020
  171loPI    C1 2721   1.410   9.860  10.875  0.1099 -0.1646 -0.3695
  171loPI    C2 2722   1.417   9.573  11.154  0.0431 -0.0067 -0.2035
  171loPI    C3 2723   1.751   9.667  10.955  0.1704  0.1047  0.0576
  171loPI   PO4 2724   1.243   9.829  10.752  0.0718  0.0245 -0.0281
  171loPI   GL1 2725   1.135   9.691  10.333 -0.0845  0.4145  0.2053
  171loPI   GL2 2726   0.977   9.492  10.098 -0.0147  0.1252  0.3429
  171loPI   C1A 2727   1.215  10.007  10.079 -0.1607  0.1700  0.0958
  171loPI   C2A 2728   1.175  10.204   9.682 -0.2145  0.2004 -0.1085
  171loPI   C3A 2729   1.029  10.321   9.191  0.0991 -0.4256  0.0480
  171loPI   C4A 2730   0.890  10.490   8.824 -0.0908 -0.1926  0.2480
  171loPI   C5A 2731   1.055  10.490   8.362  0.2749 -0.1690 -0.1268
  171loPI   C6A 2732   1.141  10.699   7.931 -0.2762  0.2207 -0.0433
  171loPI   C1B 2733   1.207   9.610   9.688 -0.1478  0.1450  0.1911
  171loPI   C2B 2734   1.383   9.851   9.391 -0.0628 -0.2025 -0.0790
  171loPI   C3B 2735   1.425  10.083   8.951  0.0366 -0.0309  0.1258
  171loPI   C4B 2736   1.406  10.351   8.629 -0.1083  0.0652  0.3901
  172loPI    C1 2737   7.969   3.156  11.275  0.0700  0.0611 -0.1451
  172loPI    C2 2738   8.006   3.118  11.672 -0.1518 -0.0651 -0.1353
  172loPI    C3 2739   7.704   3.331  11.519 -0.0123  0.0624 -0.2350
  172loPI   PO4 2740   8.016   2.866  11.154  0.0105 -0.2884  0.1281
  172loPI   GL1 2741   8.138   2.693  10.837 -0.3945  0.0557  0.3874
  172loPI   GL2 2742   8.131   2.477  10.672  0.1774 -0.0286 -0.1272
  172loPI   C1A 2743   7.881   2.767  10.426  0.2657  0.1516 -0.1681
  172loPI   C2A 2744   7.759   2.727  10.046 -0.1058 -0.2630 -0.1982
  172loPI   C3A 2745   7.845   2.787   9.619 -0.2137  0.0740 -0.2895
  172loPI   C4A 2746   7.952   2.786   9.200 -0.0311 -0.0343 -0.0011
  172loPI   C5A 2747   7.794   2.802   8.831  0.2182  0.0560 -0.2045
  172loPI   C6A 2748   7.430   2.974   8.620 -0.2730 -0.0368 -0.1692
  172loPI   C1B 2749   8.259   2.437  10.245  0.0970 -0.0891 -0.0053
  172loPI   C2B 2750   8.227   2.358   9.837  0.0900 -0.1047  0.1528
  172loPI   C3B 2751   8.277   2.426   9.343  0.2648 -0.0059 -0.0711
  172loPI   C4B 2752   8.139   2.368   8.841 -0.2516  0.1762  0.1321
  173loPI    C1 2753  10.728  11.605  10.852  0.0006  0.1821  0.0226
  173loPI    C2 2754  11.124  11.561  10.826 -0.0119  0.0334  0.0709
  173loPI    C3 2755  10.961  11.716  11.157 -0.0074 -0.0853  0.1292
  173loPI   PO4 2756  10.644  11.691  10.656 -0.0439  0.0410  0.0407
  173loPI   GL1 2757  10.480  11.767  10.329  0.1395 -0.1241  0.1169
  173loPI   GL2 2758  10.839  11.903  10.223 -0.1856  0.3877  0.0882
  173loPI   C1A 2759  10.202  11.940  10.004 -0.0269 -0.1574  0.0292
  173loPI   C2A 2760  10.163  11.991   9.573 -0.0112 -0.0079  0.0813
  173loPI   C3A 2761  10.247  11.917   9.207 -0.0615  0.0546  0.2619
  173loPI   C4A 2762  10.222  11.886   8.722  0.1946  0.1301  0.0423
  173loPI   C5A 2763  10.264  12.003   8.290 -0.2035 -0.0955 -0.1149
  173loPI   C6A 2764  10.417  11.999   7.844 -0.1811 -0.0275  0.2059
  173loPI   C1B 2765  10.680  11.899   9.831 -0.1996 -0.6297  0.1112
  173loPI   C2B 2766  10.677  12.071   9.456  0.0775 -0.0030 -0.1713
  173loPI   C3B 2767  10.714  12.026   8.987 -0.1827 -0.2531 -0.0737
  173loPI   C4B 2768  10.670  12.134   8.549 -0.0938  0.0512 -0.4009
  174loPI    C1 2769   8.516   2.585  11.144  0.2211 -0.1225 -0.1733
  174loPI    C2 2770   8.748   2.862  11.314 -0.2583  0.0689  0.1923
  174loPI    C3 2771   8.740   2.490  11.461  0.0146 -0.0132  0.0077
  174loPI   PO4 2772   8.633   2.513  10.883 -0.0246 -0.1228  0.4457
  174loPI   GL1 2773   8.886   2.711  10.549 -0.2121  0.3196 -0.0625
  174loPI   GL2 2774   9.049   2.905  10.507  0.0391 -0.1984 -0.1711
  174loPI   C1A 2775   8.716   2.545  10.198  0.1218 -0.1604  0.0067
  174loPI   C2A 2776   8.714   2.575   9.693 -0.1617 -0.1070  0.0395
  174loPI   C3A 2777   8.733   2.573   9.198  0.0197 -0.2117 -0.0531
  174loPI   C4A 2778   8.690   2.593   8.773  0.1404 -0.1016 -0.0707
  174loPI   C5A 2779   8.906   2.278   8.439 -0.2419  0.0655  0.3140
  174loPI   C6A 2780   8.991   1.861   8.157  0.0393  0.1391 -0.1535
  174loPI   C1B 2781   8.867   2.990  10.107 -0.0706  0.1941  0.1015
  174loPI   C2B 2782   8.830   3.088   9.688 -0.2006 -0.2031 -0.0903
  174loPI   C3B 2783   8.791   3.055   9.282 -0.0993  0.0497  0.0705
  174loPI   C4B 2784   8.791   3.133   8.782  0.2222  0.3272 -0.0668
  175loPI    C1 2785   8.336  11.923  10.824  0.0035 -0.0358  0.0226
  175loPI    C2 2786   8.551  11.616  10.963  0.0232 -0.0368 -0.0098
  175loPI    C3 2787   8.579  11.975  11.137  0.0930 -0.0233 -0.0486
  175loPI   PO4 2788   8.336  11.901  10.599 -0.1611 -0.1671  0.0762
  175loPI   GL1 2789   8.398  11.963  10.166 -0.2209 -0.1121 -0.1418
  175loPI   GL2 2790   8.552  12.264  10.302  0.0874  0.0301 -0.1854
  175loPI   C1A 2791   8.210  11.830   9.807 -0.0422  0.0788  0.1590
  175loPI   C2A 2792   8.144  11.831   9.348 -0.0145  0.1075  0.1099
  175loPI   C3A 2793   8.187  11.743   8.875 -0.0429  0.0994 -0.0525
  175loPI   C4A 2794   8.193  11.678   8.497  0.1193  0.2444  0.0206
  175loPI   C5A 2795   8.422  11.430   8.259  0.3163 -0.0607 -0.0700
  175loPI   C6A 2796   8.439  11.126   7.999  0.2959 -0.1773 -0.2685
  175loPI   C1B 2797   8.387  12.344   9.755 -0.0567  0.0465 -0.0024
  175loPI   C2B 2798   8.446  12.310   9.308 -0.0406  0.3753  0.2457
  175loPI   C3B 2799   8.248  12.281   8.979  0.2118 -0.2989 -0.0533
  175loPI   C4B 2800   7.932  12.147   8.741 -0.1767 -0.2218 -0.1820
  176loPI    C1 2801   4.225   9.617  10.671  0.0631 -0.0181 -0.0621
  176loPI    C2 2802   4.080   9.948  10.843 -0.2215 -0.1906  0.0366
  176loPI    C3 2803   4.171   9.629  11.067 -0.0077 -0.2030 -0.0654
  176loPI   PO4 2804   4.039   9.590  10.447 -0.1704  0.1755  0.0245
  176loPI   GL1 2805   4.012   9.623  10.008 -0.1164  0.1098 -0.0047
  176loPI   GL2 2806   4.253   9.446   9.964 -0.1263 -0.3966  0.1362
  176loPI   C1A 2807   4.069   9.920   9.782 -0.0547 -0.1906 -0.0141
  176loPI   C2A 2808   4.457  10.077   9.527 -0.2656 -0.0504 -0.0253
  176loPI   C3A 2809   4.579  10.021   9.135  0.2895 -0.0977 -0.0424
  176loPI   C4A 2810   4.597   9.808   8.779  0.1784 -0.0119 -0.0429
  176loPI   C5A 2811   4.359   9.554   8.487  0.1824 -0.1669 -0.3769
  176loPI   C6A 2812   4.148   9.617   8.137 -0.0310 -0.4234  0.0324
  176loPI   C1B 2813   4.377   9.571   9.524  0.0730  0.0118  0.0474
  176loPI   C2B 2814   4.586   9.492   9.137 -0.1118 -0.0175 -0.0308
  176loPI   C3B 2815   4.777   9.309   8.756  0.1792 -0.0692  0.0822
  176loPI   C4B 2816   4.848   9.005   8.392  0.0357 -0.4659 -0.1085
  177loPI    C1 2817  11.082  15.138  11.435  0.1893  0.0152  0.1567
  177loPI    C2 2818  10.806  15.420  11.372  0.0517 -0.1318  0.0955
  177loPI    C3 2819  10.778  15.181  11.691  0.2487  0.0180  0.2273
  177loPI   PO4 2820  11.233  14.981  11.157 -0.0732 -0.0018 -0.0917
  177loPI   GL1 2821  11.371  15.056  10.817 -0.2027 -0.0571  0.1113
  177loPI   GL2 2822  11.166  15.063  10.483  0.0440  0.0520  0.2628
  177loPI   C1A 2823  11.619  15.132  10.434 -0.3413 -0.0128 -0.0528
  177loPI   C2A 2824  11.610  15.188  10.015 -0.0641 -0.0830  0.1937
  177loPI   C3A 2825  11.507  15.164   9.617  0.1662 -0.1739  0.2985
  177loPI   C4A 2826  11.667  15.161   9.231 -0.0944  0.0013  0.0117
  177loPI   C5A 2827  11.668  15.145   8.805  0.0067  0.2398 -0.2584
  177loPI   C6A 2828  11.630  15.009   8.350  0.0096  0.1060  0.0368
  177loPI   C1B 2829  11.224  14.928  10.055  0.0423  0.0714  0.0202
  177loPI   C2B 2830  11.280  14.466   9.900 -0.0925  0.2609  0.2842
  177loPI   C3B 2831  11.466  14.191   9.658 -0.0258  0.0098 -0.1819
  177loPI   C4B 2832  11.636  13.812   9.456 -0.0789  0.2952 -0.1102
  178loPI    C1 2833  16.489   8.552  10.369  0.0675 -0.3098 -0.0154
  178loPI    C2 2834  16.102   8.451  10.369 -0.0062 -0.0370  0.0124
  178loPI    C3 2835  16.271   8.592  10.703  0.0873 -0.0437 -0.0320
  178loPI   PO4 2836  16.503   8.671  10.157 -0.2598  0.1148 -0.0074
  178loPI   GL1 2837  16.388   8.750   9.797 -0.0937  0.1065  0.0129
  178loPI   GL2 2838  16.057   8.761   9.931  0.0900  0.0920  0.2996
  178loPI   C1A 2839  16.544   8.442   9.475 -0.3350  0.0311 -0.2373
  178loPI   C2A 2840  16.316   8.302   9.137 -0.1455  0.1298 -0.2585
  178loPI   C3A 2841  16.235   8.282   8.598  0.0844  0.0722 -0.0714
  178loPI   C4A 2842  16.179   8.320   8.248 -0.1301  0.1143  0.3675
  178loPI   C5A 2843  16.305   8.459   7.797 -0.3053 -0.0120  0.3411
  178loPI   C6A 2844  16.448   8.346   7.261 -0.2406 -0.1610 -0.0486
  178loPI   C1B 2845  15.880   8.885   9.560 -0.0957 -0.2584 -0.1422
  178loPI   C2B 2846  15.763   9.005   9.115 -0.1362 -0.2127 -0.2592
  178loPI   C3B 2847  15.831   9.197   8.667  0.0844 -0.1152  0.0275
  178loPI   C4B 2848  15.898   9.202   8.246 -0.1479  0.2638 -0.0783
  179loPI    C1 2849   1.183  13.767  10.815 -0.2103  0.1064 -0.1807
  179loPI    C2 2850   0.889  13.506  10.742 -0.0095 -0.0808 -0.3309
  179loPI    C3 2851   1.103  13.477  11.079 -0.1388  0.0347 -0.2376
  179loPI   PO4 2852   1.298  13.837  10.644  0.0605 -0.1337  0.0321
  179loPI   GL1 2853   1.139  13.710  10.307 -0.1382  0.2981 -0.0499
  179loPI   GL2 2854   0.930  13.974  10.270  0.2886  0.0964  0.1137
  179loPI   C1A 2855   1.294  13.597   9.959  0.1177 -0.1072 -0.2689
  179loPI   C2A 2856   1.285  13.544   9.546 -0.2058 -0.0912  0.0272
  179loPI   C3A 2857   1.570  13.376   9.302 -0.1490  0.0724 -0.0965
  179loPI   C4A 2858   1.740  13.425   8.893 -0.1454  0.2306 -0.2414
  179loPI   C5A 2859   1.659  13.261   8.613 -0.2005 -0.1685  0.1651
  179loPI   C6A 2860   1.561  12.807   8.420  0.3774  0.0429 -0.0030
  179loPI   C1B 2861   0.950  13.966   9.810 -0.2983 -0.0317  0.0333
  179loPI   C2B 2862   1.114  13.995   9.431 -0.3085  0.0559 -0.0064
  179loPI   C3B 2863   1.429  13.836   9.014  0.0423  0.0489 -0.2314
  179loPI   C4B 2864   1.676  13.874   8.601  0.0024 -0.0217 -0.1060
  180loPI    C1 2865   2.725   2.744  11.072 -0.1671 -0.0784 -0.1759
  180loPI    C2 2866   2.346   2.822  10.970 -0.2050 -0.0436 -0.0117
  180loPI    C3 2867   2.427   2.527  11.228 -0.1063 -0.1659 -0.1807
  180loPI   PO4 2868   2.937   2.681  10.816 -0.1327  0.0718  0.2400
  180loPI   GL1 2869   3.151   2.409  10.454  0.0355 -0.1660  0.1402
  180loPI   GL2 2870   2.807   2.265  10.354 -0.0407 -0.0568 -0.0985
  180loPI   C1A 2871   3.091   2.491   9.985  0.0648  0.2032  0.1898
  180loPI   C2A 2872   2.943   2.433   9.604  0.0770 -0.0469  0.2055
  180loPI   C3A 2873   2.794   2.503   9.211 -0.1421  0.0553 -0.0038
  180loPI   C4A 2874   2.802   2.381   8.887  0.3010 -0.0019  0.1027
  180loPI   C5A 2875   2.806   2.473   8.484  0.1016  0.1257  0.0714
  180loPI   C6A 2876   2.631   2.386   8.162  0.2059 -0.0919 -0.1636
  180loPI   C1B 2877   2.510   2.452  10.019  0.0473  0.2545  0.1705
  180loPI   C2B 2878   2.379   2.418   9.577 -0.1292  0.1129 -0.1920
  180loPI   C3B 2879   2.303   2.421   9.053  0.3270 -0.0895 -0.0159
  180loPI   C4B 2880   2.332   2.403   8.608 -0.0045 -0.1192 -0.2384
  181loPI    C1 2881   3.498   5.411  10.963  0.0323  0.1551 -0.0727
  181loPI    C2 2882   3.587   5.256  11.320 -0.1656  0.0184 -0.0812
  181loPI    C3 2883   3.424   5.620  11.296  0.1208  0.1520 -0.0509
  181loPI   PO4 2884   3.702   5.408  10.819 -0.0679 -0.1455 -0.1567
  181loPI   GL1 2885   3.762   5.465  10.313  0.0332 -0.2182  0.1264
  181loPI   GL2 2886   3.832   5.779  10.343  0.0429 -0.0636 -0.0157
  181loPI   C1A 2887   3.659   5.463   9.890 -0.0573  0.1628  0.1572
  181loPI   C2A 2888   3.686   5.401   9.466 -0.3851  0.2977  0.4584
  181loPI   C3A 2889   3.660   5.391   9.046 -0.2237 -0.1221 -0.4967
  181loPI   C4A 2890   3.832   5.379   8.618  0.3939  0.0968 -0.1754
  181loPI   C5A 2891   4.043   5.272   8.255  0.3647  0.2068  0.1020
  181loPI   C6A 2892   4.304   5.506   8.112  0.0689  0.0780 -0.2171
  181loPI   C1B 2893   4.121   5.641   9.921  0.2509 -0.2804 -0.0408
  181loPI   C2B 2894   4.169   5.610   9.468  0.0068  0.0928  0.2786
  181loPI   C3B 2895   4.163   5.572   9.044  0.0583 -0.1178  0.0369
  181loPI   C4B 2896   4.301   5.546   8.644  0.1783  0.0283  0.1095
  182loPI    C1 2897   6.433   6.479  11.094  0.1231  0.0440  0.1108
  182loPI    C2 2898   6.176   6.291  11.336  0.0843 -0.1366 -0.0679
  182loPI    C3 2899   6.481   6.498  11.491 -0.0446 -0.0982  0.1392
  182loPI   PO4 2900   6.422   6.279  10.923 -0.0071  0.1089 -0.2855
  182loPI   GL1 2901   6.298   6.166  10.545  0.0933 -0.1381  0.1908
  182loPI   GL2 2902   5.982   6.317  10.468 -0.0895 -0.0592 -0.1000
  182loPI   C1A 2903   6.337   6.053  10.202  0.1109  0.0543 -0.0877
  182loPI   C2A 2904   6.412   5.829   9.816  0.0996  0.0148  0.0003
  182loPI   C3A 2905   6.515   5.728   9.364  0.1097 -0.0232  0.0168
  182loPI   C4A 2906   6.503   5.782   8.943 -0.0044  0.1780  0.0609
  182loPI   C5A 2907   6.564   5.648   8.569  0.3269  0.1518  0.1772
  182loPI   C6A 2908   6.644   5.740   8.121 -0.3338  0.1891  0.3482
  182loPI   C1B 2909   5.857   6.198   9.996 -0.0450  0.0624 -0.0884
  182loPI   C2B 2910   6.083   6.191   9.717 -0.3193 -0.1037 -0.3171
  182loPI   C3B 2911   6.160   6.209   9.265  0.1226  0.0035 -0.0509
  182loPI   C4B 2912   6.230   6.227   8.835 -0.3782 -0.1532  0.1813
  183loPI    C1 2913   4.785   1.259  10.952 -0.0823 -0.1735  0.0585
  183loPI    C2 2914   4.549   1.484  11.183  0.0085  0.0445 -0.0583
  183loPI    C3 2915   4.943   1.475  11.249  0.0095 -0.0546 -0.0759
  183loPI   PO4 2916   4.684   1.300  10.689  0.1257 -0.0211  0.1112
  183loPI   GL1 2917   4.852   1.124  10.327 -0.3464 -0.3668 -0.0684
  183loPI   GL2 2918   4.833   0.815  10.368  0.0481 -0.2412  0.0440
  183loPI   C1A 2919   5.010   1.199   9.938 -0.0613  0.2047  0.0651
  183loPI   C2A 2920   4.954   1.345   9.516 -0.1922 -0.1617  0.3364
  183loPI   C3A 2921   4.807   1.371   9.120  0.2110  0.1220  0.0272
  183loPI   C4A 2922   4.586   1.070   8.839 -0.0594 -0.0687 -0.0817
  183loPI   C5A 2923   4.343   0.955   8.412 -0.1545 -0.0550 -0.0649
  183loPI   C6A 2924   3.939   0.668   8.456 -0.0043 -0.4456  0.0992
  183loPI   C1B 2925   4.875   0.749   9.900 -0.0999 -0.0787 -0.2494
  183loPI   C2B 2926   5.040   0.741   9.528 -0.2886  0.0849  0.2363
  183loPI   C3B 2927   5.215   0.893   9.170  0.0297 -0.0032  0.0710
  183loPI   C4B 2928   5.092   1.108   8.789  0.2452  0.3202  0.0489
  184loPI    C1 2929   3.380   0.445  11.171  0.0408  0.1895  0.1961
  184loPI    C2 2930   3.567   0.210  11.436  0.0239 -0.0841 -0.0310
  184loPI    C3 2931   3.214   0.099  11.282 -0.1112  0.2157  0.0546
  184loPI   PO4 2932   3.604   0.589  11.115  0.3918 -0.2811 -0.0723
  184loPI   GL1 2933   3.787   0.707  10.727 -0.0523  0.1427 -0.1212
  184loPI   GL2 2934   3.699   0.987  10.656  0.3088  0.3261 -0.0006
  184loPI   C1A 2935   3.937   0.437  10.463  0.2690 -0.3554  0.0207
  184loPI   C2A 2936   3.930   0.495  10.010 -0.0484 -0.0944  0.2171
  184loPI   C3A 2937   4.012   0.512   9.605  0.0950 -0.2291 -0.1052
  184loPI   C4A 2938   3.829   0.487   9.191  0.0714  0.2117 -0.0540
  184loPI   C5A 2939   3.591   0.522   8.843 -0.1136  0.3010  0.1151
  184loPI   C6A 2940   3.458   0.904   8.643 -0.0329  0.0151 -0.0849
  184loPI   C1B 2941   3.965   0.934  10.273  0.1719  0.1815 -0.1458
  184loPI   C2B 2942   4.045   0.998   9.728  0.2039  0.3097  0.0215
  184loPI   C3B 2943   4.148   0.897   9.268  0.0246  0.3710 -0.0835
  184loPI   C4B 2944   4.243   0.694   8.873  0.2702  0.0268 -0.0312
  185loPI    C1 2945   8.424   6.307  10.713  0.1189 -0.0123 -0.1360
  185loPI    C2 2946   8.144   6.424  10.974  0.1880 -0.0901 -0.0266
  185loPI    C3 2947   8.531   6.487  11.053  0.2101 -0.1275 -0.1031
  185loPI   PO4 2948   8.244   6.324  10.492 -0.0673 -0.1599 -0.0244
  185loPI   GL1 2949   8.138   6.510  10.172  0.2159  0.0040  0.1659
  185loPI   GL2 2950   7.823   6.576  10.130  0.0103  0.2161  0.1559
  185loPI   C1A 2951   8.269   6.753   9.879  0.0933  0.1692  0.0993
  185loPI   C2A 2952   8.364   6.725   9.481 -0.0015  0.2763 -0.1871
  185loPI   C3A 2953   8.479   6.780   9.040 -0.3316  0.1888 -0.1188
  185loPI   C4A 2954   8.527   6.922   8.582 -0.1767  0.0254  0.2337
  185loPI   C5A 2955   8.861   7.046   8.348  0.1857 -0.2916 -0.2727
  185loPI   C6A 2956   9.215   7.128   8.102  0.0306  0.0917  0.0079
  185loPI   C1B 2957   7.820   6.775   9.791  0.2213  0.0957  0.0112
  185loPI   C2B 2958   7.901   6.827   9.391 -0.1899 -0.0603  0.0710
  185loPI   C3B 2959   7.881   6.930   8.921  0.3011  0.0365 -0.1850
  185loPI   C4B 2960   8.019   6.800   8.472  0.0121 -0.0307 -0.4069
  186loPI    C1 2961   0.790  17.718  11.260  0.0729  0.2353 -0.1994
  186loPI    C2 2962   1.125  17.643  11.465 -0.0765  0.1583  0.0204
  186loPI    C3 2963   0.933  17.990  11.517 -0.1062  0.1449 -0.0009
  186loPI   PO4 2964   0.863  17.672  11.083  0.2743  0.2676  0.0513
  186loPI   GL1 2965   0.742  17.769  10.710 -0.1140 -0.2403  0.2191
  186loPI   GL2 2966   1.068  17.689  10.545 -0.0538 -0.3246 -0.0354
  186loPI   C1A 2967   0.578  17.759  10.275  0.5022 -0.1488 -0.1249
  186loPI   C2A 2968   0.606  17.638   9.851 -0.0450 -0.0567  0.1353
  186loPI   C3A 2969   0.681  17.731   9.372  0.0567  0.4289 -0.0715
  186loPI   C4A 2970   0.729  17.660   8.947 -0.1951 -0.3509  0.2279
  186loPI   C5A 2971   0.655  17.538   8.443  0.0110  0.0819  0.0834
  186loPI   C6A 2972   0.621  17.753   8.087 -0.1192 -0.0877 -0.0478
  186loPI   C1B 2973   1.069  17.754  10.123  0.1060  0.0664 -0.0269
  186loPI   C2B 2974   1.208  17.622   9.727  0.1722 -0.0089  0.2150
  186loPI   C3B 2975   1.150  17.567   9.244 -0.0692 -0.2982  0.0400
  186loPI   C4B 2976   1.219  17.508   8.736  0.1203  0.3146  0.1470
  187loPI    C1 2977   7.234   7.964  11.010 -0.2111  0.0471  0.0466
  187loPI    C2 2978   7.151   8.351  10.952 -0.4508  0.0100  0.1315
  187loPI    C3 2979   7.088   8.185  11.310 -0.3471 -0.1076  0.0958
  187loPI   PO4 2980   7.237   7.859  10.732  0.0157 -0.0331  0.1251
  187loPI   GL1 2981   7.238   7.818  10.298 -0.1001 -0.2001 -0.1947
  187loPI   GL2 2982   7.395   8.041  10.137  0.1724 -0.2139 -0.0099
  187loPI   C1A 2983   7.166   7.737   9.846  0.0253 -0.2986 -0.0042
  187loPI   C2A 2984   7.354   7.725   9.483 -0.4108 -0.1034  0.0039
  187loPI   C3A 2985   7.461   7.786   9.125 -0.0519  0.3074  0.2207
  187loPI   C4A 2986   7.296   7.805   8.667  0.0619 -0.2379  0.2107
  187loPI   C5A 2987   7.384   7.853   8.259  0.0390  0.0044  0.4573
  187loPI   C6A 2988   7.532   7.646   8.019  0.0532 -0.2607 -0.0975
  187loPI   C1B 2989   7.662   8.082   9.846  0.1362 -0.2358  0.1152
  187loPI   C2B 2990   7.663   8.125   9.379  0.2898  0.0755 -0.0642
  187loPI   C3B 2991   7.767   8.200   9.009  0.1313  0.1628  0.1047
  187loPI   C4B 2992   7.468   8.248   8.600 -0.1767 -0.0411  0.0209
  188loPI    C1 2993  13.025   9.532  10.828 -0.2252 -0.0174  0.1000
  188loPI    C2 2994  13.127   9.660  11.193  0.0095 -0.0596  0.0504
  188loPI    C3 2995  13.056   9.272  11.131 -0.0917 -0.0434  0.0647
  188loPI   PO4 2996  13.183   9.658  10.675 -0.2250 -0.1362 -0.0750
  188loPI   GL1 2997  13.434   9.843  10.384 -0.1232 -0.0186  0.1893
  188loPI   GL2 2998  13.590  10.029  10.241 -0.0169  0.0617  0.1319
  188loPI   C1A 2999  13.354   9.600  10.043 -0.3071 -0.0047  0.0668
  188loPI   C2A 3000  13.202   9.592   9.592 -0.0454  0.0124 -0.1077
  188loPI   C3A 3001  13.092   9.576   9.160 -0.0686 -0.4453 -0.3419
  188loPI   C4A 3002  12.849   9.483   8.755 -0.1970  0.0115  0.1687
  188loPI   C5A 3003  12.830   9.595   8.338  0.2337 -0.0998  0.1715
  188loPI   C6A 3004  12.735   9.362   8.002  0.1613 -0.0441 -0.0072
  188loPI   C1B 3005  13.445  10.094   9.861  0.2007  0.2724 -0.2704
  188loPI   C2B 3006  13.403  10.107   9.416 -0.2918 -0.0073  0.0103
  188loPI   C3B 3007  13.393   9.932   8.967 -0.0359 -0.0225 -0.1623
  188loPI   C4B 3008  13.607   9.805   8.618  0.1075  0.4501  0.0394
  189loPI    C1 3009  10.051   7.205  10.900 -0.1240 -0.0345 -0.2467
  189loPI    C2 3010   9.914   6.835  10.834  0.1128 -0.1796  0.0528
  189loPI    C3 3011   9.967   6.965  11.209  0.1611  0.1105 -0.0523
  189loPI   PO4 3012  10.167   7.201  10.646  0.1218 -0.1666 -0.2361
  189loPI   GL1 3013  10.105   7.271  10.229  0.0484  0.0836 -0.1071
  189loPI   GL2 3014   9.843   7.179  10.056 -0.0450  0.0101 -0.2906
  189loPI   C1A 3015  10.328   7.315   9.793  0.0075 -0.2393  0.0436
  189loPI   C2A 3016  10.346   7.472   9.311  0.1335  0.1589  0.1254
  189loPI   C3A 3017  10.254   7.413   8.841  0.1026  0.0028  0.0218
  189loPI   C4A 3018  10.360   7.129   8.488  0.2484 -0.0390 -0.0455
  189loPI   C5A 3019  10.688   6.811   8.366 -0.2873 -0.0075  0.1244
  189loPI   C6A 3020  11.011   6.557   8.487  0.1847  0.0053  0.0201
  189loPI   C1B 3021   9.579   7.391   9.723  0.0609  0.4447 -0.1287
  189loPI   C2B 3022   9.215   7.306   9.350 -0.0054 -0.0236  0.0978
  189loPI   C3B 3023   9.217   7.313   9.020 -0.0916 -0.0445 -0.2041
  189loPI   C4B 3024   9.260   7.490   8.549 -0.1913 -0.0861  0.3449
  190loPI    C1 3025  15.086  16.941  11.099 -0.1958 -0.1177  0.0311
  190loPI    C2 3026  14.917  17.110  11.419 -0.0462  0.0552  0.0203
  190loPI    C3 3027  14.690  16.992  11.112 -0.1643  0.1236  0.0804
  190loPI   PO4 3028  15.173  17.068  10.926  0.0924 -0.0275 -0.0934
  190loPI   GL1 3029  15.029  16.886  10.494 -0.0793 -0.1373 -0.1680
  190loPI   GL2 3030  15.053  16.495  10.395 -0.1670 -0.1732  0.4192
  190loPI   C1A 3031  15.030  16.885   9.990 -0.0132 -0.0874 -0.1054
  190loPI   C2A 3032  15.020  16.818   9.552 -0.2412 -0.0447  0.1819
  190loPI   C3A 3033  15.251  16.896   9.121 -0.1176 -0.0525 -0.2928
  190loPI   C4A 3034  15.280  16.820   8.661  0.0778 -0.1440 -0.1856
  190loPI   C5A 3035  15.447  17.119   8.320  0.1982  0.2649  0.0628
  190loPI   C6A 3036  15.698  17.412   8.235  0.0001  0.1048  0.1531
  190loPI   C1B 3037  15.172  16.411   9.937  0.3320  0.1041  0.1727
  190loPI   C2B 3038  15.270  16.375   9.504  0.2250 -0.5452 -0.1241
  190loPI   C3B 3039  15.420  16.356   9.128  0.0097  0.2168 -0.4446
  190loPI   C4B 3040  15.486  16.367   8.758  0.3942 -0.3520  0.0608
  191loPI    C1 3041   9.805  17.654  11.023 -0.0976  0.0871 -0.1084
  191loPI    C2 3042   9.952  18.020  11.089 -0.1129  0.0958 -0.1231
  191loPI    C3 3043   9.721  17.845  11.364  0.0692  0.0098 -0.0230
  191loPI   PO4 3044   9.972  17.531  10.952  0.0848 -0.1517  0.1988
  191loPI   GL1 3045  10.099  17.419  10.524 -0.3052  0.0575 -0.0679
  191loPI   GL2 3046   9.769  17.378  10.457 -0.0481 -0.2054  0.0642
  191loPI   C1A 3047  10.046  17.503  10.047  0.0816 -0.1021 -0.2077
  191loPI   C2A 3048   9.850  17.764   9.699  0.1018 -0.0997  0.2298
  191loPI   C3A 3049   9.813  17.695   9.209  0.1604  0.1501 -0.0168
  191loPI   C4A 3050   9.821  17.657   8.799 -0.0782  0.0826 -0.1086
  191loPI   C5A 3051   9.899  17.429   8.519  0.2187 -0.0234  0.0525
  191loPI   C6A 3052  10.160  17.364   8.127 -0.1035 -0.0824 -0.1231
  191loPI   C1B 3053   9.833  17.059  10.147 -0.2031  0.0963 -0.3256
  191loPI   C2B 3054   9.710  16.715   9.819  0.2835  0.1760  0.0412
  191loPI   C3B 3055   9.627  16.627   9.413 -0.0262 -0.0275 -0.1755
  191loPI   C4B 3056   9.628  16.620   8.946  0.0191  0.0638  0.0681
  192loPI    C1 3057  15.511  10.915  10.830  0.0230 -0.1413 -0.0960
  192loPI    C2 3058  15.808  10.857  11.092 -0.0432 -0.0819 -0.0074
  192loPI    C3 3059  15.458  10.670  11.141  0.0106 -0.2258 -0.1644
  192loPI   PO4 3060  15.620  10.977  10.636 -0.0614  0.0085 -0.2516
  192loPI   GL1 3061  15.603  11.278  10.294  0.1239  0.3219 -0.3681
  192loPI   GL2 3062  15.871  11.487  10.361 -0.2435 -0.2847 -0.1153
  192loPI   C1A 3063  15.586  11.019   9.928  0.2405  0.1928  0.0466
  192loPI   C2A 3064  15.699  10.922   9.616 -0.0742 -0.3713  0.3000
  192loPI   C3A 3065  15.718  11.004   9.197 -0.1154 -0.0240  0.0398
  192loPI   C4A 3066  15.930  11.074   8.916 -0.1147  0.2247 -0.1781
  192loPI   C5A 3067  15.999  11.185   8.524 -0.1421  0.2398 -0.0450
  192loPI   C6A 3068  16.255  11.291   8.187  0.3377  0.0041 -0.0817
  192loPI   C1B 3069  15.763  11.744   9.961 -0.2198  0.0767  0.0195
  192loPI   C2B 3070  15.803  11.999   9.468  0.2406  0.3195  0.0696
  192loPI   C3B 3071  15.455  12.012   9.150 -0.1607 -0.0220  0.1438
  192loPI   C4B 3072  15.271  11.807   8.718  0.0631  0.1370  0.2734
  193loPI    C1 3073   8.664  13.373  10.538 -0.0114 -0.2579 -0.0453
  193loPI    C2 3074   8.883  13.243  10.847  0.1051 -0.0614 -0.0432
  193loPI    C3 3075   9.064  13.365  10.512 -0.0075 -0.0080 -0.0850
  193loPI   PO4 3076   8.429  13.256  10.501  0.1138  0.0921  0.0900
  193loPI   GL1 3077   8.211  13.317  10.104 -0.1782  0.2115  0.0744
  193loPI   GL2 3078   8.388  13.642  10.119 -0.2178  0.3055  0.2060
  193loPI   C1A 3079   7.986  13.222   9.766 -0.2358 -0.1302 -0.2343
  193loPI   C2A 3080   7.746  13.071   9.307 -0.2216  0.1463 -0.1307
  193loPI   C3A 3081   7.515  13.119   8.966  0.0373 -0.0022 -0.2109
  193loPI   C4A 3082   7.261  13.508   8.748  0.2010  0.3590 -0.0104
  193loPI   C5A 3083   7.031  13.735   8.500 -0.1124  0.0297 -0.0148
  193loPI   C6A 3084   6.705  13.738   8.127  0.0516 -0.1194  0.0504
  193loPI   C1B 3085   8.517  13.946   9.778 -0.0247 -0.1770  0.0473
  193loPI   C2B 3086   8.874  13.861   9.503  0.3060 -0.2482 -0.1586
  193loPI   C3B 3087   9.214  13.782   9.163  0.0230 -0.1791  0.0464
  193loPI   C4B 3088   9.443  13.463   9.327  0.1028 -0.1324  0.1588
  194loPI    C1 3089  14.572   9.569  10.740 -0.0480  0.0121  0.0825
  194loPI    C2 3090  14.838   9.278  10.807 -0.1293 -0.0130  0.3068
  194loPI    C3 3091  14.962   9.654  10.751 -0.0093 -0.1191 -0.1938
  194loPI   PO4 3092  14.325   9.435  10.576 -0.0574 -0.1466  0.2942
  194loPI   GL1 3093  14.306   9.557  10.147  0.1459  0.1548  0.0595
  194loPI   GL2 3094  14.424   9.263   9.962  0.1945  0.0378  0.3187
  194loPI   C1A 3095  14.268   9.765   9.683 -0.1184 -0.2554  0.0293
  194loPI   C2A 3096  14.295   9.798   9.268 -0.0598 -0.0731  0.1419
  194loPI   C3A 3097  14.280   9.690   8.877 -0.0134 -0.2227  0.0539
  194loPI   C4A 3098  14.096   9.759   8.481  0.1367  0.2090 -0.3272
  194loPI   C5A 3099  13.865   9.726   8.128 -0.2300 -0.0342  0.0809
  194loPI   C6A 3100  13.681   9.416   7.999  0.1832 -0.2683  0.2360
  194loPI   C1B 3101  14.214   9.265   9.581  0.1748  0.1481 -0.0030
  194loPI   C2B 3102  14.196   9.280   9.163  0.1785 -0.0221  0.0185
  194loPI   C3B 3103  14.076   9.071   8.861 -0.2934  0.0921 -0.1214
  194loPI   C4B 3104  14.020   8.811   8.426 -0.0585 -0.0236  0.1839
  195loPI    C1 3105   3.189  17.794  10.865 -0.0491 -0.1095 -0.0449
  195loPI    C2 3106   3.420  17.501  10.719 -0.1807 -0.1605 -0.1527
  195loPI    C3 3107   3.380  17.844  10.517 -0.0042 -0.0559 -0.0125
  195loPI   PO4 3108   2.952  17.573  11.003 -0.1835  0.1121  0.1239
  195loPI   GL1 3109   2.960  17.254  10.744  0.1048  0.0462 -0.0235
  195loPI   GL2 3110   2.733  17.025  10.617 -0.0016 -0.1923 -0.0736
  195loPI   C1A 3111   3.103  17.250  10.324  0.1437  0.0080 -0.5561
  195loPI   C2A 3112   3.119  17.284   9.968 -0.1683 -0.0120  0.2159
  195loPI   C3A 3113   3.225  17.238   9.496 -0.0779  0.0051 -0.0945
  195loPI   C4A 3114   3.247  17.183   9.087  0.0466 -0.0186 -0.0164
  195loPI   C5A 3115   3.179  17.087   8.635 -0.1714 -0.3363  0.2786
  195loPI   C6A 3116   3.289  16.691   8.432 -0.1227 -0.0339 -0.0449
  195loPI   C1B 3117   2.747  16.832  10.193 -0.1965  0.1514  0.2409
  195loPI   C2B 3118   2.817  16.847   9.727 -0.1283 -0.1876  0.3246
  195loPI   C3B 3119   2.892  16.851   9.315 -0.1049  0.0172 -0.3394
  195loPI   C4B 3120   2.902  16.803   8.989 -0.0808 -0.2579  0.1170
  196loPI    C1 3121  14.188  14.031  11.453 -0.0216  0.2051 -0.2295
  196loPI    C2 3122  13.789  14.065  11.444 -0.0443  0.0260  0.0078
  196loPI    C3 3123  14.003  14.288  11.698 -0.0035  0.0283 -0.0283
  196loPI   PO4 3124  14.339  14.120  11.232  0.2295 -0.1728  0.0125
  196loPI   GL1 3125  14.348  14.281  10.824  0.2202  0.1757 -0.1333
  196loPI   GL2 3126  14.229  14.620  10.691 -0.4983  0.2892 -0.0535
  196loPI   C1A 3127  14.608  14.356  10.469  0.0113  0.0765  0.1760
  196loPI   C2A 3128  14.677  14.288  10.067  0.1381  0.3358  0.0508
  196loPI   C3A 3129  14.712  14.178   9.651  0.2507  0.2571  0.1832
  196loPI   C4A 3130  14.700  14.138   9.173 -0.0983 -0.2460  0.1162
  196loPI   C5A 3131  14.806  14.075   8.842  0.4168  0.0951  0.2474
  196loPI   C6A 3132  14.866  14.149   8.446  0.0501 -0.0802  0.0819
  196loPI   C1B 3133  14.053  14.812  10.333 -0.0841 -0.0011 -0.3036
  196loPI   C2B 3134  14.033  14.808   9.845 -0.1080  0.0765  0.0290
  196loPI   C3B 3135  13.941  14.912   9.486 -0.2514  0.0713  0.2097
  196loPI   C4B 3136  14.066  14.721   9.101  0.2509 -0.0241 -0.0633
  197loPI    C1 3137  13.553  13.701  11.223 -0.1895  0.0707  0.0939
  197loPI    C2 3138  13.658  13.323  11.301  0.1263  0.0836 -0.2385
  197loPI    C3 3139  13.646  13.592  11.596 -0.0329 -0.1665 -0.0117
  197loPI   PO4 3140  13.527  13.657  10.954  0.1548 -0.1573 -0.0506
  197loPI   GL1 3141  13.880  13.471  10.717  0.1208 -0.1581 -0.0894
  197loPI   GL2 3142  13.967  13.184  10.476  0.0352  0.1948  0.0786
  197loPI   C1A 3143  13.952  13.675  10.296 -0.1261 -0.0584  0.2179
  197loPI   C2A 3144  13.993  13.397   9.879 -0.0728  0.1045 -0.0849
  197loPI   C3A 3145  14.066  13.279   9.362  0.2560 -0.5250 -0.2106
  197loPI   C4A 3146  14.129  13.260   8.938 -0.0319  0.0392  0.1143
  197loPI   C5A 3147  14.178  13.365   8.456 -0.2199 -0.1456 -0.0721
  197loPI   C6A 3148  14.215  13.137   8.073  0.2022 -0.1423  0.1008
  197loPI   C1B 3149  14.248  12.955  10.276 -0.0890  0.3018  0.0691
  197loPI   C2B 3150  14.227  12.897   9.791  0.0349  0.0364 -0.2584
  197loPI   C3B 3151  14.231  12.842   9.397  0.1596  0.0900  0.0597
  197loPI   C4B 3152  14.343  12.754   9.005  0.1879  0.0922  0.0857
  198loPI    C1 3153  11.222  12.515  10.733 -0.0224 -0.0021  0.1955
  198loPI    C2 3154  11.436  12.841  10.820 -0.0244 -0.0184  0.2608
  198loPI    C3 3155  11.039  12.867  10.782 -0.0115  0.0111  0.1424
  198loPI   PO4 3156  11.447  12.343  10.634  0.1409 -0.1050 -0.0405
  198loPI   GL1 3157  11.819  12.269  10.344  0.0535 -0.0187 -0.2311
  198loPI   GL2 3158  12.084  12.356  10.310  0.1911  0.0575  0.1763
  198loPI   C1A 3159  11.705  12.196   9.940 -0.2697  0.1305 -0.0120
  198loPI   C2A 3160  11.705  12.012   9.594 -0.2205 -0.2744 -0.1173
  198loPI   C3A 3161  11.734  12.047   9.138  0.2862  0.2880 -0.1908
  198loPI   C4A 3162  11.670  12.044   8.742 -0.1310  0.0728  0.1280
  198loPI   C5A 3163  11.536  11.831   8.299 -0.1231  0.3534  0.3435
  198loPI   C6A 3164  11.428  11.686   8.015 -0.1030  0.3411  0.2455
  198loPI   C1B 3165  12.180  12.111   9.869 -0.0052  0.0600 -0.0846
  198loPI   C2B 3166  12.241  12.125   9.466  0.0238 -0.3921  0.2813
  198loPI   C3B 3167  12.256  12.106   9.045  0.1925  0.0966 -0.4506
  198loPI   C4B 3168  12.279  12.065   8.617  0.0281 -0.2478  0.0517
  199loPI    C1 3169  10.258  16.588  11.171  0.1616  0.0929 -0.0752
  199loPI    C2 3170  10.133  16.485  11.537  0.0870  0.0386 -0.1155
  199loPI    C3 3171  10.486  16.354  11.401  0.0337 -0.0893 -0.1314
  199loPI   PO4 3172  10.033  16.495  10.940 -0.0479  0.0849  0.2036
  199loPI   GL1 3173  10.152  16.323  10.619  0.1223 -0.2014  0.1323
  199loPI   GL2 3174  10.002  16.024  10.480 -0.0366 -0.0422  0.2837
  199loPI   C1A 3175  10.361  16.267  10.259 -0.1530 -0.1900 -0.3017
  199loPI   C2A 3176  10.428  16.041   9.911 -0.3004  0.1235 -0.0416
  199loPI   C3A 3177  10.217  15.720   9.646 -0.0620  0.5600 -0.2370
  199loPI   C4A 3178  10.189  15.456   9.269 -0.2910  0.1268 -0.0748
  199loPI   C5A 3179  10.480  15.168   9.092  0.0412  0.2524 -0.1667
  199loPI   C6A 3180  10.733  14.863   8.846 -0.0782  0.0640 -0.1831
  199loPI   C1B 3181  10.162  15.778  10.182  0.0374  0.0406 -0.1499
  199loPI   C2B 3182  10.258  15.357  10.043 -0.0950  0.0029  0.0557
  199loPI   C3B 3183  10.415  15.187   9.685  0.1067 -0.1629 -0.3669
  199loPI   C4B 3184  10.612  14.802   9.478 -0.1791 -0.0118  0.2711
  200loPI    C1 3185   7.081  13.653  11.100 -0.0294 -0.1686 -0.1050
  200loPI    C2 3186   7.423  13.486  11.222  0.0648 -0.0538 -0.2094
  200loPI    C3 3187   7.078  13.289  11.267  0.1435 -0.1688 -0.1005
  200loPI   PO4 3188   7.149  13.806  10.837 -0.0551 -0.0253 -0.1709
  200loPI   GL1 3189   7.001  13.706  10.441  0.3528  0.0282  0.1912
  200loPI   GL2 3190   6.873  14.036  10.387 -0.2303  0.0808  0.1122
  200loPI   C1A 3191   7.096  13.539  10.024  0.0844 -0.1199  0.1689
  200loPI   C2A 3192   7.088  13.512   9.539  0.2401  0.0062  0.2436
  200loPI   C3A 3193   7.319  13.774   9.173 -0.3193  0.0848  0.0058
  200loPI   C4A 3194   7.288  13.987   8.854 -0.0288  0.1090 -0.0872
  200loPI   C5A 3195   7.384  14.145   8.461 -0.1422  0.0468 -0.0887
  200loPI   C6A 3196   7.484  14.415   8.178 -0.0613  0.0091 -0.0012
  200loPI   C1B 3197   6.941  13.981   9.985 -0.0061  0.0938  0.1700
  200loPI   C2B 3198   6.942  13.999   9.532  0.2797 -0.1809 -0.1675
  200loPI   C3B 3199   6.838  13.960   9.097 -0.2074 -0.1096 -0.1551
  200loPI   C4B 3200   6.636  14.082   8.561 -0.1510 -0.0877  0.0637
  201loPI    C1 3201   6.914   1.482  11.009  0.1333  0.1212  0.0700
  201loPI    C2 3202   6.756   1.538  11.372  0.2970  0.1600  0.1361
  201loPI    C3 3203   6.979   1.214  11.299 -0.0439 -0.0408 -0.0374
  201loPI   PO4 3204   6.669   1.564  10.754 -0.0392 -0.1089 -0.0677
  201loPI   GL1 3205   6.634   1.675  10.241  0.0104  0.1077 -0.3662
  201loPI   GL2 3206   6.550   2.000  10.389 -0.1167  0.1107 -0.2164
  201loPI   C1A 3207   6.946   1.622   9.948  0.3000 -0.2189 -0.0380
  201loPI   C2A 3208   7.159   1.625   9.591 -0.3819  0.0720 -0.1206
  201loPI   C3A 3209   7.101   1.723   9.125 -0.1807  0.1876 -0.1660
  201loPI   C4A 3210   7.012   1.732   8.755  0.2414 -0.2406  0.1057
  201loPI   C5A 3211   6.703   1.653   8.391  0.2362  0.0602  0.0869
  201loPI   C6A 3212   6.324   1.428   8.420  0.0191  0.0177 -0.0223
  201loPI   C1B 3213   6.678   2.009   9.852  0.1100 -0.0823  0.0056
  201loPI   C2B 3214   6.814   1.978   9.463  0.1617 -0.0985 -0.1203
  201loPI   C3B 3215   6.670   2.082   9.015 -0.2217 -0.1741  0.0495
  201loPI   C4B 3216   6.388   1.973   8.620 -0.1247  0.1238 -0.1885
  202loPI    C1 3217   1.018  15.381  10.793  0.1999 -0.0337  0.0017
  202loPI    C2 3218   1.254  15.344  11.113 -0.1425 -0.1484  0.2466
  202loPI    C3 3219   0.954  15.608  11.116 -0.0179  0.0010 -0.0641
  202loPI   PO4 3220   1.164  15.427  10.578  0.3320  0.1980 -0.0441
  202loPI   GL1 3221   1.199  15.267  10.253 -0.2351  0.0742  0.3129
  202loPI   GL2 3222   1.141  14.997  10.144 -0.0397 -0.0806 -0.2110
  202loPI   C1A 3223   1.104  15.375   9.783 -0.1031 -0.1204 -0.2926
  202loPI   C2A 3224   1.062  15.472   9.398  0.3829 -0.1951  0.1378
  202loPI   C3A 3225   1.097  15.379   8.909 -0.1054  0.0505 -0.2258
  202loPI   C4A 3226   1.088  15.643   8.549  0.2273 -0.0229 -0.1027
  202loPI   C5A 3227   0.946  15.902   8.234 -0.1730 -0.2309 -0.0130
  202loPI   C6A 3228   0.808  16.214   8.034  0.3892 -0.0216 -0.2277
  202loPI   C1B 3229   1.177  14.918   9.707  0.1017  0.3227  0.1155
  202loPI   C2B 3230   1.324  14.936   9.219  0.0038 -0.1868  0.0024
  202loPI   C3B 3231   1.350  14.924   8.812 -0.0006 -0.0104 -0.1235
  202loPI   C4B 3232   1.303  14.786   8.398 -0.0303  0.0752  0.1622
  203loPI    C1 3233   1.962   8.516  10.732 -0.1614 -0.1058  0.1586
  203loPI    C2 3234   2.086   8.136  10.739  0.2413  0.0107 -0.1678
  203loPI    C3 3235   2.339   8.431  10.835 -0.0165  0.2112 -0.0900
  203loPI   PO4 3236   1.891   8.542  10.464 -0.0069  0.1449  0.4775
  203loPI   GL1 3237   1.955   8.702  10.096 -0.0553  0.1257 -0.3050
  203loPI   GL2 3238   1.618   8.597   9.996  0.0101  0.1991 -0.0086
  203loPI   C1A 3239   1.747   8.988   9.744 -0.0944  0.0928 -0.1144
  203loPI   C2A 3240   1.608   9.075   9.283  0.0536  0.3035 -0.1345
  203loPI   C3A 3241   1.598   9.028   8.896 -0.1958  0.1552  0.1148
  203loPI   C4A 3242   1.619   9.116   8.455 -0.0791  0.1256  0.0886
  203loPI   C5A 3243   1.663   9.476   8.182 -0.3903  0.1339  0.1528
  203loPI   C6A 3244   1.822   9.918   8.126 -0.3277 -0.2319  0.0880
  203loPI   C1B 3245   1.437   8.667   9.570 -0.1517 -0.1458 -0.0004
  203loPI   C2B 3246   1.479   8.569   9.182 -0.2725 -0.0810  0.0761
  203loPI   C3B 3247   1.428   8.650   8.670  0.0368  0.2689  0.2101
  203loPI   C4B 3248   1.292   8.842   8.270  0.1989 -0.1397 -0.2044
  204loPI    C1 3249  11.674  10.657  10.814 -0.0901  0.0517  0.0392
  204loPI    C2 3250  11.328  10.738  10.999 -0.1632 -0.0498 -0.0511
  204loPI    C3 3251  11.433  10.359  10.928 -0.0285 -0.0196 -0.0165
  204loPI   PO4 3252  11.731  10.845  10.674 -0.0063  0.1339 -0.1412
  204loPI   GL1 3253  11.959  10.935  10.454  0.0904  0.2915 -0.2660
  204loPI   GL2 3254  11.795  11.257  10.451 -0.0113  0.1941 -0.1898
  204loPI   C1A 3255  11.810  10.817  10.000  0.0366  0.3219  0.0223
  204loPI   C2A 3256  11.607  10.692   9.714 -0.0695 -0.1701 -0.0033
  204loPI   C3A 3257  11.655  10.653   9.319 -0.0919 -0.2334  0.0362
  204loPI   C4A 3258  11.676  10.658   8.912  0.1348 -0.0643 -0.3923
  204loPI   C5A 3259  11.749  10.730   8.432 -0.1478 -0.0461 -0.3030
  204loPI   C6A 3260  11.796  10.756   7.965  0.0062 -0.0130 -0.0844
  204loPI   C1B 3261  11.775  11.337  10.088 -0.0326 -0.0925  0.2181
  204loPI   C2B 3262  11.853  11.151   9.669  0.0385 -0.0891 -0.2381
  204loPI   C3B 3263  11.838  11.096   9.248 -0.0929  0.1620 -0.0492
  204loPI   C4B 3264  11.919  11.154   8.829  0.2058 -0.1524 -0.1002
  205loPI    C1 3265   2.453   7.648  10.346  0.5394 -0.0808 -0.2100
  205loPI    C2 3266   2.385   7.731  10.732 -0.0416 -0.3258 -0.2498
  205loPI    C3 3267   2.752   7.629  10.611  0.1633 -0.1716  0.2203
  205loPI   PO4 3268   2.161   7.816  10.284  0.2523  0.2702  0.2823
  205loPI   GL1 3269   2.013   7.877   9.877  0.0967  0.1648  0.2915
  205loPI   GL2 3270   2.142   8.240  10.048 -0.1521  0.2048  0.1036
  205loPI   C1A 3271   2.203   7.968   9.573 -0.1055 -0.0391 -0.1905
  205loPI   C2A 3272   2.286   8.166   9.204 -0.1255  0.0348 -0.2217
  205loPI   C3A 3273   2.359   8.384   8.910  0.0257 -0.2697  0.1334
  205loPI   C4A 3274   2.307   8.279   8.481  0.2607 -0.0250 -0.1014
  205loPI   C5A 3275   2.013   7.919   8.327 -0.1632  0.0754  0.0865
  205loPI   C6A 3276   2.156   7.674   8.024  0.0249  0.0157 -0.1550
  205loPI   C1B 3277   2.167   8.487   9.651 -0.3381 -0.0386  0.0656
  205loPI   C2B 3278   2.015   8.713   9.256  0.0670  0.3329 -0.0535
  205loPI   C3B 3279   1.949   8.700   8.863  0.0682  0.1684  0.5128
  205loPI   C4B 3280   2.039   8.696   8.404  0.2693 -0.4165  0.1270
  206loPI    C1 3281  10.854  13.377  11.290  0.0200 -0.0797 -0.0947
  206loPI    C2 3282  10.852  12.986  11.205  0.0909 -0.1125  0.0514
  206loPI    C3 3283  11.185  13.201  11.152 -0.0463  0.0061 -0.3697
  206loPI   PO4 3284  10.620  13.446  11.085 -0.1674  0.2790  0.0534
  206loPI   GL1 3285  10.652  13.693  10.649 -0.1113  0.2941 -0.2235
  206loPI   GL2 3286  10.890  13.333  10.610 -0.0202  0.0590 -0.0064
  206loPI   C1A 3287  10.532  13.858  10.143 -0.2198 -0.0307 -0.0368
  206loPI   C2A 3288  10.678  14.001   9.724  0.1954 -0.1060 -0.0959
  206loPI   C3A 3289  10.782  13.868   9.271 -0.0133 -0.0313 -0.3113
  206loPI   C4A 3290  10.786  13.734   8.809  0.1271 -0.1308  0.1132
  206loPI   C5A 3291  10.729  14.008   8.456 -0.1549 -0.2522  0.0134
  206loPI   C6A 3292  10.880  14.191   8.102 -0.1180  0.0089  0.0240
  206loPI   C1B 3293  10.618  13.275  10.259  0.1067 -0.1355 -0.1304
  206loPI   C2B 3294  10.342  13.332   9.958  0.0209  0.0117 -0.0173
  206loPI   C3B 3295  10.413  13.450   9.516 -0.0228 -0.0082 -0.2806
  206loPI   C4B 3296  10.452  13.365   9.149  0.0792 -0.0725  0.0650
  207loPI    C1 3297   9.773   5.950  11.041  0.1348  0.0201 -0.0096
  207loPI    C2 3298   9.849   5.649  11.294  0.0814  0.0620  0.0561
  207loPI    C3 3299   9.984   6.017  11.374 -0.1690  0.1326  0.1632
  207loPI   PO4 3300   9.824   5.802  10.818 -0.0014  0.0110  0.1265
  207loPI   GL1 3301   9.742   5.726  10.424  0.2622 -0.2199 -0.0430
  207loPI   GL2 3302   9.609   5.819  10.179 -0.2590 -0.0523 -0.2485
  207loPI   C1A 3303   9.982   5.524  10.170 -0.1578 -0.1381  0.1166
  207loPI   C2A 3304   9.973   5.499   9.700  0.2564  0.1072 -0.1661
  207loPI   C3A 3305   9.925   5.532   9.286 -0.1368  0.0856 -0.0840
  207loPI   C4A 3306  10.000   5.493   8.839  0.0567  0.0976 -0.3346
  207loPI   C5A 3307  10.040   5.222   8.509  0.0333  0.1106  0.1307
  207loPI   C6A 3308  10.298   5.170   8.108 -0.1096 -0.0271 -0.2182
  207loPI   C1B 3309   9.494   5.546   9.870  0.1957  0.0374 -0.2441
  207loPI   C2B 3310   9.439   5.495   9.408 -0.0312  0.0949 -0.1115
  207loPI   C3B 3311   9.415   5.592   9.003 -0.2116 -0.1062 -0.1420
  207loPI   C4B 3312   9.588   5.498   8.585 -0.0099  0.1256  0.1853
  208loPI    C1 3313   3.408   2.375  10.878  0.1081  0.1841  0.0517
  208loPI    C2 3314   3.439   2.772  10.839 -0.0525  0.1931  0.0068
  208loPI    C3 3315   3.374   2.611  11.199 -0.1153  0.2162  0.0059
  208loPI   PO4 3316   3.588   2.275  10.637  0.0489  0.2420 -0.3065
  208loPI   GL1 3317   3.855   2.248  10.205 -0.1110  0.0760 -0.1229
  208loPI   GL2 3318   3.488   2.185  10.135  0.1615 -0.0451  0.2743
  208loPI   C1A 3319   3.963   2.379   9.761  0.3596 -0.1046 -0.1819
  208loPI   C2A 3320   3.867   2.313   9.322 -0.1010 -0.1079 -0.4174
  208loPI   C3A 3321   3.749   2.151   8.908 -0.2363  0.1593  0.3095
  208loPI   C4A 3322   3.631   1.898   8.526 -0.2290  0.2383 -0.0599
  208loPI   C5A 3323   3.541   2.111   8.122 -0.1403 -0.3491  0.0133
  208loPI   C6A 3324   3.080   2.243   8.018 -0.3497 -0.3433 -0.0353
  208loPI   C1B 3325   3.680   2.019   9.690 -0.1796 -0.0620  0.0563
  208loPI   C2B 3326   3.573   1.826   9.343 -0.1279 -0.0365 -0.1645
  208loPI   C3B 3327   3.783   1.634   9.028 -0.0714  0.2221 -0.0893
  208loPI   C4B 3328   3.621   1.419   8.574 -0.0506  0.2703 -0.2987
  209loPI    C1 3329  11.221  16.951  11.147 -0.1332 -0.0066 -0.0868
  209loPI    C2 3330  11.586  16.988  11.306 -0.0373 -0.1873 -0.2598
  209loPI    C3 3331  11.283  16.854  11.530  0.0388 -0.1943 -0.1600
  209loPI   PO4 3332  11.264  16.818  10.924 -0.0595  0.0169 -0.2565
  209loPI   GL1 3333  11.334  16.784  10.606 -0.2485 -0.1699  0.2629
  209loPI   GL2 3334  11.191  16.927  10.388  0.1430  0.0539  0.2390
  209loPI   C1A 3335  11.287  16.364  10.360  0.0934  0.0590  0.0255
  209loPI   C2A 3336  11.624  16.276  10.168  0.0291  0.0066  0.1294
  209loPI   C3A 3337  11.776  16.286   9.802 -0.1637  0.0144  0.5561
  209loPI   C4A 3338  11.801  16.324   9.378 -0.1402 -0.1384  0.0018
  209loPI   C5A 3339  11.748  16.094   9.023 -0.3239  0.1856  0.0809
  209loPI   C6A 3340  11.529  15.950   8.742 -0.2521  0.2044  0.0093
  209loPI   C1B 3341  11.308  16.766   9.993  0.2091  0.2239  0.1110
  209loPI   C2B 3342  11.381  16.566   9.514 -0.0071 -0.0446 -0.1355
  209loPI   C3B 3343  11.411  16.600   9.077  0.1071  0.0406  0.1287
  209loPI   C4B 3344  11.478  16.781   8.712 -0.2122 -0.1036 -0.0438
  210loPI    C1 3345   4.390  14.896  11.159 -0.0684  0.0129 -0.0398
  210loPI    C2 3346   4.206  14.674  11.436  0.0122  0.1320  0.1102
  210loPI    C3 3347   4.535  14.536  11.256 -0.0666  0.0351  0.0399
  210loPI   PO4 3348   4.205  15.027  11.095 -0.0293 -0.0055  0.0363
  210loPI   GL1 3349   3.930  14.949  10.713  0.1753 -0.0459  0.0579
  210loPI   GL2 3350   3.689  15.112  10.401  0.2684 -0.2336  0.0650
  210loPI   C1A 3351   4.138  14.902  10.310 -0.1647 -0.1092  0.1182
  210loPI   C2A 3352   4.137  14.839   9.861 -0.3410  0.0643  0.0843
  210loPI   C3A 3353   4.074  14.745   9.446  0.3693  0.2646 -0.1828
  210loPI   C4A 3354   4.022  14.673   9.012 -0.0504 -0.2046  0.1829
  210loPI   C5A 3355   4.136  14.545   8.558 -0.0858  0.0445  0.1327
  210loPI   C6A 3356   4.084  14.442   8.196  0.5029  0.2924  0.0169
  210loPI   C1B 3357   3.653  14.831  10.095  0.0547 -0.0990 -0.0675
  210loPI   C2B 3358   3.595  14.893   9.629 -0.0575 -0.2300 -0.0594
  210loPI   C3B 3359   3.554  14.849   9.227 -0.2577  0.0320  0.0835
  210loPI   C4B 3360   3.499  14.798   8.827 -0.2027  0.1680  0.1019
  211loPI    C1 3361   5.211  14.458  11.198  0.2363  0.3456 -0.0885
  211loPI    C2 3362   4.974  14.745  11.344 -0.0849 -0.0514  0.1940
  211loPI    C3 3363   4.988  14.387  11.522  0.3281 -0.2083 -0.1361
  211loPI   PO4 3364   5.166  14.448  10.852  0.0264  0.2428  0.2290
  211loPI   GL1 3365   5.304  14.350  10.411  0.0276 -0.3304 -0.0550
  211loPI   GL2 3366   5.227  14.109  10.201 -0.0065  0.2720 -0.1189
  211loPI   C1A 3367   5.119  14.598   9.989  0.2250 -0.0062 -0.0905
  211loPI   C2A 3368   5.078  14.622   9.487  0.3231  0.1262 -0.2699
  211loPI   C3A 3369   5.088  14.623   9.050  0.1147  0.4215 -0.0053
  211loPI   C4A 3370   5.335  14.786   8.709 -0.0188 -0.1599  0.3897
  211loPI   C5A 3371   5.625  15.046   8.436  0.0515  0.3240 -0.0560
  211loPI   C6A 3372   5.905  15.199   8.525 -0.1421 -0.1840  0.0334
  211loPI   C1B 3373   5.205  14.137   9.811  0.1231 -0.1363  0.1469
  211loPI   C2B 3374   5.298  14.188   9.339 -0.1262 -0.0571  0.0020
  211loPI   C3B 3375   5.283  14.047   8.897  0.0259 -0.0664 -0.0145
  211loPI   C4B 3376   4.866  13.930   8.713  0.0160 -0.1464  0.2491
  212loPI    C1 3377  16.281  10.170  10.815  0.0094  0.0821  0.0037
  212loPI    C2 3378  16.271   9.803  10.655 -0.0415  0.1472 -0.1444
  212loPI    C3 3379  15.934   9.972  10.791 -0.0205  0.1452 -0.0894
  212loPI   PO4 3380  16.370  10.342  10.616  0.0033  0.1073  0.0494
  212loPI   GL1 3381  16.020  10.352  10.273  0.4477 -0.2216 -0.0340
  212loPI   GL2 3382  16.040  10.199   9.937 -0.1793  0.2951 -0.1350
  212loPI   C1A 3383  16.038  10.700   9.978  0.3074 -0.0200 -0.1624
  212loPI   C2A 3384  16.232  10.890   9.642  0.2432  0.0848  0.0941
  212loPI   C3A 3385  16.128  11.195   9.372 -0.2149 -0.1378 -0.4035
  212loPI   C4A 3386  16.294  11.522   9.021  0.1460  0.3396  0.2722
  212loPI   C5A 3387  16.295  11.645   8.667  0.1870 -0.1042 -0.1324
  212loPI   C6A 3388  16.466  11.763   8.281  0.0383 -0.0519  0.0685
  212loPI   C1B 3389  15.998  10.453   9.535  0.2378  0.0395 -0.1538
  212loPI   C2B 3390  16.213  10.705   9.194  0.1733 -0.2412 -0.4583
  212loPI   C3B 3391  16.266  10.737   8.747 -0.3992 -0.0470 -0.2446
  212loPI   C4B 3392  16.299  10.387   8.414 -0.1084  0.0125  0.0287
  213loPI    C1 3393  11.788   3.401  10.637 -0.0268  0.2132 -0.1753
  213loPI    C2 3394  11.951   3.222  10.955 -0.2765 -0.0600 -0.1957
  213loPI    C3 3395  11.860   3.611  10.969  0.1669  0.0472 -0.1098
  213loPI   PO4 3396  11.960   3.376  10.494  0.3027 -0.1502 -0.1748
  213loPI   GL1 3397  12.031   2.981  10.093 -0.1625  0.0065  0.4761
  213loPI   GL2 3398  11.754   2.982  10.188 -0.1160 -0.1540 -0.2954
  213loPI   C1A 3399  11.753   2.972   9.642  0.1865 -0.0250 -0.1461
  213loPI   C2A 3400  11.777   3.064   9.220  0.2000 -0.1830  0.1812
  213loPI   C3A 3401  11.852   3.102   8.849  0.1355  0.1495 -0.1922
  213loPI   C4A 3402  11.785   3.173   8.349 -0.0492 -0.0396 -0.0555
  213loPI   C5A 3403  11.306   3.519   8.267  0.0608  0.1178  0.1667
  213loPI   C6A 3404  10.886   3.692   8.190 -0.0933  0.2092 -0.0982
  213loPI   C1B 3405  11.536   3.345   9.974  0.0819 -0.1275  0.0162
  213loPI   C2B 3406  11.460   3.440   9.546 -0.2628  0.0409 -0.2044
  213loPI   C3B 3407  11.504   3.485   9.131  0.2486 -0.1328  0.1810
  213loPI   C4B 3408  11.553   3.472   8.711 -0.0274 -0.0292  0.1659
  214loPI    C1 3409  10.452  17.500  11.031  0.0540 -0.0978 -0.2002
  214loPI    C2 3410  10.486  17.478  11.429  0.0548 -0.1846 -0.2049
  214loPI    C3 3411  10.416  17.830  11.253  0.3504 -0.0960 -0.1514
  214loPI   PO4 3412  10.578  17.364  10.913 -0.0841  0.0320 -0.1724
  214loPI   GL1 3413  10.586  17.400  10.500 -0.1092  0.0365 -0.1391
  214loPI   GL2 3414  10.554  17.130  10.411 -0.0363  0.2694 -0.1818
  214loPI   C1A 3415  10.531  17.482  10.039 -0.1506 -0.3656 -0.0232
  214loPI   C2A 3416  10.501  17.461   9.676  0.0222  0.1936 -0.3728
  214loPI   C3A 3417  10.194  17.365   9.441  0.0710 -0.0667 -0.4759
  214loPI   C4A 3418  10.119  17.337   9.018 -0.0215 -0.0447 -0.0811
  214loPI   C5A 3419  10.352  17.391   8.696  0.2351 -0.3014 -0.0739
  214loPI   C6A 3420  10.509  17.094   8.440  0.0517  0.1710 -0.0669
  214loPI   C1B 3421  10.753  16.992  10.110 -0.0579  0.1068  0.0003
  214loPI   C2B 3422  10.742  16.921   9.678 -0.0231 -0.0280 -0.2969
  214loPI   C3B 3423  10.601  17.089   9.231 -0.1317  0.2349 -0.2137
  214loPI   C4B 3424  10.587  17.485   9.150 -0.1166  0.2440  0.1707
  215loPI    C1 3425   8.504   9.271  11.103 -0.0806  0.1761 -0.0341
  215loPI    C2 3426   8.280   8.999  11.292  0.1431 -0.1054 -0.1664
  215loPI    C3 3427   8.547   9.216  11.497 -0.0705  0.0532 -0.0522
  215loPI   PO4 3428   8.704   9.172  10.903  0.1817 -0.0434  0.2544
  215loPI   GL1 3429   8.781   9.122  10.490  0.0924 -0.2135 -0.0369
  215loPI   GL2 3430   8.925   9.428  10.530  0.2939 -0.0998  0.0646
  215loPI   C1A 3431   8.668   9.048  10.193 -0.2101  0.0331  0.1415
  215loPI   C2A 3432   8.678   8.981   9.757 -0.2538 -0.2826  0.2192
  215loPI   C3A 3433   8.752   9.125   9.257 -0.0891  0.0546  0.4202
  215loPI   C4A 3434   8.816   9.245   8.806 -0.3109  0.0143  0.0493
  215loPI   C5A 3435   8.863   9.456   8.475 -0.1356 -0.1161  0.0201
  215loPI   C6A 3436   9.260   9.707   8.403 -0.1274 -0.2485  0.1483
  215loPI   C1B 3437   8.889   9.430  10.065  0.1930  0.0032 -0.0973
  215loPI   C2B 3438   8.858   9.425   9.722 -0.0536 -0.1435  0.0589
  215loPI   C3B 3439   9.029   9.707   9.401  0.0528 -0.0885 -0.0223
  215loPI   C4B 3440   9.087   9.704   8.895  0.0540 -0.3150  0.1137
  216loPI    C1 3441  12.202   6.957  10.964 -0.1351 -0.0010 -0.0537
  216loPI    C2 3442  11.960   7.243  10.826  0.1969  0.2240 -0.1838
  216loPI    C3 3443  12.077   7.248  11.209 -0.1597 -0.0009 -0.0664
  216loPI   PO4 3444  12.323   6.890  10.700 -0.0100 -0.1180 -0.1566
  216loPI   GL1 3445  12.154   7.028  10.351 -0.2167  0.0347 -0.2685
  216loPI   GL2 3446  11.986   7.266  10.298 -0.0894 -0.1472 -0.1988
  216loPI   C1A 3447  12.248   6.876  10.025 -0.2058 -0.1856  0.5207
  216loPI   C2A 3448  12.136   7.051   9.782 -0.0791 -0.0482 -0.0055
  216loPI   C3A 3449  12.225   7.138   9.335 -0.0400  0.1540  0.0363
  216loPI   C4A 3450  12.234   7.089   8.906  0.1157 -0.2195  0.0072
  216loPI   C5A 3451  12.438   7.087   8.597 -0.0177 -0.1870  0.4105
  216loPI   C6A 3452  12.498   6.950   8.196  0.1586 -0.0367 -0.1179
  216loPI   C1B 3453  11.808   7.415   9.908  0.3902 -0.3461 -0.1203
  216loPI   C2B 3454  11.891   7.495   9.455 -0.2521  0.0719  0.0063
  216loPI   C3B 3455  11.880   7.581   8.983 -0.0630  0.0985  0.0897
  216loPI   C4B 3456  11.967   7.489   8.711 -0.0491 -0.0623  0.0367
  217loPI    C1 3457  11.074   4.195  11.062 -0.0892 -0.0473  0.0524
  217loPI    C2 3458  10.718   4.198  11.244 -0.1713 -0.0085 -0.1072
  217loPI    C3 3459  10.969   4.506  11.290 -0.0982 -0.1000  0.1204
  217loPI   PO4 3460  10.990   4.071  10.831 -0.1986  0.0393 -0.1050
  217loPI   GL1 3461  10.940   4.127  10.354 -0.2794  0.1116 -0.1005
  217loPI   GL2 3462  11.023   3.814  10.295 -0.0093  0.1263 -0.0055
  217loPI   C1A 3463  10.920   4.250   9.952  0.0560  0.3960  0.2047
  217loPI   C2A 3464  10.777   4.210   9.503  0.1611  0.3030 -0.0817
  217loPI   C3A 3465  10.853   4.288   9.154  0.1716  0.2305 -0.0511
  217loPI   C4A 3466  10.820   4.280   8.778  0.0537  0.0280  0.0447
  217loPI   C5A 3467  10.872   4.690   8.506 -0.2097  0.1119 -0.1553
  217loPI   C6A 3468  10.973   4.778   8.105  0.0100  0.0818 -0.0220
  217loPI   C1B 3469  11.208   3.781   9.925  0.0426  0.2666 -0.0636
  217loPI   C2B 3470  11.208   3.823   9.523  0.1074  0.3188  0.1768
  217loPI   C3B 3471  11.184   3.806   9.119  0.0787  0.1508 -0.1579
  217loPI   C4B 3472  11.176   3.876   8.680 -0.1188  0.1298  0.2205
  218loPI    C1 3473   3.877  12.838  10.763 -0.0373 -0.1048  0.0812
  218loPI    C2 3474   3.736  13.105  11.025 -0.1128  0.0951 -0.1591
  218loPI    C3 3475   3.839  13.221  10.657  0.3315 -0.1163 -0.1088
  218loPI   PO4 3476   3.693  12.693  10.722  0.1106  0.0910 -0.3627
  218loPI   GL1 3477   3.511  12.773  10.331 -0.1829 -0.0343  0.0920
  218loPI   GL2 3478   3.814  12.967  10.228  0.1995  0.1106  0.2472
  218loPI   C1A 3479   3.610  12.532  10.085  0.1349 -0.1689 -0.1478
  218loPI   C2A 3480   3.593  12.518   9.612  0.0128 -0.0857  0.3593
  218loPI   C3A 3481   3.478  12.453   9.149 -0.2541  0.0490 -0.1730
  218loPI   C4A 3482   3.393  12.466   8.688  0.2263 -0.0659  0.2973
  218loPI   C5A 3483   3.481  12.448   8.212  0.0858 -0.5142  0.0104
  218loPI   C6A 3484   3.773  12.516   7.882 -0.0018  0.1100  0.0387
  218loPI   C1B 3485   3.885  12.909   9.770  0.0291 -0.0869  0.1136
  218loPI   C2B 3486   3.854  12.889   9.331  0.1012  0.2974 -0.0282
  218loPI   C3B 3487   3.683  12.935   8.895  0.0642  0.4212 -0.1295
  218loPI   C4B 3488   3.837  12.860   8.528  0.0622  0.0151  0.1363
  219loPI    C1 3489  12.943  17.812  10.931 -0.1769  0.0302  0.1640
  219loPI    C2 3490  13.104  17.646  11.258 -0.0341 -0.3718 -0.1034
  219loPI    C3 3491  12.717  17.587  11.173 -0.0289 -0.4141 -0.0982
  219loPI   PO4 3492  13.038  17.792  10.663  0.0276 -0.1079  0.0725
  219loPI   GL1 3493  12.935  17.623  10.305  0.0942 -0.1597  0.2714
  219loPI   GL2 3494  12.825  17.317  10.313 -0.0752 -0.0283  0.0707
  219loPI   C1A 3495  13.096  17.548   9.878 -0.1190 -0.2403  0.1456
  219loPI   C2A 3496  13.132  17.580   9.481  0.1048 -0.0853 -0.0753
  219loPI   C3A 3497  13.075  17.487   9.064  0.1317  0.2701 -0.1879
  219loPI   C4A 3498  13.112  17.473   8.596  0.3202  0.0477 -0.2216
  219loPI   C5A 3499  13.235  17.179   8.190  0.0486  0.0919  0.2058
  219loPI   C6A 3500  13.624  17.010   8.060 -0.2444  0.1238  0.2955
  219loPI   C1B 3501  12.943  17.098  10.089 -0.0578  0.3150 -0.0675
  219loPI   C2B 3502  13.002  17.057   9.690  0.0747 -0.4086  0.3414
  219loPI   C3B 3503  12.854  17.073   9.232 -0.2645  0.1048  0.1247
  219loPI   C4B 3504  13.008  16.970   8.802 -0.1638  0.0915  0.3170
  220loPI    C1 3505   7.962   3.721  11.315  0.0763  0.0491  0.1473
  220loPI    C2 3506   8.225   3.653  11.608  0.0134  0.0325  0.2000
  220loPI    C3 3507   7.867   3.810  11.693 -0.0431 -0.0656  0.1450
  220loPI   PO4 3508   8.158   3.635  11.115  0.0705 -0.2139 -0.0389
  220loPI   GL1 3509   8.141   3.708  10.677  0.0796  0.1361  0.1879
  220loPI   GL2 3510   8.315   3.575  10.400  0.1600 -0.2181  0.1165
  220loPI   C1A 3511   7.782   3.572  10.374 -0.2249 -0.0526 -0.0832
  220loPI   C2A 3512   7.728   3.729   9.863  0.0593  0.0603 -0.0370
  220loPI   C3A 3513   7.770   3.703   9.398  0.0532 -0.0502  0.1573
  220loPI   C4A 3514   7.589   3.608   9.052 -0.0914  0.2049 -0.0735
  220loPI   C5A 3515   7.553   3.641   8.587 -0.0834 -0.0461  0.1533
  220loPI   C6A 3516   7.431   3.499   8.147 -0.1787 -0.0118 -0.0777
  220loPI   C1B 3517   8.167   3.766  10.060  0.2642  0.0265 -0.1500
  220loPI   C2B 3518   8.189   3.857   9.631 -0.0313 -0.2941  0.0346
  220loPI   C3B 3519   8.159   3.830   9.137 -0.0262 -0.3328  0.0283
  220loPI   C4B 3520   8.148   3.925   8.719 -0.0706  0.3835  0.0528
  221loPI    C1 3521  17.644   4.971  10.564  0.2612  0.0052 -0.1228
  221loPI    C2 3522  17.475   5.050  10.917 -0.0433 -0.1813 -0.2233
  221loPI    C3 3523  17.727   5.313  10.753  0.0430 -0.0603  0.0963
  221loPI   PO4 3524  17.589   4.779  10.517 -0.0751  0.1815 -0.0832
  221loPI   GL1 3525  17.657   4.521  10.208 -0.1082 -0.3106  0.1447
  221loPI   GL2 3526  17.338   4.578  10.121 -0.2231 -0.0144  0.1096
  221loPI   C1A 3527  17.912   4.460   9.758 -0.0174  0.0602 -0.1398
  221loPI   C2A 3528  18.027   4.516   9.385  0.1912 -0.0177 -0.0600
  221loPI   C3A 3529  18.139   4.437   8.936 -0.1279  0.2406 -0.0071
  221loPI   C4A 3530  18.058   4.410   8.541  0.2227 -0.0098  0.2082
  221loPI   C5A 3531  18.071   4.236   8.126 -0.3364 -0.0378 -0.2040
  221loPI   C6A 3532  17.930   4.318   7.715  0.1618 -0.0070  0.0672
  221loPI   C1B 3533  17.451   4.649   9.759 -0.0348  0.2199 -0.1769
  221loPI   C2B 3534  17.538   4.581   9.362 -0.1537 -0.2959  0.2032
  221loPI   C3B 3535  17.618   4.503   8.978  0.1284  0.0270  0.3306
  221loPI   C4B 3536  17.540   4.414   8.527  0.1846 -0.0244  0.2012
  222loPI    C1 3537   5.673  16.187  11.186  0.1197 -0.0963 -0.0702
  222loPI    C2 3538   5.298  16.128  11.311  0.0643 -0.0342 -0.2062
  222loPI    C3 3539   5.599  16.118  11.573 -0.0223 -0.1777 -0.1109
  222loPI   PO4 3540   5.678  16.286  10.936 -0.0700 -0.1932 -0.1570
  222loPI   GL1 3541   5.875  16.268  10.518 -0.0148 -0.0204 -0.0615
  222loPI   GL2 3542   5.862  15.927  10.429 -0.1680 -0.3809 -0.0602
  222loPI   C1A 3543   6.014  16.231  10.052 -0.0559 -0.2291  0.0328
  222loPI   C2A 3544   6.165  16.263   9.657 -0.1474 -0.0123 -0.2790
  222loPI   C3A 3545   6.238  16.319   9.282  0.1040  0.0260 -0.3870
  222loPI   C4A 3546   6.376  16.370   8.773 -0.2909 -0.0854  0.2342
  222loPI   C5A 3547   6.554  16.115   8.329 -0.0768  0.2120  0.0113
  222loPI   C6A 3548   6.819  15.758   8.216  0.2271 -0.0072  0.1925
  222loPI   C1B 3549   5.604  15.882  10.094 -0.0965 -0.0692  0.0827
  222loPI   C2B 3550   5.683  15.922   9.717 -0.3093  0.2519 -0.2873
  222loPI   C3B 3551   5.994  15.820   9.315 -0.1118  0.0214 -0.1115
  222loPI   C4B 3552   6.111  15.806   8.799 -0.0105 -0.0986  0.0020
  223loPI    C1 3553   5.038  10.088  10.809  0.0953 -0.3539 -0.0814
  223loPI    C2 3554   5.292  10.262  11.064  0.0353 -0.1302 -0.1717
  223loPI    C3 3555   5.208   9.872  11.100  0.3209 -0.1862 -0.0867
  223loPI   PO4 3556   5.016  10.193  10.604 -0.0917 -0.0619  0.0181
  223loPI   GL1 3557   4.738  10.395  10.262  0.0365 -0.1267 -0.0742
  223loPI   GL2 3558   4.579  10.673  10.040  0.1478  0.0848  0.1992
  223loPI   C1A 3559   4.915  10.216   9.845  0.1662 -0.3205 -0.0567
  223loPI   C2A 3560   5.019  10.085   9.398 -0.1476 -0.0437  0.0553
  223loPI   C3A 3561   5.039   9.833   9.078  0.0889 -0.1378 -0.1733
  223loPI   C4A 3562   5.110   9.697   8.573  0.3938 -0.0498  0.1712
  223loPI   C5A 3563   4.816   9.574   8.282  0.2503  0.0718  0.0327
  223loPI   C6A 3564   4.617   9.591   7.880  0.3070 -0.1684 -0.0681
  223loPI   C1B 3565   4.774  10.652   9.674 -0.0616  0.1762 -0.0216
  223loPI   C2B 3566   4.837  10.490   9.223 -0.1035 -0.0287  0.2410
  223loPI   C3B 3567   4.906  10.219   8.794  0.2055  0.0473 -0.0535
  223loPI   C4B 3568   4.935  10.117   8.366 -0.0449  0.2271 -0.3600
  224loPI    C1 3569  14.652   3.267  11.088  0.1431 -0.2006 -0.2002
  224loPI    C2 3570  15.022   3.145  11.180  0.0930 -0.1642  0.0571
  224loPI    C3 3571  14.705   2.969  11.349 -0.0020 -0.0844 -0.0359
  224loPI   PO4 3572  14.732   3.344  10.759 -0.0053 -0.3765  0.0701
  224loPI   GL1 3573  14.931   3.350  10.448  0.1096 -0.2120 -0.3623
  224loPI   GL2 3574  15.181   3.208  10.509 -0.0175  0.1094  0.1023
  224loPI   C1A 3575  14.717   3.454  10.041 -0.3449  0.0752 -0.0670
  224loPI   C2A 3576  14.788   3.363   9.609 -0.1377  0.0828 -0.2420
  224loPI   C3A 3577  14.837   3.358   9.216  0.1923  0.1247  0.3390
  224loPI   C4A 3578  14.866   3.423   8.832  0.0678 -0.1604  0.0721
  224loPI   C5A 3579  14.870   3.432   8.361  0.0430  0.0774 -0.0505
  224loPI   C6A 3580  15.140   3.630   8.159 -0.1679 -0.2376  0.1869
  224loPI   C1B 3581  15.137   3.143  10.017  0.0322 -0.2001 -0.0644
  224loPI   C2B 3582  15.208   3.087   9.530 -0.0373 -0.0593 -0.0687
  224loPI   C3B 3583  15.212   3.059   9.105 -0.0190  0.1104  0.0534
  224loPI   C4B 3584  15.226   3.118   8.637  0.2717 -0.4380  0.0076
  225loPI    C1 3585  11.151   6.439  10.531  0.0260 -0.0143 -0.1811
  225loPI    C2 3586  11.272   6.725  10.784  0.1792 -0.1153 -0.1386
  225loPI    C3 3587  10.900   6.732  10.637  0.2071  0.1506 -0.2015
  225loPI   PO4 3588  11.324   6.470  10.398 -0.1708 -0.0994 -0.0087
  225loPI   GL1 3589  11.289   6.618  10.035 -0.0954  0.3624  0.0697
  225loPI   GL2 3590  11.008   6.872  10.134  0.1183 -0.3031  0.2036
  225loPI   C1A 3591  11.450   6.578   9.575  0.3163 -0.2552  0.1830
  225loPI   C2A 3592  11.533   6.641   9.217  0.0215  0.0557 -0.1547
  225loPI   C3A 3593  11.418   6.649   8.783 -0.1504  0.0081  0.0135
  225loPI   C4A 3594  11.399   6.847   8.377 -0.2084  0.1704 -0.2714
  225loPI   C5A 3595  11.475   7.030   7.972 -0.2598 -0.0254  0.1218
  225loPI   C6A 3596  11.350   7.368   7.902 -0.1990 -0.2686  0.2811
  225loPI   C1B 3597  11.055   6.970   9.616  0.2281  0.1228  0.0166
  225loPI   C2B 3598  11.153   6.999   9.182  0.0863 -0.0348 -0.2224
  225loPI   C3B 3599  11.131   7.071   8.712  0.0409  0.2573 -0.0512
  225loPI   C4B 3600  10.992   7.167   8.223 -0.0568 -0.0885 -0.0583
  226loPI    C1 3601  11.315   0.504  11.215  0.0855 -0.1861  0.1958
  226loPI    C2 3602  11.137   0.289  11.501  0.0085 -0.0261  0.2693
  226loPI    C3 3603  10.920   0.533  11.270  0.0539 -0.2339  0.0027
  226loPI   PO4 3604  11.458   0.396  10.938 -0.0262  0.1289 -0.1869
  226loPI   GL1 3605  11.372   0.416  10.530  0.0345  0.2344 -0.1599
  226loPI   GL2 3606  11.681   0.273  10.365  0.3656 -0.1134  0.3080
  226loPI   C1A 3607  11.353   0.558  10.094  0.0794  0.0954  0.1204
  226loPI   C2A 3608  11.540   0.623   9.683 -0.1396 -0.4814 -0.1933
  226loPI   C3A 3609  11.527   0.464   9.205 -0.0523 -0.1432  0.0201
  226loPI   C4A 3610  11.490   0.310   8.864  0.1632 -0.2429  0.0011
  226loPI   C5A 3611  11.399   0.454   8.456 -0.0161 -0.0128 -0.1904
  226loPI   C6A 3612  11.185   0.264   8.074 -0.0992 -0.1539  0.0928
  226loPI   C1B 3613  11.719   0.229   9.903 -0.2165 -0.1989  0.0045
  226loPI   C2B 3614  11.817   0.132   9.516  0.1075 -0.3196  0.2802
  226loPI   C3B 3615  11.959   0.191   9.083  0.1661  0.0320 -0.0993
  226loPI   C4B 3616  11.833   0.053   8.630  0.0845 -0.2038  0.0550
  227loPI    C1 3617  17.080   6.143  10.544 -0.4063  0.1045 -0.0328
  227loPI    C2 3618  17.409   6.296  10.713 -0.2705  0.1284 -0.3123
  227loPI    C3 3619  17.184   6.034  10.914 -0.0172  0.0236 -0.1603
  227loPI   PO4 3620  17.143   6.085  10.315 -0.0861  0.0533 -0.4067
  227loPI   GL1 3621  16.930   5.855  10.095  0.2338 -0.0787 -0.2655
  227loPI   GL2 3622  17.014   5.580  10.083  0.2072  0.2367 -0.0478
  227loPI   C1A 3623  16.959   6.034   9.632  0.1859 -0.2046  0.1448
  227loPI   C2A 3624  17.019   6.210   9.255  0.1833  0.0501  0.6511
  227loPI   C3A 3625  17.131   6.168   8.895 -0.2142  0.1118  0.2893
  227loPI   C4A 3626  17.291   6.238   8.518 -0.0787 -0.1085 -0.1712
  227loPI   C5A 3627  17.174   6.048   8.065 -0.1223  0.1055  0.1202
  227loPI   C6A 3628  17.109   6.063   7.649 -0.0614 -0.3655 -0.0132
  227loPI   C1B 3629  17.216   5.633   9.668  0.0458 -0.2203  0.0677
  227loPI   C2B 3630  17.133   5.718   9.206  0.3370  0.2953 -0.0645
  227loPI   C3B 3631  17.173   5.517   8.811 -0.2947  0.0877  0.2838
  227loPI   C4B 3632  17.134   5.757   8.464  0.3294 -0.0557 -0.1101
  228loPI    C1 3633   5.730   9.125  10.782 -0.1662 -0.0613  0.0760
  228loPI    C2 3634   5.499   9.430  10.898  0.2242  0.3031 -0.0800
  228loPI    C3 3635   5.633   9.167  11.168 -0.2317  0.1798  0.0349
  228loPI   PO4 3636   5.908   9.230  10.595  0.0149  0.1230 -0.2511
  228loPI   GL1 3637   5.970   8.990  10.295 -0.0636 -0.3557  0.0583
  228loPI   GL2 3638   6.027   9.179  10.035 -0.0579  0.1107  0.0813
  228loPI   C1A 3639   5.508   9.003  10.037  0.0449 -0.0356 -0.0256
  228loPI   C2A 3640   5.268   9.315   9.717  0.2236 -0.0641 -0.0738
  228loPI   C3A 3641   5.380   9.476   9.339  0.0409 -0.2277  0.1255
  228loPI   C4A 3642   5.213   9.416   8.980 -0.2778 -0.0403  0.1224
  228loPI   C5A 3643   5.264   9.209   8.543 -0.0086 -0.2589 -0.0744
  228loPI   C6A 3644   5.612   9.132   8.319  0.1337 -0.0691  0.1602
  228loPI   C1B 3645   5.914   8.994   9.632 -0.0295  0.1432 -0.1274
  228loPI   C2B 3646   5.857   8.930   9.278  0.1808  0.0518 -0.1407
  228loPI   C3B 3647   6.123   9.059   9.017 -0.1948  0.2549  0.0937
  228loPI   C4B 3648   6.114   9.325   8.694 -0.1424  0.0673  0.0078
  229loPI    C1 3649  16.339  11.471  11.075 -0.0237 -0.0192  0.0809
  229loPI    C2 3650  16.597  11.352  11.357 -0.0685 -0.0399  0.1133
  229loPI    C3 3651  16.344  11.089  11.194 -0.1938  0.0184  0.2118
  229loPI   PO4 3652  16.453  11.704  11.025 -0.1734 -0.1766 -0.1447
  229loPI   GL1 3653  16.510  11.856  10.654 -0.0375 -0.0424  0.1107
  229loPI   GL2 3654  16.359  11.544  10.525 -0.1684 -0.2032  0.2640
  229loPI   C1A 3655  16.677  11.951  10.269  0.2749  0.0106  0.3365
  229loPI   C2A 3656  16.749  11.905   9.804  0.2396  0.1005  0.3217
  229loPI   C3A 3657  16.703  11.731   9.340  0.1754 -0.0964  0.0354
  229loPI   C4A 3658  16.858  11.557   8.917  0.0503 -0.0260  0.2931
  229loPI   C5A 3659  17.155  11.443   8.591 -0.1519 -0.5496  0.0372
  229loPI   C6A 3660  17.311  11.727   8.245 -0.1838 -0.0351  0.1410
  229loPI   C1B 3661  16.329  11.582  10.016  0.1989  0.0534  0.0922
  229loPI   C2B 3662  16.277  11.694   9.608  0.2729  0.0796 -0.1012
  229loPI   C3B 3663  16.260  12.021   9.243 -0.0989  0.2357  0.1746
  229loPI   C4B 3664  16.579  11.994   8.844  0.6588 -0.3988  0.4822
  230loPI    C1 3665   6.522   1.142  11.147 -0.1460  0.2272  0.0760
  230loPI    C2 3666   6.144   1.059  11.248 -0.0827 -0.1241  0.0368
  230loPI    C3 3667   6.446   0.931  11.478  0.0253 -0.1414 -0.1133
  230loPI   PO4 3668   6.531   1.058  10.878  0.0769 -0.0602  0.2363
  230loPI   GL1 3669   6.783   1.044  10.494  0.3033 -0.0540  0.0505
  230loPI   GL2 3670   7.009   0.795  10.485  0.3794  0.1954 -0.1490
  230loPI   C1A 3671   6.759   1.192  10.103 -0.2994 -0.4763 -0.2464
  230loPI   C2A 3672   7.012   1.128   9.696 -0.1207 -0.0948  0.0723
  230loPI   C3A 3673   7.011   1.238   9.252 -0.1807  0.2197  0.1698
  230loPI   C4A 3674   7.149   1.213   8.775  0.0696  0.2861  0.3371
  230loPI   C5A 3675   7.506   1.174   8.343  0.1516 -0.0325  0.2046
  230loPI   C6A 3676   7.526   0.953   7.933  0.0125  0.2423  0.1545
  230loPI   C1B 3677   6.888   0.662  10.129  0.0060  0.0733  0.1485
  230loPI   C2B 3678   6.920   0.629   9.718  0.1093  0.0598  0.0608
  230loPI   C3B 3679   6.819   0.691   9.316  0.0676 -0.1147 -0.0878
  230loPI   C4B 3680   6.802   0.847   8.943  0.0307  0.1762 -0.2128
  231loPI    C1 3681  12.368   2.347  10.489  0.0057 -0.1322 -0.0280
  231loPI    C2 3682  12.165   2.398  10.829  0.1418 -0.2187  0.0673
  231loPI    C3 3683  12.345   2.048  10.754  0.1086 -0.2015 -0.0958
  231loPI   PO4 3684  12.371   2.562  10.288 -0.0824 -0.4526 -0.2618
  231loPI   GL1 3685  12.127   2.516   9.918 -0.0433  0.3145  0.0137
  231loPI   GL2 3686  12.394   2.741   9.849 -0.2971 -0.1199  0.0472
  231loPI   C1A 3687  12.039   2.551   9.522  0.0017  0.1611  0.1375
  231loPI   C2A 3688  12.004   2.568   9.055  0.3388  0.1735  0.0460
  231loPI   C3A 3689  11.930   2.680   8.605  0.1432 -0.0456  0.2801
  231loPI   C4A 3690  12.010   2.638   8.214 -0.0146  0.0719 -0.2517
  231loPI   C5A 3691  12.179   2.372   8.042 -0.1365  0.3361 -0.0236
  231loPI   C6A 3692  12.464   2.134   8.038  0.3743  0.2755  0.1080
  231loPI   C1B 3693  12.509   2.611   9.528 -0.0073 -0.1250 -0.0588
  231loPI   C2B 3694  12.540   2.549   9.131 -0.3988  0.2916  0.0390
  231loPI   C3B 3695  12.478   2.629   8.782 -0.0251 -0.0536 -0.2356
  231loPI   C4B 3696  12.468   2.497   8.409 -0.0476 -0.0027 -0.1072
  232loPI    C1 3697   5.946  17.371  10.843 -0.2130  0.1145  0.0015
  232loPI    C2 3698   5.573  17.395  10.701 -0.3148 -0.0228  0.2395
  232loPI    C3 3699   5.635  17.332  11.092 -0.0402  0.3405  0.2596
  232loPI   PO4 3700   6.046  17.116  10.773 -0.0083  0.0574  0.3670
  232loPI   GL1 3701   6.319  17.203  10.491 -0.1464  0.1202  0.4183
  232loPI   GL2 3702   6.336  17.472  10.471  0.1013  0.0104 -0.0262
  232loPI   C1A 3703   6.344  17.416   9.929  0.0631 -0.0936 -0.0581
  232loPI   C2A 3704   6.323  17.413   9.464 -0.2044 -0.0857 -0.2842
  232loPI   C3A 3705   6.514  17.306   9.036  0.0740  0.1796 -0.2953
  232loPI   C4A 3706   6.960  17.318   8.930  0.1155 -0.1935  0.0650
  232loPI   C5A 3707   7.476  17.421   8.887 -0.3574 -0.1405 -0.0249
  232loPI   C6A 3708   7.942  17.287   8.766  0.0623  0.1318  0.1649
  232loPI   C1B 3709   6.680  17.666  10.210 -0.2774  0.3006  0.1020
  232loPI   C2B 3710   6.670  17.682   9.681  0.1355  0.1080  0.0135
  232loPI   C3B 3711   6.602  17.713   9.236 -0.2035 -0.1097 -0.2271
  232loPI   C4B 3712   6.712  17.885   8.807 -0.0141  0.1758 -0.2661
  233loPI    C1 3713  17.334   5.388  10.493  0.0485 -0.2016 -0.1090
  233loPI    C2 3714  17.449   5.763  10.572  0.1563 -0.2329 -0.1164
  233loPI    C3 3715  17.061   5.668  10.578  0.1417 -0.1667  0.0830
  233loPI   PO4 3716  17.428   5.340  10.268 -0.2061 -0.0275 -0.0879
  233loPI   GL1 3717  17.633   5.042  10.085  0.0177 -0.1076 -0.0771
  233loPI   GL2 3718  17.933   4.912   9.877 -0.1415 -0.0581  0.0285
  233loPI   C1A 3719  17.414   5.066   9.602 -0.4355  0.0293  0.0633
  233loPI   C2A 3720  17.286   5.157   9.203  0.0747  0.2629 -0.0564
  233loPI   C3A 3721  17.307   5.008   8.762 -0.1330  0.1421  0.0507
  233loPI   C4A 3722  17.315   4.914   8.365  0.5036 -0.1349  0.0156
  233loPI   C5A 3723  17.347   4.773   7.927 -0.0144 -0.3169  0.0177
  233loPI   C6A 3724  17.568   4.448   8.028  0.0231 -0.0562 -0.0652
  233loPI   C1B 3725  17.864   5.027   9.419 -0.0721  0.1085 -0.1068
  233loPI   C2B 3726  17.836   4.908   8.937 -0.0060 -0.2127  0.1142
  233loPI   C3B 3727  17.762   4.847   8.581 -0.0240 -0.0934 -0.0532
  233loPI   C4B 3728  17.894   4.940   8.265  0.0515  0.0018 -0.1982
  234loPI    C1 3729   7.476   3.742  11.321 -0.3367 -0.0918  0.1832
  234loPI    C2 3730   7.289   4.053  11.153 -0.1312  0.0303  0.1782
  234loPI    C3 3731   7.527   4.109  11.470  0.0642 -0.0906  0.0552
  234loPI   PO4 3732   7.276   3.525  11.250 -0.2112  0.2893 -0.0876
  234loPI   GL1 3733   7.218   3.334  10.747 -0.1589 -0.0381  0.1426
  234loPI   GL2 3734   6.975   3.029  10.603  0.1952 -0.1619 -0.2098
  234loPI   C1A 3735   7.197   3.523  10.267 -0.1181 -0.0030  0.2792
  234loPI   C2A 3736   7.194   3.539   9.819 -0.1599 -0.4277  0.0128
  234loPI   C3A 3737   7.139   3.479   9.384 -0.0264  0.0123 -0.2183
  234loPI   C4A 3738   7.086   3.557   8.889 -0.3344  0.2295  0.0829
  234loPI   C5A 3739   7.040   3.327   8.510  0.3114  0.0940  0.1263
  234loPI   C6A 3740   6.772   3.394   8.226  0.0007  0.1507 -0.0451
  234loPI   C1B 3741   6.906   3.008  10.154  0.1231  0.1635 -0.1388
  234loPI   C2B 3742   7.076   2.957   9.728 -0.1038  0.1631 -0.2160
  234loPI   C3B 3743   7.079   2.976   9.370 -0.1736 -0.0476  0.0306
  234loPI   C4B 3744   7.023   3.054   8.919 -0.1009  0.0659 -0.3353
  235loPI    C1 3745  10.362  10.976  11.314  0.0792 -0.0100 -0.0260
  235loPI    C2 3746  10.144  10.700  11.504 -0.0485  0.1619  0.0808
  235loPI    C3 3747  10.345  10.976  11.713  0.0570  0.1672 -0.0260
  235loPI   PO4 3748  10.124  11.021  11.053 -0.0628 -0.0469  0.1571
  235loPI   GL1 3749  10.176  10.794  10.582  0.0340 -0.1751  0.0550
  235loPI   GL2 3750  10.149  10.583  10.452 -0.1636  0.0998  0.1742
  235loPI   C1A 3751  10.232  10.976  10.217  0.0776 -0.2292  0.0436
  235loPI   C2A 3752  10.336  10.906   9.882  0.2565  0.1787 -0.0719
  235loPI   C3A 3753  10.292  11.035   9.508 -0.1938 -0.2344  0.0225
  235loPI   C4A 3754  10.396  10.982   9.038  0.1414  0.0776  0.1502
  235loPI   C5A 3755  10.493  11.179   8.536  0.0159 -0.1030  0.2479
  235loPI   C6A 3756  10.762  11.151   8.214  0.0389  0.1440  0.0448
  235loPI   C1B 3757  10.061  10.511  10.085 -0.1134 -0.1867  0.0896
  235loPI   C2B 3758   9.972  10.581   9.660  0.0353 -0.0295 -0.1809
  235loPI   C3B 3759  10.083  10.660   9.183  0.2036  0.1797  0.2175
  235loPI   C4B 3760   9.963  10.669   8.837 -0.0004  0.1024 -0.0066
  236loPI    C1 3761   0.174  12.481  10.994 -0.1986  0.2818  0.1210
  236loPI    C2 3762   0.100  12.372  11.371  0.1359 -0.1460  0.0721
  236loPI    C3 3763   0.460  12.514  11.272 -0.0022  0.1211 -0.0580
  236loPI   PO4 3764  -0.059  12.593  10.956  0.1714 -0.0518  0.1471
  236loPI   GL1 3765  -0.195  12.652  10.601  0.1406  0.0344  0.1545
  236loPI   GL2 3766  -0.077  12.946  10.548  0.4610 -0.1326 -0.0605
  236loPI   C1A 3767   0.052  12.562  10.154  0.2833 -0.0932 -0.2482
  236loPI   C2A 3768   0.157  12.688   9.813 -0.0844 -0.0259  0.1743
  236loPI   C3A 3769   0.221  12.751   9.464  0.1742  0.1800 -0.0291
  236loPI   C4A 3770   0.238  12.821   9.051  0.1479 -0.0894 -0.2492
  236loPI   C5A 3771   0.136  12.993   8.685  0.0582  0.2505  0.0134
  236loPI   C6A 3772   0.179  12.950   8.152  0.0811  0.4237  0.0519
  236loPI   C1B 3773  -0.140  13.045  10.106 -0.0298  0.0905  0.2138
  236loPI   C2B 3774  -0.096  13.115   9.674 -0.3226 -0.0018  0.1815
  236loPI   C3B 3775  -0.013  13.283   9.232  0.0462 -0.1402 -0.0468
  236loPI   C4B 3776  -0.010  13.403   8.850 -0.0409  0.0632 -0.0640
  237loPI    C1 3777  15.823  11.341  10.842  0.2664 -0.0176  0.0637
  237loPI    C2 3778  15.887  11.418  11.229  0.1001  0.1183  0.0653
  237loPI    C3 3779  15.518  11.331  11.101  0.2195 -0.3120  0.0002
  237loPI   PO4 3780  16.120  11.187  10.716 -0.1317 -0.2397  0.0188
  237loPI   GL1 3781  16.044  11.016  10.355 -0.0971  0.1926  0.0140
  237loPI   GL2 3782  16.410  11.101  10.187  0.0188  0.0802  0.3489
  237loPI   C1A 3783  15.990  11.305   9.859  0.0323 -0.0943  0.1699
  237loPI   C2A 3784  15.697  11.421   9.550  0.2584 -0.0390  0.4033
  237loPI   C3A 3785  15.824  11.616   9.185  0.1060  0.2321  0.1392
  237loPI   C4A 3786  15.931  11.962   8.842  0.2639 -0.2094  0.2721
  237loPI   C5A 3787  16.230  12.266   8.571  0.1784  0.1932 -0.1812
  237loPI   C6A 3788  16.603  12.237   8.362  0.1823 -0.2773  0.0236
  237loPI   C1B 3789  16.661  11.222   9.769 -0.1335  0.1805 -0.0371
  237loPI   C2B 3790  16.664  11.234   9.277  0.2672 -0.0831 -0.0592
  237loPI   C3B 3791  16.559  11.098   8.969  0.2177 -0.2971 -0.0370
  237loPI   C4B 3792  16.569  11.209   8.568 -0.0845 -0.1366 -0.0190
  238loPI    C1 3793   8.690  11.156  11.335  0.2003  0.0767  0.1064
  238loPI    C2 3794   8.875  10.819  11.445 -0.0534 -0.1234 -0.0688
  238loPI    C3 3795   8.487  10.871  11.528  0.0260  0.2060  0.1158
  238loPI   PO4 3796   8.816  11.159  11.004  0.1387  0.1464  0.0857
  238loPI   GL1 3797   8.783  11.341  10.654 -0.0588  0.0466 -0.2726
  238loPI   GL2 3798   8.666  11.540  10.426 -0.3238 -0.4073  0.3056
  238loPI   C1A 3799   8.960  10.983  10.365  0.2392 -0.1370  0.1115
  238loPI   C2A 3800   8.726  11.049   9.948  0.1840  0.1634 -0.0802
  238loPI   C3A 3801   8.609  10.954   9.587  0.2052  0.0547  0.0030
  238loPI   C4A 3802   8.674  10.990   9.123  0.4341 -0.3537 -0.2012
  238loPI   C5A 3803   8.444  10.975   8.620  0.1704  0.1140 -0.0494
  238loPI   C6A 3804   8.121  10.750   8.296  0.3008 -0.0555  0.1003
  238loPI   C1B 3805   8.709  11.624  10.059 -0.0798 -0.0493 -0.3050
  238loPI   C2B 3806   8.963  11.518   9.694  0.2084 -0.2636  0.0328
  238loPI   C3B 3807   9.013  11.484   9.295 -0.0262  0.1440  0.0624
  238loPI   C4B 3808   8.967  11.492   8.958  0.0953  0.3892  0.1057
  239loPI    C1 3809   0.576   3.112  11.023 -0.0751 -0.2477 -0.1903
  239loPI    C2 3810   0.566   3.355  10.705  0.2096 -0.0362 -0.0430
  239loPI    C3 3811   0.634   3.505  11.070 -0.2199 -0.2619  0.1387
  239loPI   PO4 3812   0.299   2.979  10.985 -0.2777  0.0293  0.1000
  239loPI   GL1 3813   0.008   2.892  10.660 -0.0995 -0.1399 -0.0853
  239loPI   GL2 3814   0.367   2.912  10.488  0.1249 -0.2325 -0.1710
  239loPI   C1A 3815  -0.091   2.603  10.354 -0.0678 -0.1220 -0.0308
  239loPI   C2A 3816  -0.093   2.543   9.970 -0.0219 -0.1454  0.1474
  239loPI   C3A 3817  -0.151   2.575   9.669  0.2328 -0.0486 -0.3846
  239loPI   C4A 3818   0.022   2.440   9.269 -0.2620 -0.0344 -0.1280
  239loPI   C5A 3819   0.110   2.500   8.864 -0.0699  0.1889 -0.0931
  239loPI   C6A 3820   0.401   2.395   8.488 -0.0931  0.1894  0.1385
  239loPI   C1B 3821   0.211   2.952  10.129  0.1630  0.0385  0.2061
  239loPI   C2B 3822   0.329   2.986   9.777  0.1120  0.1579  0.1625
  239loPI   C3B 3823   0.360   2.811   9.370 -0.1007  0.1416 -0.3434
  239loPI   C4B 3824   0.526   2.922   8.982  0.1081 -0.0560  0.1151
  240loPI    C1 3825  13.268  11.765  10.810 -0.0793 -0.3488 -0.2036
  240loPI    C2 3826  13.068  11.640  11.133 -0.0156  0.1103  0.0222
  240loPI    C3 3827  12.881  11.857  10.853 -0.0077 -0.0719 -0.1260
  240loPI   PO4 3828  13.431  11.611  10.770 -0.0089 -0.1729 -0.0721
  240loPI   GL1 3829  13.621  11.588  10.397  0.0086 -0.1422 -0.0140
  240loPI   GL2 3830  13.557  11.968  10.385  0.0951  0.0331  0.0187
  240loPI   C1A 3831  13.337  11.405  10.011 -0.1266  0.0675  0.1802
  240loPI   C2A 3832  12.998  11.392   9.790  0.0718 -0.1339 -0.0932
  240loPI   C3A 3833  12.886  11.413   9.324  0.2211 -0.0110 -0.0012
  240loPI   C4A 3834  12.908  11.352   8.887  0.2872  0.0858 -0.1367
  240loPI   C5A 3835  13.075  11.393   8.455 -0.0325  0.3917 -0.0235
  240loPI   C6A 3836  13.322  11.189   7.977  0.1044  0.2144  0.0036
  240loPI   C1B 3837  13.634  11.994   9.905 -0.0417  0.0617  0.0817
  240loPI   C2B 3838  13.653  11.979   9.544  0.0852 -0.4248  0.0752
  240loPI   C3B 3839  13.693  11.906   9.127 -0.3330 -0.1510 -0.0557
  240loPI   C4B 3840  13.604  11.971   8.715  0.0534 -0.1819  0.1173
  241loPI    C1 3841  14.958  10.092  10.944 -0.1514 -0.2080 -0.0704
  241loPI    C2 3842  14.899  10.425  11.157 -0.1513 -0.0544 -0.3063
  241loPI    C3 3843  14.891  10.068  11.337  0.0420  0.0834 -0.0166
  241loPI   PO4 3844  15.101  10.124  10.791  0.3510 -0.2678 -0.0977
  241loPI   GL1 3845  15.014  10.225  10.357  0.2287 -0.1232  0.0593
  241loPI   GL2 3846  15.072   9.879  10.275 -0.0140  0.1147  0.1230
  241loPI   C1A 3847  15.065  10.230   9.889 -0.0917 -0.0546  0.0528
  241loPI   C2A 3848  14.986  10.145   9.501 -0.1393  0.2054  0.2022
  241loPI   C3A 3849  15.072  10.369   9.087  0.0192  0.3897  0.1313
  241loPI   C4A 3850  15.135  10.504   8.701  0.0006 -0.3869 -0.1633
  241loPI   C5A 3851  15.416  10.425   8.315 -0.1272 -0.0855  0.2778
  241loPI   C6A 3852  15.611  10.344   7.999  0.0616  0.2521 -0.1179
  241loPI   C1B 3853  15.087   9.666   9.890 -0.1278  0.0627 -0.2943
  241loPI   C2B 3854  15.195   9.664   9.532  0.1558  0.1361 -0.0292
  241loPI   C3B 3855  15.183   9.749   9.124 -0.0795 -0.2235  0.0157
  241loPI   C4B 3856  15.323   9.681   8.798 -0.0858  0.0033  0.0733
  242loPI    C1 3857  10.203  11.791  11.066  0.0478 -0.0532  0.0729
  242loPI    C2 3858  10.539  11.984  11.166 -0.0716  0.1648  0.0597
  242loPI    C3 3859  10.242  11.949  11.431 -0.0856  0.0752  0.0326
  242loPI   PO4 3860  10.266  11.528  10.989 -0.0214  0.2128 -0.2845
  242loPI   GL1 3861  10.273  11.340  10.617  0.0794 -0.0958  0.0147
  242loPI   GL2 3862  10.542  11.282  10.364 -0.0771 -0.1187 -0.2402
  242loPI   C1A 3863  10.124  11.422  10.137 -0.0060  0.1246  0.3163
  242loPI   C2A 3864  10.017  11.485   9.668 -0.0424 -0.3135  0.1477
  242loPI   C3A 3865  10.035  11.432   9.313 -0.1608  0.0870  0.0237
  242loPI   C4A 3866   9.996  11.465   8.777 -0.1393 -0.0859 -0.2955
  242loPI   C5A 3867  10.173  11.502   8.351 -0.1508  0.2563 -0.0405
  242loPI   C6A 3868  10.438  11.522   7.988  0.0125 -0.1428 -0.0461
  242loPI   C1B 3869  10.529  11.462   9.896  0.1958 -0.1545  0.0656
  242loPI   C2B 3870  10.571  11.573   9.406  0.2486  0.0009  0.1976
  242loPI   C3B 3871  10.481  11.488   8.957  0.2803  0.0231 -0.2186
  242loPI   C4B 3872  10.659  11.664   8.598 -0.0801  0.1618 -0.1065
  243loPI    C1 3873   4.762  17.512  10.963 -0.0648 -0.0396 -0.0946
  243loPI    C2 3874   4.609  17.503  11.332 -0.0178  0.0277 -0.0732
  243loPI    C3 3875   4.910  17.259  11.234  0.0472  0.0909 -0.0324
  243loPI   PO4 3876   4.697  17.775  10.921  0.0666 -0.1401 -0.1681
  243loPI   GL1 3877   4.831  18.037  10.594  0.0633 -0.0049  0.0690
  243loPI   GL2 3878   4.636  18.249  10.540  0.2767 -0.2519  0.1297
  243loPI   C1A 3879   4.700  17.839  10.233 -0.1144  0.0791  0.1410
  243loPI   C2A 3880   4.555  17.664   9.908  0.1351  0.0788 -0.3883
  243loPI   C3A 3881   4.546  17.471   9.496 -0.2644 -0.1463  0.2089
  243loPI   C4A 3882   4.543  17.315   9.104  0.1041 -0.0010 -0.0033
  243loPI   C5A 3883   4.503  17.163   8.679 -0.0605 -0.1618  0.0476
  243loPI   C6A 3884   4.162  17.012   8.395 -0.2260 -0.1535  0.2176
  243loPI   C1B 3885   4.772  18.300  10.087  0.0974 -0.0923  0.1741
  243loPI   C2B 3886   4.816  18.323   9.644 -0.1766  0.0470  0.0425
  243loPI   C3B 3887   5.031  18.250   9.193 -0.1824  0.1421  0.1027
  243loPI   C4B 3888   5.308  17.993   9.030 -0.0686 -0.0194  0.2791
  244loPI    C1 3889   7.130   5.536  10.997 -0.0538  0.0612 -0.1081
  244loPI    C2 3890   6.927   5.667  11.316 -0.2289 -0.3265 -0.0543
  244loPI    C3 3891   7.316   5.580  11.349 -0.0796  0.2718 -0.1196
  244loPI   PO4 3892   7.136   5.722  10.834 -0.0699 -0.1275 -0.2534
  244loPI   GL1 3893   7.272   5.904  10.409  0.0773 -0.0417 -0.2773
  244loPI   GL2 3894   7.481   5.766  10.345 -0.2844 -0.1787 -0.0320
  244loPI   C1A 3895   7.090   6.149  10.037  0.2636  0.0344  0.0018
  244loPI   C2A 3896   7.116   6.298   9.540  0.0305  0.2125 -0.1491
  244loPI   C3A 3897   7.135   6.335   9.190 -0.1106  0.1301  0.0175
  244loPI   C4A 3898   7.081   6.454   8.728 -0.1001  0.1901  0.2067
  244loPI   C5A 3899   6.966   6.402   8.310  0.0270 -0.0984  0.3756
  244loPI   C6A 3900   6.761   6.204   7.974 -0.0779  0.2284 -0.0441
  244loPI   C1B 3901   7.377   5.805   9.828 -0.0447 -0.0374  0.1733
  244loPI   C2B 3902   7.461   5.969   9.406  0.2349 -0.2821  0.0592
  244loPI   C3B 3903   7.422   6.071   8.947  0.0048  0.0206 -0.0449
  244loPI   C4B 3904   7.488   6.112   8.521 -0.0372  0.2957 -0.3283
  245loPI    C1 3905   2.649   5.998  10.863 -0.1044 -0.1401 -0.0801
  245loPI    C2 3906   2.400   5.778  10.640 -0.1047 -0.0578 -0.1614
  245loPI    C3 3907   2.795   5.751  10.584 -0.0955 -0.1765 -0.0433
  245loPI   PO4 3908   2.625   6.273  10.848  0.2581 -0.0251  0.1550
  245loPI   GL1 3909   2.685   6.448  10.436 -0.1991  0.2006 -0.0324
  245loPI   GL2 3910   2.589   6.144  10.343 -0.2410 -0.2393  0.0070
  245loPI   C1A 3911   2.812   6.556   9.956 -0.2590 -0.2597 -0.0922
  245loPI   C2A 3912   2.909   6.462   9.629 -0.4488  0.1248 -0.0706
  245loPI   C3A 3913   2.897   6.452   9.174 -0.3347 -0.0701 -0.2590
  245loPI   C4A 3914   2.937   6.456   8.797  0.1946  0.2551  0.1295
  245loPI   C5A 3915   3.126   6.433   8.313  0.5591 -0.0290  0.1314
  245loPI   C6A 3916   3.112   6.622   7.865  0.2137 -0.3977 -0.0667
  245loPI   C1B 3917   2.764   6.075   9.897 -0.2677 -0.1662 -0.1339
  245loPI   C2B 3918   2.873   5.966   9.415 -0.1200  0.1875 -0.0478
  245loPI   C3B 3919   2.957   5.935   8.952  0.0478  0.0725 -0.1245
  245loPI   C4B 3920   2.968   5.892   8.553 -0.1483 -0.0401 -0.0996
  246loPI    C1 3921   2.722   3.807  10.899  0.1229 -0.0363 -0.1057
  246loPI    C2 3922   2.450   3.688  10.632  0.1501 -0.0753 -0.1162
  246loPI    C3 3923   2.335   3.798  10.999  0.1052  0.0439 -0.1651
  246loPI   PO4 3924   2.875   3.616  10.904 -0.1199 -0.0619  0.2119
  246loPI   GL1 3925   3.020   3.558  10.488 -0.2253 -0.2913  0.2060
  246loPI   GL2 3926   2.789   3.782  10.315  0.0849  0.0637 -0.0364
  246loPI   C1A 3927   3.217   3.445  10.149 -0.0288 -0.1721  0.2402
  246loPI   C2A 3928   3.336   3.336   9.732 -0.1713 -0.3280 -0.1641
  246loPI   C3A 3929   3.281   3.331   9.306  0.3984 -0.2046  0.0189
  246loPI   C4A 3930   3.334   3.145   8.954  0.0952 -0.1780 -0.2915
  246loPI   C5A 3931   3.486   2.942   8.589  0.1160  0.2225  0.0136
  246loPI   C6A 3932   3.638   2.483   8.530  0.2487  0.0950  0.3755
  246loPI   C1B 3933   2.864   3.744   9.802 -0.2801 -0.1421 -0.1922
  246loPI   C2B 3934   2.820   3.639   9.332  0.0534 -0.2893  0.0396
  246loPI   C3B 3935   3.011   3.530   8.919 -0.0039  0.0289 -0.1668
  246loPI   C4B 3936   3.071   3.369   8.559 -0.0931 -0.0504 -0.2720
  247loPI    C1 3937   1.066  11.358  11.221  0.0921  0.1308  0.1469
  247loPI    C2 3938   0.929  11.053  11.442 -0.1351  0.0260 -0.1306
  247loPI    C3 3939   1.077  11.380  11.620 -0.5639  0.0591  0.1807
  247loPI   PO4 3940   0.858  11.423  11.051 -0.0751 -0.1245 -0.1325
  247loPI   GL1 3941   0.794  11.595  10.652 -0.1453 -0.0085 -0.2390
  247loPI   GL2 3942   0.524  11.751  10.469  0.1011  0.1445 -0.2840
  247loPI   C1A 3943   0.859  11.603  10.157 -0.0294 -0.2509  0.2988
  247loPI   C2A 3944   0.870  11.574   9.726 -0.2524  0.0342  0.3108
  247loPI   C3A 3945   0.819  11.660   9.270 -0.0353  0.0050  0.0830
  247loPI   C4A 3946   0.530  11.862   9.038  0.1513 -0.3114  0.1019
  247loPI   C5A 3947   0.403  12.174   8.672 -0.0281  0.2522  0.3023
  247loPI   C6A 3948   0.416  12.144   8.187  0.1885  0.1348 -0.1588
  247loPI   C1B 3949   0.308  11.570  10.038  0.1408 -0.0787 -0.1011
  247loPI   C2B 3950   0.034  11.766   9.677 -0.1139  0.0653 -0.2860
  247loPI   C3B 3951   0.174  11.995   9.306  0.0914  0.0480  0.1753
  247loPI   C4B 3952   0.443  12.353   9.154 -0.2560 -0.2437 -0.0440
  248loPI    C1 3953  12.766  12.365  11.166 -0.2698 -0.2291  0.0193
  248loPI    C2 3954  12.581  12.011  11.193 -0.0989 -0.3039  0.2371
  248loPI    C3 3955  12.894  12.092  11.430 -0.0759 -0.0434  0.1207
  248loPI   PO4 3956  12.793  12.354  10.854  0.0273  0.0451 -0.2533
  248loPI   GL1 3957  12.966  12.241  10.448 -0.0804 -0.0888  0.1135
  248loPI   GL2 3958  13.162  12.212  10.528  0.1867 -0.4149  0.1627
  248loPI   C1A 3959  12.916  12.506  10.075 -0.1656 -0.0251 -0.0931
  248loPI   C2A 3960  12.978  12.553   9.713 -0.0611 -0.1383 -0.0957
  248loPI   C3A 3961  13.001  12.613   9.341 -0.0390 -0.1683  0.1297
  248loPI   C4A 3962  12.946  12.701   8.857 -0.0345 -0.0344 -0.1021
  248loPI   C5A 3963  12.996  12.861   8.411 -0.1883 -0.0613 -0.1386
  248loPI   C6A 3964  12.894  12.799   7.962 -0.2491 -0.1064  0.0474
  248loPI   C1B 3965  13.418  12.444  10.262  0.3295 -0.2069  0.0894
  248loPI   C2B 3966  13.417  12.503   9.828 -0.2105 -0.1842 -0.2320
  248loPI   C3B 3967  13.463  12.454   9.370  0.1631  0.2748  0.3481
  248loPI   C4B 3968  13.433  12.395   9.019  0.0392  0.0975  0.0886
  249loPI    C1 3969  11.540  13.527  10.848  0.1199 -0.0628  0.0089
  249loPI    C2 3970  11.681  13.297  11.143  0.0928 -0.0315  0.0466
  249loPI    C3 3971  11.451  13.613  11.229 -0.1078 -0.1567 -0.0212
  249loPI   PO4 3972  11.402  13.314  10.703 -0.2369 -0.0879 -0.0773
  249loPI   GL1 3973  11.410  13.136  10.390  0.1872 -0.0117  0.2267
  249loPI   GL2 3974  11.363  12.756  10.337  0.3810 -0.1050 -0.1360
  249loPI   C1A 3975  11.645  13.020   9.907  0.2372 -0.1556  0.1570
  249loPI   C2A 3976  11.717  13.056   9.493 -0.1037  0.0925 -0.0140
  249loPI   C3A 3977  11.749  12.981   9.059  0.2358 -0.1855 -0.0656
  249loPI   C4A 3978  11.615  13.128   8.625 -0.5229 -0.1999 -0.1003
  249loPI   C5A 3979  11.563  12.963   8.242 -0.0009  0.1668  0.0324
  249loPI   C6A 3980  11.753  12.651   7.894 -0.0223 -0.3498  0.0804
  249loPI   C1B 3981  11.332  12.617   9.911 -0.0287  0.0038 -0.1033
  249loPI   C2B 3982  11.369  12.459   9.472 -0.3567 -0.0986  0.1627
  249loPI   C3B 3983  11.486  12.503   9.076 -0.0489  0.3585  0.0809
  249loPI   C4B 3984  11.580  12.626   8.688  0.1792 -0.1280 -0.1461
  250loPI    C1 3985   8.323   0.300  11.295  0.1933  0.0514 -0.0516
  250loPI    C2 3986   8.131   0.132  11.603  0.0160 -0.0354 -0.2071
  250loPI    C3 3987   8.466   0.341  11.666 -0.0184 -0.0525  0.0435
  250loPI   PO4 3988   8.243   0.293  11.084  0.0502 -0.1403  0.2182
  250loPI   GL1 3989   8.216   0.426  10.714 -0.0984 -0.0870  0.0881
  250loPI   GL2 3990   8.402   0.693  10.533 -0.2127 -0.0810  0.2842
  250loPI   C1A 3991   7.915   0.691  10.489 -0.3327  0.0773  0.2395
  250loPI   C2A 3992   7.945   0.819  10.073 -0.0728  0.1686 -0.1251
  250loPI   C3A 3993   7.916   0.900   9.644 -0.1300  0.1664  0.0474
  250loPI   C4A 3994   7.797   0.898   9.287  0.2192  0.1445 -0.0375
  250loPI   C5A 3995   7.739   0.902   8.855 -0.1168  0.0278 -0.1061
  250loPI   C6A 3996   7.980   0.896   8.547  0.0546 -0.0090  0.4236
  250loPI   C1B 3997   8.348   0.544  10.106  0.0706 -0.2285  0.0714
  250loPI   C2B 3998   8.293   0.572   9.680 -0.0796 -0.0703 -0.0160
  250loPI   C3B 3999   8.270   0.566   9.296  0.1415 -0.3068  0.1627
  250loPI   C4B 4000   8.045   0.523   8.916  0.0127  0.0010  0.1691
  251loPI    C1 4001   9.836   0.968  10.838  0.2987 -0.2225  0.1998
  251loPI    C2 4002   9.597   0.903  11.152  0.2746 -0.1354  0.1995
  251loPI    C3 4003   9.991   0.946  11.207  0.2522  0.0326  0.2363
  251loPI   PO4 4004   9.642   0.914  10.634  0.2749 -0.2084 -0.0374
  251loPI   GL1 4005   9.674   1.064  10.225 -0.0003 -0.0637  0.0654
  251loPI   GL2 4006   9.414   1.295  10.257 -0.1862 -0.1782 -0.4424
  251loPI   C1A 4007   9.778   1.027   9.794 -0.0134 -0.0199  0.0011
  251loPI   C2A 4008   9.729   1.030   9.407 -0.0384  0.1422  0.0200
  251loPI   C3A 4009   9.609   0.987   9.001 -0.0814 -0.2847 -0.0952
  251loPI   C4A 4010   9.669   0.877   8.575  0.1167 -0.5051 -0.1760
  251loPI   C5A 4011   9.856   0.729   8.120  0.2606 -0.0156 -0.3164
  251loPI   C6A 4012  10.262   0.565   8.257  0.0021  0.4346  0.2085
  251loPI   C1B 4013   9.390   1.324   9.763  0.0997 -0.0196  0.2204
  251loPI   C2B 4014   9.313   1.353   9.368  0.0194 -0.2411 -0.0139
  251loPI   C3B 4015   9.319   1.381   8.924  0.3426  0.3363 -0.1323
  251loPI   C4B 4016   9.652   1.414   8.625 -0.1829 -0.1780  0.1005
  252loPI    C1 4017  15.644   7.660  10.391  0.0742 -0.0192  0.0134
  252loPI    C2 4018  15.920   7.452  10.190 -0.1441 -0.0544 -0.2551
  252loPI    C3 4019  15.822   7.345  10.563 -0.0169 -0.2298 -0.2707
  252loPI   PO4 4020  15.481   7.752  10.164  0.0779 -0.2579  0.1878
  252loPI   GL1 4021  15.679   7.750   9.820  0.0532 -0.3610 -0.0363
  252loPI   GL2 4022  15.853   8.019   9.708 -0.1452  0.0962 -0.2752
  252loPI   C1A 4023  15.965   7.533   9.732  0.4053  0.1466 -0.0645
  252loPI   C2A 4024  16.302   7.432   9.475  0.1468  0.1290 -0.2382
  252loPI   C3A 4025  16.485   7.618   9.162  0.3107 -0.0581  0.3111
  252loPI   C4A 4026  16.672   7.505   8.822 -0.3351  0.2443  0.1233
  252loPI   C5A 4027  16.531   7.418   8.474 -0.0095  0.3621  0.1538
  252loPI   C6A 4028  16.405   7.283   8.068 -0.0788  0.0679  0.1014
  252loPI   C1B 4029  15.648   8.098   9.353  0.0184  0.1697 -0.2602
  252loPI   C2B 4030  15.618   8.063   8.937  0.0717  0.1280 -0.2472
  252loPI   C3B 4031  15.776   8.185   8.612 -0.1068  0.1790 -0.1985
  252loPI   C4B 4032  15.589   8.215   8.129 -0.0068 -0.0520 -0.1946
  253loPI    C1 4033  11.802   2.092  10.707  0.0591 -0.1559 -0.0290
  253loPI    C2 4034  11.547   1.848  10.518  0.1219 -0.1120 -0.1720
  253loPI    C3 4035  11.545   1.870  10.918 -0.1582 -0.0470 -0.1755
  253loPI   PO4 4036  11.966   2.083  10.438 -0.0021  0.0411 -0.2018
  253loPI   GL1 4037  11.839   2.107  10.020 -0.1677 -0.1278  0.0738
  253loPI   GL2 4038  11.513   2.085  10.058  0.3365 -0.0518 -0.2472
  253loPI   C1A 4039  11.882   2.050   9.560 -0.1635  0.0824  0.1550
  253loPI   C2A 4040  11.825   2.074   9.172 -0.0210 -0.0937  0.0663
  253loPI   C3A 4041  11.931   2.156   8.724 -0.0485  0.1080  0.1229
  253loPI   C4A 4042  11.900   2.067   8.318 -0.0073 -0.0745  0.0853
  253loPI   C5A 4043  12.081   1.761   8.086  0.0361  0.0419  0.1002
  253loPI   C6A 4044  12.042   1.546   7.672  0.0956 -0.1911  0.0155
  253loPI   C1B 4045  11.408   1.974   9.709 -0.3031 -0.0139 -0.0476
  253loPI   C2B 4046  11.247   2.068   9.357 -0.2148  0.0854  0.1542
  253loPI   C3B 4047  11.233   2.080   8.933 -0.5207 -0.1132 -0.0806
  253loPI   C4B 4048  10.981   2.149   8.607 -0.0403 -0.3608  0.1455
  254loPI    C1 4049   6.308   6.826  10.745 -0.0895  0.3320  0.3029
  254loPI    C2 4050   6.555   7.114  10.617 -0.0882  0.2012  0.0035
  254loPI    C3 4051   6.524   7.036  11.008  0.3269  0.2350  0.0480
  254loPI   PO4 4052   6.328   6.678  10.508  0.3216 -0.0663  0.2065
  254loPI   GL1 4053   6.453   6.749  10.107  0.1048  0.0546 -0.0384
  254loPI   GL2 4054   6.211   6.516  10.074  0.3389 -0.1837  0.0593
  254loPI   C1A 4055   6.812   6.738   9.898  0.0728 -0.4447 -0.3557
  254loPI   C2A 4056   6.802   6.792   9.501  0.0221 -0.1702 -0.3425
  254loPI   C3A 4057   6.887   6.744   9.078  0.0253 -0.1062 -0.3321
  254loPI   C4A 4058   6.896   6.918   8.605 -0.3596 -0.2170  0.1336
  254loPI   C5A 4059   6.671   7.135   8.217  0.2975 -0.2706  0.2637
  254loPI   C6A 4060   6.415   7.515   8.200 -0.1048  0.1684  0.0871
  254loPI   C1B 4061   6.300   6.675   9.604 -0.0300 -0.0769 -0.1193
  254loPI   C2B 4062   6.344   6.741   9.149  0.2623  0.0588 -0.1950
  254loPI   C3B 4063   6.492   6.670   8.737 -0.2476  0.1070 -0.0857
  254loPI   C4B 4064   6.362   6.636   8.280  0.0886  0.0087  0.1062
  255loPI    C1 4065   3.772  15.491  10.835 -0.1341  0.0489 -0.0309
  255loPI    C2 4066   3.444  15.527  11.062 -0.3411 -0.0685 -0.3058
  255loPI    C3 4067   3.531  15.177  10.889  0.3328 -0.2580  0.3593
  255loPI   PO4 4068   3.823  15.748  10.764  0.0089 -0.0177 -0.0290
  255loPI   GL1 4069   3.771  15.935  10.430  0.3017 -0.1078  0.0184
  255loPI   GL2 4070   3.902  16.186  10.529 -0.3147  0.1062  0.0645
  255loPI   C1A 4071   3.800  15.919  10.059 -0.0505  0.0076  0.1181
  255loPI   C2A 4072   3.730  15.833   9.722 -0.3684 -0.1847 -0.1422
  255loPI   C3A 4073   3.630  15.701   9.359 -0.2672  0.1176  0.1337
  255loPI   C4A 4074   3.669  15.761   8.922  0.0979 -0.2137  0.2807
  255loPI   C5A 4075   3.737  15.634   8.521 -0.2455  0.1032 -0.0666
  255loPI   C6A 4076   3.912  15.460   8.169 -0.0335 -0.0817 -0.3541
  255loPI   C1B 4077   4.100  16.344  10.135  0.1228 -0.2225  0.0419
  255loPI   C2B 4078   4.128  16.186   9.776  0.1016 -0.2891  0.0375
  255loPI   C3B 4079   4.051  16.064   9.395 -0.0641  0.0201  0.0046
  255loPI   C4B 4080   3.986  16.112   8.900  0.0098 -0.1463  0.1790
  256loPI    C1 4081  14.804  14.204  11.352  0.0986 -0.1292  0.0766
  256loPI    C2 4082  14.854  14.569  11.508  0.1780 -0.0326 -0.1699
  256loPI    C3 4083  14.568  14.328  11.650  0.1808  0.0921  0.0516
  256loPI   PO4 4084  14.810  14.245  11.108  0.0172 -0.3028 -0.0267
  256loPI   GL1 4085  14.782  13.969  10.702  0.0888 -0.2938 -0.3632
  256loPI   GL2 4086  15.042  13.630  10.696 -0.1152 -0.1933  0.1132
  256loPI   C1A 4087  14.797  13.861  10.303  0.2543 -0.2832 -0.1393
  256loPI   C2A 4088  14.875  13.714   9.913  0.1207  0.1488 -0.1096
  256loPI   C3A 4089  14.883  13.742   9.477  0.1839 -0.1183  0.0507
  256loPI   C4A 4090  14.964  13.621   9.016  0.0948 -0.0916 -0.0115
  256loPI   C5A 4091  15.266  13.883   8.704 -0.1926 -0.2157 -0.0128
  256loPI   C6A 4092  15.647  13.824   8.455  0.0088  0.0559 -0.2595
  256loPI   C1B 4093  14.906  13.366  10.379 -0.1716 -0.0559 -0.1814
  256loPI   C2B 4094  15.021  13.221   9.928  0.2246 -0.4633  0.1126
  256loPI   C3B 4095  15.019  13.204   9.515  0.3105  0.0065  0.1812
  256loPI   C4B 4096  15.115  13.082   9.092 -0.0986 -0.1986 -0.0345
  257loPI    C1 4097   1.463  17.122  11.089 -0.0240  0.1428 -0.0119
  257loPI    C2 4098   1.235  17.414  10.940 -0.2785 -0.0431  0.0065
  257loPI    C3 4099   1.092  17.177  11.229 -0.0433 -0.1323  0.0517
  257loPI   PO4 4100   1.659  17.152  10.974  0.1060 -0.4518  0.0752
  257loPI   GL1 4101   1.703  17.028  10.572 -0.0243 -0.0221  0.0508
  257loPI   GL2 4102   1.410  17.196  10.506 -0.3484 -0.0946 -0.3060
  257loPI   C1A 4103   1.830  17.012  10.089  0.1812 -0.1838  0.2071
  257loPI   C2A 4104   1.872  16.989   9.671 -0.0012  0.0489 -0.3893
  257loPI   C3A 4105   1.882  17.049   9.272  0.4915  0.0215 -0.1075
  257loPI   C4A 4106   1.918  17.078   8.876  0.1909 -0.1970  0.1879
  257loPI   C5A 4107   2.043  16.972   8.488  0.0984 -0.0175 -0.2777
  257loPI   C6A 4108   2.305  17.150   8.178 -0.0449 -0.0265  0.0817
  257loPI   C1B 4109   1.332  17.093  10.011 -0.0157  0.0335 -0.1190
  257loPI   C2B 4110   1.393  17.169   9.523 -0.0262 -0.1728  0.1841
  257loPI   C3B 4111   1.366  17.101   9.080 -0.1948 -0.2647 -0.1833
  257loPI   C4B 4112   1.317  16.952   8.734 -0.1386 -0.0729  0.0851
  258loPI    C1 4113  14.012  17.451  11.255 -0.2129 -0.0901  0.2954
  258loPI    C2 4114  14.287  17.698  11.408 -0.2111  0.0050  0.1411
  258loPI    C3 4115  14.009  17.537  11.646 -0.0061 -0.1151  0.3040
  258loPI   PO4 4116  13.961  17.573  11.010  0.0573  0.2538  0.0626
  258loPI   GL1 4117  13.815  17.892  10.693 -0.1169  0.0775  0.1576
  258loPI   GL2 4118  13.496  17.956  10.531  0.1490  0.1387  0.1014
  258loPI   C1A 4119  13.825  17.551  10.337 -0.3176 -0.0764  0.0155
  258loPI   C2A 4120  13.902  17.335   9.963  0.2766  0.0908  0.0099
  258loPI   C3A 4121  13.969  17.301   9.504  0.4387  0.0447  0.0420
  258loPI   C4A 4122  13.863  17.373   9.105  0.3068 -0.0150 -0.0233
  258loPI   C5A 4123  13.990  17.681   8.753  0.0644 -0.0486  0.1501
  258loPI   C6A 4124  14.246  18.115   8.509 -0.0159 -0.2730  0.0329
  258loPI   C1B 4125  13.409  17.856  10.142 -0.0768 -0.0113 -0.2512
  258loPI   C2B 4126  13.598  17.716   9.778  0.1494  0.3087 -0.2010
  258loPI   C3B 4127  13.580  17.666   9.356 -0.1855  0.0548 -0.2152
  258loPI   C4B 4128  13.493  17.665   8.873 -0.0584  0.0519 -0.0751
  259loPI    C1 4129  15.267  14.605  11.251 -0.0082 -0.0644 -0.0630
  259loPI    C2 4130  15.286  14.277  11.478  0.0892 -0.0409 -0.0369
  259loPI    C3 4131  15.341  14.637  11.642  0.1894 -0.0260 -0.1025
  259loPI   PO4 4132  15.419  14.656  11.045  0.1063  0.0805  0.0541
  259loPI   GL1 4133  15.207  14.743  10.669 -0.5383 -0.0986 -0.3231
  259loPI   GL2 4134  15.088  14.413  10.711  0.3057 -0.1521 -0.0687
  259loPI   C1A 4135  15.021  14.692  10.325 -0.1205  0.5123 -0.0877
  259loPI   C2A 4136  15.095  14.646   9.854 -0.0982 -0.0298 -0.1094
  259loPI   C3A 4137  15.108  14.537   9.377 -0.1912 -0.1311 -0.0053
  259loPI   C4A 4138  15.109  14.483   8.988 -0.0934 -0.2236  0.0209
  259loPI   C5A 4139  15.248  14.371   8.632 -0.0950 -0.0367  0.2536
  259loPI   C6A 4140  15.478  14.547   8.352  0.0203  0.0140  0.3052
  259loPI   C1B 4141  15.166  14.184  10.335 -0.0176 -0.0409  0.0193
  259loPI   C2B 4142  15.143  14.164   9.991 -0.2202  0.0698  0.0071
  259loPI   C3B 4143  15.294  14.080   9.554  0.1425  0.2197 -0.2506
  259loPI   C4B 4144  15.231  14.048   9.175 -0.0437 -0.1687 -0.0336
  260loPI    C1 4145  17.401   7.558  10.469 -0.1237  0.1119  0.1677
  260loPI    C2 4146  17.572   7.340  10.757 -0.0353  0.0568  0.0743
  260loPI    C3 4147  17.304   7.621  10.852 -0.2681 -0.1977  0.1848
  260loPI   PO4 4148  17.691   7.565  10.303  0.0989 -0.1811  0.1008
  260loPI   GL1 4149  17.582   7.376  10.001 -0.2315  0.0293 -0.2944
  260loPI   GL2 4150  17.790   7.471   9.792  0.0874 -0.1777 -0.0341
  260loPI   C1A 4151  17.344   7.637   9.707 -0.1057  0.1673  0.0438
  260loPI   C2A 4152  17.388   7.950   9.430  0.4927 -0.2141 -0.1614
  260loPI   C3A 4153  17.296   8.199   9.007  0.2027  0.0519  0.1192
  260loPI   C4A 4154  17.066   8.373   8.635 -0.3653  0.2211 -0.0346
  260loPI   C5A 4155  16.778   8.603   8.378 -0.0987 -0.1898  0.1223
  260loPI   C6A 4156  16.702   8.691   7.931  0.2210 -0.2655 -0.1237
  260loPI   C1B 4157  17.843   7.708   9.346  0.1018  0.0212 -0.1986
  260loPI   C2B 4158  17.579   7.818   8.989 -0.0183 -0.1167  0.0992
  260loPI   C3B 4159  17.551   7.711   8.592  0.1996  0.2420  0.0006
  260loPI   C4B 4160  17.552   7.470   8.233  0.2042 -0.2400 -0.0115
  261loPI    C1 4161   7.895   3.164  10.736  0.0732  0.1852 -0.1816
  261loPI    C2 4162   7.735   3.472  10.936  0.0443  0.1548 -0.1577
  261loPI    C3 4163   7.574   3.108  10.968  0.2314  0.0852  0.0162
  261loPI   PO4 4164   8.191   3.239  10.820 -0.0069  0.0810 -0.5010
  261loPI   GL1 4165   8.267   3.033  10.494  0.0551 -0.0660 -0.1370
  261loPI   GL2 4166   8.408   2.910  10.314 -0.0708 -0.0199 -0.0546
  261loPI   C1A 4167   8.056   3.262  10.130 -0.0263  0.1016 -0.2526
  261loPI   C2A 4168   8.001   3.328   9.716  0.1617  0.1275 -0.0139
  261loPI   C3A 4169   8.031   3.277   9.267 -0.3094  0.2112  0.3129
  261loPI   C4A 4170   7.882   3.323   8.819 -0.2860 -0.0885  0.2840
  261loPI   C5A 4171   7.876   3.189   8.334 -0.2889 -0.1178  0.0093
  261loPI   C6A 4172   7.813   3.211   7.865 -0.0068  0.2006 -0.1018
  261loPI   C1B 4173   8.317   2.859   9.968  0.0940 -0.1869  0.4266
  261loPI   C2B 4174   8.346   2.906   9.512  0.1727 -0.1551 -0.1748
  261loPI   C3B 4175   8.366   2.931   9.019  0.1448  0.0501  0.0092
  261loPI   C4B 4176   8.333   2.822   8.559 -0.2076 -0.0952 -0.0092
  262loPI    C1 4177   3.154   0.244  10.784 -0.1816  0.0156  0.0747
  262loPI    C2 4178   3.541   0.274  10.686 -0.1175 -0.1422  0.2733
  262loPI    C3 4179   3.313   0.602  10.704 -0.0794 -0.0847 -0.1824
  262loPI   PO4 4180   2.976   0.094  10.601  0.0696  0.2339  0.2918
  262loPI   GL1 4181   3.162   0.113  10.172  0.0246  0.2793  0.2160
  262loPI   GL2 4182   3.300   0.225  10.249  0.0809  0.1265 -0.2830
  262loPI   C1A 4183   3.435  -0.215   9.929  0.1586  0.0484  0.0610
  262loPI   C2A 4184   3.472  -0.363   9.481 -0.0073  0.0434 -0.1516
  262loPI   C3A 4185   3.561  -0.461   8.997 -0.2980 -0.1420 -0.0984
  262loPI   C4A 4186   3.574  -0.571   8.601  0.1100 -0.0598 -0.0351
  262loPI   C5A 4187   3.487  -0.806   8.200  0.0413  0.0202  0.2420
  262loPI   C6A 4188   3.106  -1.027   8.116 -0.0789  0.2385  0.0423
  262loPI   C1B 4189   3.512   0.313   9.845 -0.0398  0.1161  0.1734
  262loPI   C2B 4190   3.477   0.246   9.463 -0.3772  0.1498  0.1739
  262loPI   C3B 4191   3.366   0.093   9.073 -0.2568 -0.2666  0.0233
  262loPI   C4B 4192   3.450   0.009   8.637 -0.0943 -0.3128 -0.0424
  263loPI    C1 4193   9.092   2.515  11.088 -0.1120 -0.0804  0.0139
  263loPI    C2 4194   9.290   2.650  11.408  0.0874 -0.1304 -0.0871
  263loPI    C3 4195   9.188   2.264  11.384 -0.1820 -0.0701  0.0456
  263loPI   PO4 4196   9.223   2.676  10.907  0.1502 -0.1356  0.0749
  263loPI   GL1 4197   9.406   2.492  10.586  0.1595  0.1174  0.0566
  263loPI   GL2 4198   9.649   2.606  10.423 -0.1801 -0.1193  0.2306
  263loPI   C1A 4199   9.206   2.624  10.181  0.0376  0.1073 -0.0212
  263loPI   C2A 4200   9.232   2.668   9.743  0.0275 -0.1544  0.1084
  263loPI   C3A 4201   9.214   2.698   9.330  0.0455 -0.1415 -0.0733
  263loPI   C4A 4202   9.119   2.811   8.946 -0.1095  0.0427 -0.2585
  263loPI   C5A 4203   9.125   2.777   8.545  0.0136  0.1642 -0.1259
  263loPI   C6A 4204   8.794   3.018   8.270 -0.1493  0.1828 -0.1706
  263loPI   C1B 4205   9.684   2.714   9.976 -0.0592  0.1631 -0.0303
  263loPI   C2B 4206   9.704   2.799   9.536  0.0202  0.4700 -0.3220
  263loPI   C3B 4207   9.712   2.785   9.160 -0.0004 -0.0720  0.0054
  263loPI   C4B 4208   9.662   2.893   8.731 -0.0079  0.1501  0.3194
  264loPI    C1 4209   5.908  13.501  11.025 -0.1505 -0.1153  0.1230
  264loPI    C2 4210   6.103  13.645  11.344 -0.0311  0.0785 -0.0352
  264loPI    C3 4211   5.786  13.406  11.394  0.1075 -0.0548  0.2263
  264loPI   PO4 4212   6.103  13.388  10.918 -0.2720  0.2227  0.1896
  264loPI   GL1 4213   6.145  13.464  10.498  0.1182 -0.0476 -0.1538
  264loPI   GL2 4214   5.849  13.531  10.415 -0.1815 -0.0189 -0.3347
  264loPI   C1A 4215   6.206  13.262  10.070  0.0738  0.4057 -0.0204
  264loPI   C2A 4216   6.163  13.259   9.663 -0.0141  0.0040  0.0502
  264loPI   C3A 4217   6.308  12.893   9.535 -0.0602 -0.0966  0.2079
  264loPI   C4A 4218   6.068  12.706   9.216 -0.2204  0.2958  0.2061
  264loPI   C5A 4219   6.057  12.507   8.782 -0.1616  0.0620 -0.0973
  264loPI   C6A 4220   5.784  12.230   8.403 -0.0240 -0.1808 -0.1318
  264loPI   C1B 4221   6.009  13.735   9.987 -0.1908  0.2497  0.1198
  264loPI   C2B 4222   6.096  13.729   9.535 -0.0627  0.0698 -0.2070
  264loPI   C3B 4223   6.048  13.503   9.145  0.1290  0.1389 -0.1646
  264loPI   C4B 4224   6.135  13.438   8.737 -0.0285 -0.0738  0.1419
  265loPI    C1 4225   4.286   7.230  10.853 -0.0631  0.1677 -0.0603
  265loPI    C2 4226   4.581   7.423  11.042  0.1644 -0.1260 -0.1082
  265loPI    C3 4227   4.287   7.252  11.252  0.0736  0.0912 -0.0558
  265loPI   PO4 4228   4.215   7.481  10.601 -0.1479  0.1176 -0.1181
  265loPI   GL1 4229   4.146   7.658  10.201 -0.0583 -0.1327  0.1672
  265loPI   GL2 4230   4.445   7.609  10.142  0.1456 -0.2247 -0.1480
  265loPI   C1A 4231   4.168   7.835   9.741  0.1105 -0.2898 -0.0456
  265loPI   C2A 4232   4.249   7.915   9.343  0.1744 -0.1829 -0.2116
  265loPI   C3A 4233   4.406   7.855   8.979  0.0596 -0.1313 -0.1778
  265loPI   C4A 4234   4.227   7.743   8.654  0.0079 -0.0123  0.2050
  265loPI   C5A 4235   4.242   7.433   8.342 -0.0661 -0.3850  0.0296
  265loPI   C6A 4236   4.089   7.261   7.905  0.0492 -0.0208  0.3842
  265loPI   C1B 4237   4.556   7.563   9.730 -0.0315 -0.1032 -0.1268
  265loPI   C2B 4238   4.648   7.538   9.360  0.1715  0.0825  0.2547
  265loPI   C3B 4239   4.828   7.473   8.940 -0.0430  0.0511 -0.0454
  265loPI   C4B 4240   4.690   7.333   8.513 -0.0371  0.0154 -0.1333
  266loPI    C1 4241  17.866   8.878  10.411  0.0271  0.0596  0.0496
  266loPI    C2 4242  17.485   8.842  10.295  0.0578 -0.0279 -0.0250
  266loPI    C3 4243  17.588   8.759  10.673  0.0282 -0.1521 -0.0439
  266loPI   PO4 4244  18.084   8.716  10.209  0.1023  0.3079  0.0572
  266loPI   GL1 4245  18.239   8.525   9.792  0.0731 -0.2822 -0.3061
  266loPI   GL2 4246  18.576   8.346   9.793 -0.2923 -0.0698  0.0910
  266loPI   C1A 4247  18.181   8.530   9.411  0.0295 -0.2585  0.1558
  266loPI   C2A 4248  18.194   8.506   9.015 -0.1450 -0.1896  0.0360
  266loPI   C3A 4249  18.188   8.289   8.657  0.0687  0.1509 -0.0741
  266loPI   C4A 4250  18.235   8.295   8.187  0.1597  0.0185 -0.0390
  266loPI   C5A 4251  18.331   8.406   7.713 -0.0061 -0.1784  0.1531
  266loPI   C6A 4252  18.254   8.527   7.342  0.1405 -0.0982 -0.0474
  266loPI   C1B 4253  18.640   8.356   9.346  0.1734  0.2920 -0.0637
  266loPI   C2B 4254  18.654   8.444   8.906 -0.0422  0.0764 -0.1837
  266loPI   C3B 4255  18.629   8.281   8.542 -0.1536  0.0424  0.1447
  266loPI   C4B 4256  18.627   8.057   8.129 -0.1888  0.2265  0.1903
  267loPI    C1 4257  15.726  16.954  11.106  0.0636 -0.1887 -0.0592
  267loPI    C2 4258  15.857  17.183  11.407  0.0818 -0.2683 -0.0063
  267loPI    C3 4259  15.467  17.174  11.319  0.0792 -0.2279  0.0004
  267loPI   PO4 4260  15.961  17.003  10.908 -0.0817  0.1361 -0.3846
  267loPI   GL1 4261  16.037  17.227  10.554 -0.1738 -0.0488  0.2304
  267loPI   GL2 4262  15.646  17.185  10.536 -0.1778 -0.1186  0.2412
  267loPI   C1A 4263  16.383  17.136  10.221  0.4185  0.0693 -0.0419
  267loPI   C2A 4264  16.398  17.092   9.793  0.1477 -0.0802  0.1286
  267loPI   C3A 4265  16.439  17.127   9.424 -0.2712  0.0865  0.1238
  267loPI   C4A 4266  16.648  17.270   9.143  0.2161  0.0528  0.0147
  267loPI   C5A 4267  16.529  17.203   8.711  0.2400  0.4490  0.0917
  267loPI   C6A 4268  16.195  17.123   8.462  0.0144  0.5529  0.0245
  267loPI   C1B 4269  15.801  17.196  10.142 -0.2297 -0.0134  0.1424
  267loPI   C2B 4270  15.876  17.172   9.673 -0.3425 -0.2514  0.0194
  267loPI   C3B 4271  15.981  17.209   9.298 -0.0841 -0.2911  0.0153
  267loPI   C4B 4272  16.090  17.274   8.953 -0.2868  0.0891 -0.0380
  268loPI    C1 4273  10.837   8.062  10.968 -0.0152  0.0918 -0.0716
  268loPI    C2 4274  10.491   7.994  10.780  0.0540  0.1316 -0.2145
  268loPI    C3 4275  10.490   8.147  11.149 -0.0912 -0.2354 -0.0576
  268loPI   PO4 4276  10.963   8.238  10.784 -0.2440 -0.1202  0.0348
  268loPI   GL1 4277  11.051   8.155  10.458 -0.1180 -0.1898  0.2125
  268loPI   GL2 4278  10.758   8.156  10.289  0.1662 -0.0382  0.1962
  268loPI   C1A 4279  11.166   7.950  10.062  0.1745  0.0745  0.1250
  268loPI   C2A 4280  11.106   7.837   9.617 -0.1293 -0.3890  0.0947
  268loPI   C3A 4281  11.040   7.866   9.222  0.1614  0.0748  0.0034
  268loPI   C4A 4282  11.041   7.974   8.820 -0.0382 -0.3837  0.1169
  268loPI   C5A 4283  11.050   8.229   8.364  0.1947  0.2060  0.0808
  268loPI   C6A 4284  11.199   8.210   7.999  0.1019  0.1864 -0.0076
  268loPI   C1B 4285  10.641   7.830   9.918  0.1088  0.0952  0.0245
  268loPI   C2B 4286  10.596   7.879   9.492 -0.1020 -0.0888 -0.2034
  268loPI   C3B 4287  10.579   7.900   9.069 -0.0844 -0.0994 -0.1020
  268loPI   C4B 4288  10.607   7.938   8.502  0.2850  0.0087 -0.1430
  269loPI    C1 4289   1.657  16.141  11.222 -0.0531  0.3493 -0.2358
  269loPI    C2 4290   1.764  16.435  11.471  0.0033  0.0971  0.0447
  269loPI    C3 4291   1.444  16.210  11.554 -0.1634  0.2089 -0.2765
  269loPI   PO4 4292   1.633  16.234  10.956 -0.0489  0.3496  0.0256
  269loPI   GL1 4293   1.780  16.383  10.544  0.1169 -0.0045 -0.0609
  269loPI   GL2 4294   1.624  16.120  10.484 -0.0793 -0.0403  0.0921
  269loPI   C1A 4295   1.991  16.501  10.197 -0.4524  0.1198 -0.0657
  269loPI   C2A 4296   2.060  16.548   9.714  0.0860 -0.1815  0.2873
  269loPI   C3A 4297   2.073  16.581   9.270  0.1864 -0.1272  0.0896
  269loPI   C4A 4298   2.084  16.464   8.968 -0.2258 -0.1536 -0.1364
  269loPI   C5A 4299   2.143  16.504   8.554 -0.1439 -0.1444 -0.0304
  269loPI   C6A 4300   2.174  16.612   8.107  0.1656  0.1131 -0.0866
  269loPI   C1B 4301   1.658  16.162  10.082 -0.0543  0.1258 -0.1759
  269loPI   C2B 4302   1.706  16.169   9.625  0.1855 -0.2847 -0.1467
  269loPI   C3B 4303   1.688  16.250   9.205  0.4255 -0.0287 -0.0956
  269loPI   C4B 4304   1.801  16.110   8.746  0.1916 -0.2330  0.0392
  270loPI    C1 4305  11.274  15.656  11.408  0.0993 -0.0358 -0.1045
  270loPI    C2 4306  11.290  15.974  11.166  0.3243  0.0310 -0.0044
  270loPI    C3 4307  11.302  16.023  11.563 -0.0554 -0.0771  0.0250
  270loPI   PO4 4308  11.343  15.471  11.143  0.2711  0.1221 -0.0866
  270loPI   GL1 4309  11.266  15.595  10.704  0.0532  0.4280  0.3131
  270loPI   GL2 4310  11.357  15.851  10.632  0.0178 -0.4165 -0.0948
  270loPI   C1A 4311  11.145  15.490  10.299 -0.0895 -0.1332 -0.2199
  270loPI   C2A 4312  11.237  15.526   9.856 -0.0526 -0.1787  0.1539
  270loPI   C3A 4313  11.268  15.664   9.296  0.0661 -0.4486  0.2945
  270loPI   C4A 4314  11.346  15.476   8.936  0.1083  0.0004  0.0450
  270loPI   C5A 4315  11.421  15.491   8.513  0.0003  0.3399 -0.0267
  270loPI   C6A 4316  11.626  15.447   8.145  0.0472  0.0461  0.0169
  270loPI   C1B 4317  11.598  15.680  10.273 -0.2756  0.1483  0.0538
  270loPI   C2B 4318  11.657  15.778   9.888 -0.1839  0.2439  0.2815
  270loPI   C3B 4319  11.753  15.829   9.535 -0.2399  0.3213 -0.0642
  270loPI   C4B 4320  11.813  15.599   9.137  0.2199  0.1142  0.0694
  271loPI    C1 4321  13.319   2.967  10.777  0.0103  0.0245  0.0181
  271loPI    C2 4322  12.991   3.087  10.972 -0.0435 -0.1446  0.0339
  271loPI    C3 4323  13.351   3.218  11.086 -0.1126  0.1245 -0.0497
  271loPI   PO4 4324  13.233   2.964  10.466 -0.2300 -0.1436 -0.0887
  271loPI   GL1 4325  13.314   2.912  10.131 -0.1326 -0.0970 -0.0707
  271loPI   GL2 4326  13.620   3.065  10.158  0.1348 -0.1387 -0.1068
  271loPI   C1A 4327  13.366   2.873   9.645 -0.1895  0.1916  0.0253
  271loPI   C2A 4328  13.444   2.991   9.132 -0.0829 -0.2430  0.3383
  271loPI   C3A 4329  13.346   3.036   8.721  0.3077 -0.2029  0.0673
  271loPI   C4A 4330  13.552   2.837   8.397  0.1684 -0.1716  0.1188
  271loPI   C5A 4331  13.801   2.806   8.087  0.3295 -0.2010 -0.1060
  271loPI   C6A 4332  14.066   2.481   7.841 -0.2951 -0.1187 -0.0285
  271loPI   C1B 4333  13.795   3.048   9.837 -0.0114 -0.1471 -0.1969
  271loPI   C2B 4334  13.910   3.138   9.431  0.0898  0.0419 -0.3760
  271loPI   C3B 4335  13.913   3.116   9.016 -0.0537  0.0426  0.0259
  271loPI   C4B 4336  13.954   3.057   8.609 -0.0512 -0.1062 -0.0488
  272loPI    C1 4337  15.408   2.145  10.793  0.0053 -0.1202 -0.0042
  272loPI    C2 4338  15.647   2.029  11.092 -0.0735 -0.0549  0.0847
  272loPI    C3 4339  15.764   2.320  10.844  0.0484 -0.2002 -0.0297
  272loPI   PO4 4340  15.291   1.886  10.728  0.1229  0.1701  0.1260
  272loPI   GL1 4341  15.281   1.537  10.457 -0.2892 -0.0859  0.2349
  272loPI   GL2 4342  15.329   1.292  10.438  0.0130  0.0321  0.0312
  272loPI   C1A 4343  15.357   1.832  10.091  0.2663  0.2327 -0.0203
  272loPI   C2A 4344  15.431   2.033   9.765 -0.2337  0.0396  0.0114
  272loPI   C3A 4345  15.488   2.085   9.296  0.0687 -0.1972 -0.1099
  272loPI   C4A 4346  15.491   2.144   8.905 -0.2870  0.0837 -0.0112
  272loPI   C5A 4347  15.520   2.322   8.393 -0.2246  0.0358 -0.1560
  272loPI   C6A 4348  15.322   2.311   7.881  0.2614 -0.2167  0.1723
  272loPI   C1B 4349  15.206   1.327  10.041  0.0330 -0.1761  0.1918
  272loPI   C2B 4350  15.275   1.178   9.690  0.2431 -0.1738  0.1778
  272loPI   C3B 4351  15.384   1.110   9.181 -0.0014  0.3963 -0.0435
  272loPI   C4B 4352  15.326   0.972   8.818 -0.0215 -0.1510 -0.1272
  273loPI    C1 4353  14.291  11.344  10.616 -0.0484  0.1805 -0.1396
  273loPI    C2 4354  14.629  11.153  10.520 -0.1135 -0.0245  0.0312
  273loPI    C3 4355  14.571  11.283  10.894 -0.2255  0.0072  0.0033
  273loPI   PO4 4356  14.144  11.165  10.494  0.1015 -0.0140 -0.1215
  273loPI   GL1 4357  14.145  11.084  10.132 -0.0045 -0.1232 -0.0186
  273loPI   GL2 4358  13.804  11.214  10.125  0.1127  0.2816 -0.0153
  273loPI   C1A 4359  14.391  11.038   9.874  0.0221  0.0662  0.0438
  273loPI   C2A 4360  14.636  10.750   9.730 -0.1000  0.3057  0.2257
  273loPI   C3A 4361  14.884  10.666   9.485 -0.2243 -0.0623  0.1309
  273loPI   C4A 4362  15.239  10.850   9.105  0.1615 -0.1800  0.0434
  273loPI   C5A 4363  15.417  10.972   8.740  0.1025  0.0712  0.3056
  273loPI   C6A 4364  15.670  10.842   8.339  0.0780  0.2690  0.0468
  273loPI   C1B 4365  13.879  11.074   9.665 -0.2229  0.1829  0.0856
  273loPI   C2B 4366  13.816  11.092   9.217 -0.2751  0.1733  0.1585
  273loPI   C3B 4367  14.035  11.095   8.836 -0.1369  0.0478 -0.0981
  273loPI   C4B 4368  14.435  11.195   8.685  0.3389 -0.0118 -0.0147
  274loPI    C1 4369   5.774   8.126  11.191 -0.0696 -0.1464 -0.0160
  274loPI    C2 4370   5.983   8.434  11.338 -0.2575  0.0210 -0.0964
  274loPI    C3 4371   6.045   8.065  11.479  0.0564  0.0760 -0.0851
  274loPI   PO4 4372   5.735   8.192  10.947  0.1385 -0.2044 -0.2014
  274loPI   GL1 4373   5.763   8.078  10.518 -0.1271 -0.0293  0.4111
  274loPI   GL2 4374   5.829   8.345  10.368 -0.2867  0.4369  0.3116
  274loPI   C1A 4375   5.585   7.973  10.051  0.1043 -0.2202 -0.0436
  274loPI   C2A 4376   5.432   7.970   9.625 -0.1422 -0.1352 -0.6553
  274loPI   C3A 4377   5.483   7.995   9.124  0.0606 -0.0523  0.0419
  274loPI   C4A 4378   5.377   7.901   8.789  0.0635 -0.2968  0.1232
  274loPI   C5A 4379   5.319   7.877   8.469  0.1250 -0.2739  0.1123
  274loPI   C6A 4380   5.286   7.639   8.111 -0.2106  0.0989 -0.1494
  274loPI   C1B 4381   5.624   8.433   9.880  0.2243  0.0584 -0.4354
  274loPI   C2B 4382   5.571   8.400   9.477  0.1817 -0.3880 -0.0645
  274loPI   C3B 4383   5.600   8.498   9.008  0.1926 -0.2081 -0.0144
  274loPI   C4B 4384   5.753   8.852   8.674 -0.0061 -0.1133 -0.0826
  275loPI    C1 4385  17.291  15.694  10.789 -0.1639 -0.0507 -0.0283
  275loPI    C2 4386  17.022  15.399  10.814 -0.2328  0.0200  0.0725
  275loPI    C3 4387  17.098  15.627  11.133  0.2066 -0.2261  0.1509
  275loPI   PO4 4388  17.204  15.851  10.476  0.1013 -0.2002  0.0477
  275loPI   GL1 4389  17.051  16.149  10.195  0.2157 -0.0169 -0.2413
  275loPI   GL2 4390  17.314  16.103  10.029 -0.0741  0.0251  0.2423
  275loPI   C1A 4391  16.760  16.324  10.006  0.0098 -0.0059  0.0569
  275loPI   C2A 4392  16.620  16.610   9.805  0.0148 -0.6728 -0.1773
  275loPI   C3A 4393  16.623  16.674   9.415  0.0543 -0.3234 -0.1509
  275loPI   C4A 4394  16.721  16.738   9.041  0.0760 -0.0234  0.4277
  275loPI   C5A 4395  16.869  16.840   8.591  0.0494  0.1288 -0.1713
  275loPI   C6A 4396  16.694  17.056   8.258 -0.0742  0.1779 -0.2626
  275loPI   C1B 4397  17.363  16.169   9.546  0.2801  0.0619  0.2225
  275loPI   C2B 4398  17.383  16.116   9.038 -0.0273 -0.0383  0.1791
  275loPI   C3B 4399  17.557  16.238   8.641  0.2613 -0.1087 -0.1558
  275loPI   C4B 4400  17.728  16.350   8.221  0.4262  0.1498 -0.0286
  276loPI    C1 4401  13.563  15.909  10.513  0.0360  0.0373 -0.0843
  276loPI    C2 4402  13.730  15.902  10.877  0.1308 -0.2443 -0.1313
  276loPI    C3 4403  13.903  16.109  10.582 -0.0672  0.1728  0.0384
  276loPI   PO4 4404  13.318  15.870  10.557  0.0548  0.2660 -0.0765
  276loPI   GL1 4405  13.035  15.847  10.264  0.2783  0.0869  0.0238
  276loPI   GL2 4406  13.441  15.848  10.050 -0.0335  0.2588  0.0118
  276loPI   C1A 4407  13.028  15.812   9.786 -0.2862  0.1898 -0.2976
  276loPI   C2A 4408  13.045  15.531   9.410  0.2483 -0.0149  0.1203
  276loPI   C3A 4409  13.124  15.521   8.977 -0.0883 -0.0834 -0.0123
  276loPI   C4A 4410  13.458  15.346   8.606 -0.0752  0.0633  0.0634
  276loPI   C5A 4411  13.685  15.405   8.100  0.0430  0.2475 -0.2317
  276loPI   C6A 4412  13.482  15.593   7.713 -0.1724  0.0161  0.0723
  276loPI   C1B 4413  13.496  15.740   9.625  0.0515 -0.0775 -0.0270
  276loPI   C2B 4414  13.634  15.633   9.044 -0.1152 -0.4616  0.0618
  276loPI   C3B 4415  13.826  15.702   8.520  0.0895 -0.2336  0.0384
  276loPI   C4B 4416  14.138  15.624   8.179 -0.0463 -0.0998  0.2120
  277loPI    C1 4417  17.727   2.890  11.039 -0.1716  0.0345 -0.1168
  277loPI    C2 4418  17.865   3.160  11.299  0.4118 -0.0072 -0.3664
  277loPI    C3 4419  17.698   2.822  11.432  0.2061  0.2112 -0.0535
  277loPI   PO4 4420  17.538   3.006  10.829  0.0040 -0.2373  0.2467
  277loPI   GL1 4421  17.641   3.311  10.518 -0.1526 -0.0547 -0.2103
  277loPI   GL2 4422  17.337   3.264  10.419 -0.0194  0.0385  0.0003
  277loPI   C1A 4423  17.761   3.014  10.222  0.1498 -0.4237  0.0899
  277loPI   C2A 4424  17.803   3.025   9.782 -0.1239  0.1043 -0.1909
  277loPI   C3A 4425  17.922   2.980   9.333  0.1560  0.1776 -0.4838
  277loPI   C4A 4426  17.969   2.968   8.885  0.0764  0.0658  0.0342
  277loPI   C5A 4427  18.289   2.914   8.539 -0.0742 -0.1528  0.3470
  277loPI   C6A 4428  18.694   2.882   8.354  0.0262  0.0810 -0.1356
  277loPI   C1B 4429  17.455   3.326   9.938 -0.0979  0.0643 -0.0598
  277loPI   C2B 4430  17.450   3.302   9.433 -0.1631 -0.0197 -0.3281
  277loPI   C3B 4431  17.493   3.085   9.051  0.3275  0.0838  0.0560
  277loPI   C4B 4432  17.453   2.877   8.625  0.2429 -0.1019  0.1840
  278loPI    C1 4433   3.803   7.919  10.866 -0.2577  0.3979  0.1025
  278loPI    C2 4434   4.100   7.690  11.005 -0.3109  0.1563 -0.1721
  278loPI    C3 4435   3.905   7.937  11.252 -0.0499  0.1321  0.0629
  278loPI   PO4 4436   3.869   7.874  10.533 -0.0296  0.0702 -0.0698
  278loPI   GL1 4437   3.612   7.709  10.207  0.1136  0.0366 -0.1279
  278loPI   GL2 4438   3.689   7.483  10.273 -0.0262  0.2207 -0.1040
  278loPI   C1A 4439   3.652   7.773   9.783  0.1480  0.0380  0.2084
  278loPI   C2A 4440   3.753   7.849   9.431 -0.3210 -0.1166  0.4761
  278loPI   C3A 4441   3.837   7.869   9.000 -0.2941 -0.0183  0.2606
  278loPI   C4A 4442   3.894   8.084   8.553  0.1976 -0.3714  0.0297
  278loPI   C5A 4443   4.058   7.858   8.195  0.0739  0.0589 -0.1160
  278loPI   C6A 4444   4.336   7.715   7.804  0.1092  0.0961  0.0229
  278loPI   C1B 4445   3.910   7.362   9.868 -0.0512  0.0140  0.0250
  278loPI   C2B 4446   4.049   7.459   9.490  0.1275 -0.0898 -0.2331
  278loPI   C3B 4447   4.144   7.466   9.144  0.1162 -0.0854 -0.0360
  278loPI   C4B 4448   4.269   7.247   8.792 -0.1898  0.2164  0.0727
  279loPI    C1 4449   5.970  10.656  10.746  0.0899  0.1070 -0.1859
  279loPI    C2 4450   5.855  10.479  11.086  0.1022 -0.1393 -0.3076
  279loPI    C3 4451   6.160  10.738  11.088 -0.1122  0.1180 -0.0745
  279loPI   PO4 4452   6.011  10.518  10.597 -0.0736 -0.2169  0.0262
  279loPI   GL1 4453   6.104  10.764  10.278  0.4655 -0.0345 -0.0253
  279loPI   GL2 4454   6.361  10.441  10.268  0.0302 -0.2116 -0.2531
  279loPI   C1A 4455   6.080  10.824   9.817 -0.0539 -0.1295  0.1993
  279loPI   C2A 4456   6.086  10.769   9.375 -0.2661  0.2210 -0.5682
  279loPI   C3A 4457   6.184  10.655   9.019 -0.1835  0.1562 -0.2174
  279loPI   C4A 4458   6.395  10.335   8.763  0.1484  0.2481  0.2223
  279loPI   C5A 4459   6.604  10.234   8.388 -0.2458  0.0518 -0.2164
  279loPI   C6A 4460   6.517  10.339   7.928  0.0497 -0.0146 -0.1012
  279loPI   C1B 4461   6.267  10.286   9.797 -0.2721 -0.2446  0.1474
  279loPI   C2B 4462   6.443  10.345   9.324  0.1785  0.1087 -0.3872
  279loPI   C3B 4463   6.785  10.454   8.983  0.2140 -0.1668 -0.0923
  279loPI   C4B 4464   6.934  10.611   8.566 -0.1383  0.1085 -0.1638
  280loPI    C1 4465   1.725   3.757  10.874 -0.0121 -0.1237 -0.1702
  280loPI    C2 4466   1.362   3.632  10.762 -0.0494 -0.1219 -0.0518
  280loPI    C3 4467   1.398   3.922  11.036  0.0403 -0.0570 -0.1319
  280loPI   PO4 4468   1.896   3.666  10.568  0.4503  0.4755 -0.0404
  280loPI   GL1 4469   1.985   3.611  10.114  0.0347  0.0643  0.0791
  280loPI   GL2 4470   2.265   3.615  10.147 -0.0153  0.3482  0.0027
  280loPI   C1A 4471   1.981   3.841   9.774  0.0120 -0.2782 -0.0934
  280loPI   C2A 4472   1.943   4.024   9.403  0.1154 -0.1258  0.0612
  280loPI   C3A 4473   2.086   4.060   8.910  0.0032  0.2915 -0.0465
  280loPI   C4A 4474   2.251   3.805   8.605  0.3233  0.0016 -0.1256
  280loPI   C5A 4475   2.114   3.470   8.281  0.2091  0.0527  0.0961
  280loPI   C6A 4476   1.713   3.590   7.983 -0.1119 -0.1561 -0.1793
  280loPI   C1B 4477   2.320   3.362   9.815  0.0381 -0.1217 -0.1199
  280loPI   C2B 4478   2.397   3.323   9.372 -0.1140 -0.1305 -0.0437
  280loPI   C3B 4479   2.386   3.430   8.890 -0.0377  0.1472  0.0103
  280loPI   C4B 4480   2.619   3.340   8.504  0.1768 -0.2882  0.0407
  281loPI    C1 4481   0.876   3.914  10.951 -0.0293  0.0206 -0.1999
  281loPI    C2 4482   0.638   4.221  10.855  0.0564  0.1276 -0.0742
  281loPI    C3 4483   0.665   4.101  11.235  0.0424 -0.0200 -0.1194
  281loPI   PO4 4484   0.868   3.779  10.707 -0.1134 -0.0427 -0.0892
  281loPI   GL1 4485   0.694   3.738  10.386  0.1367  0.3151  0.1523
  281loPI   GL2 4486   0.582   4.144  10.376  0.1840 -0.0923 -0.1441
  281loPI   C1A 4487   0.987   3.697   9.978  0.0378  0.1549  0.1189
  281loPI   C2A 4488   1.051   3.726   9.477 -0.1590 -0.3812 -0.0514
  281loPI   C3A 4489   1.224   3.754   9.009  0.0428 -0.0878 -0.1454
  281loPI   C4A 4490   1.211   3.784   8.536 -0.1392 -0.0779 -0.0070
  281loPI   C5A 4491   1.366   3.978   8.201 -0.0924  0.0430  0.0870
  281loPI   C6A 4492   1.606   4.158   7.841  0.0769 -0.2444 -0.0033
  281loPI   C1B 4493   0.667   4.146   9.973  0.0621  0.2825 -0.0455
  281loPI   C2B 4494   0.881   4.206   9.553 -0.1112  0.0586 -0.0264
  281loPI   C3B 4495   1.001   4.223   9.077 -0.0979  0.1147 -0.1976
  281loPI   C4B 4496   1.065   4.266   8.600 -0.0018 -0.0489  0.0712
  282loPI    C1 4497  16.580   7.039  10.512  0.0431  0.1194  0.0005
  282loPI    C2 4498  16.205   6.973  10.388  0.0974  0.1307 -0.1720
  282loPI    C3 4499  16.373   6.727  10.655 -0.0124  0.0920 -0.1378
  282loPI   PO4 4500  16.689   7.083  10.294 -0.0201  0.1420 -0.0732
  282loPI   GL1 4501  16.658   7.238   9.807  0.0215 -0.1049  0.0145
  282loPI   GL2 4502  16.858   7.035   9.755 -0.0448  0.0070 -0.0205
  282loPI   C1A 4503  16.730   7.166   9.257 -0.0968 -0.0264  0.2100
  282loPI   C2A 4504  16.936   7.069   8.833  0.0996  0.0716  0.0353
  282loPI   C3A 4505  16.841   7.007   8.366  0.1277 -0.0775 -0.2630
  282loPI   C4A 4506  16.982   7.092   7.999  0.3554  0.0337  0.1813
  282loPI   C5A 4507  17.211   7.407   7.927 -0.1105  0.1613  0.1713
  282loPI   C6A 4508  17.560   7.712   7.705  0.1273 -0.0802  0.1721
  282loPI   C1B 4509  17.253   7.178   9.514 -0.2210 -0.2861  0.0355
  282loPI   C2B 4510  17.442   7.291   9.150 -0.2553 -0.3488  0.1338
  282loPI   C3B 4511  17.387   7.267   8.721 -0.1934 -0.1842 -0.0013
  282loPI   C4B 4512  17.108   7.393   8.409 -0.1644 -0.3460 -0.0452
  283loPI    C1 4513   4.628  13.649  10.817 -0.0721  0.1657  0.0291
  283loPI    C2 4514   4.572  13.549  11.200 -0.0313  0.2321  0.0525
  283loPI    C3 4515   4.943  13.583  11.054 -0.0476 -0.1437 -0.0861
  283loPI   PO4 4516   4.490  13.611  10.716 -0.0117 -0.3074 -0.4045
  283loPI   GL1 4517   4.631  13.510  10.265 -0.1036 -0.2347 -0.2207
  283loPI   GL2 4518   4.864  13.746  10.200  0.2836  0.1267 -0.1316
  283loPI   C1A 4519   4.540  13.755   9.765  0.2078  0.1811 -0.3680
  283loPI   C2A 4520   4.556  13.727   9.306 -0.0163 -0.0354  0.0826
  283loPI   C3A 4521   4.449  13.689   8.802  0.1061  0.0916  0.3145
  283loPI   C4A 4522   4.507  13.625   8.340 -0.0157  0.0875 -0.4464
  283loPI   C5A 4523   4.207  13.618   8.017 -0.0002 -0.0366  0.4012
  283loPI   C6A 4524   3.876  13.592   7.666 -0.1096  0.2248  0.0911
  283loPI   C1B 4525   5.007  13.614   9.835 -0.0495  0.0522  0.2295
  283loPI   C2B 4526   5.030  13.731   9.416 -0.3070  0.1153 -0.0588
  283loPI   C3B 4527   4.997  13.602   9.055  0.2499 -0.0792  0.3173
  283loPI   C4B 4528   5.168  13.570   8.582  0.0178 -0.0121 -0.2038
  284loPI    C1 4529  13.479  17.317  11.291  0.0865  0.1960 -0.0539
  284loPI    C2 4530  13.741  17.138  11.535 -0.0659  0.0109 -0.0241
  284loPI    C3 4531  13.386  17.258  11.675 -0.1090  0.0064 -0.1283
  284loPI   PO4 4532  13.428  17.133  11.092 -0.2099 -0.0564 -0.2502
  284loPI   GL1 4533  13.695  17.107  10.774  0.1663  0.0363 -0.3133
  284loPI   GL2 4534  13.948  17.178  10.615 -0.1535  0.1112  0.2767
  284loPI   C1A 4535  13.700  16.864  10.381 -0.0990  0.0486 -0.1305
  284loPI   C2A 4536  13.843  16.785   9.964  0.0677  0.1743  0.1482
  284loPI   C3A 4537  13.899  16.832   9.581 -0.0907  0.2135  0.1022
  284loPI   C4A 4538  13.786  16.833   9.185 -0.0923  0.1721 -0.2284
  284loPI   C5A 4539  13.869  16.785   8.737 -0.1579  0.2396 -0.2863
  284loPI   C6A 4540  14.130  17.045   8.387 -0.1499  0.0773  0.0264
  284loPI   C1B 4541  14.186  17.065  10.235  0.2209  0.1787 -0.2883
  284loPI   C2B 4542  14.336  17.054   9.881 -0.0164 -0.0220 -0.1742
  284loPI   C3B 4543  14.488  16.811   9.666 -0.1974 -0.1375  0.1903
  284loPI   C4B 4544  14.526  16.826   9.303  0.0974  0.0086  0.0656
  285loPI    C1 4545  14.637   2.056  11.242 -0.0655 -0.0112  0.0753
  285loPI    C2 4546  14.728   1.932  10.873 -0.1933  0.3907 -0.0960
  285loPI    C3 4547  15.018   1.982  11.145 -0.1227 -0.1196 -0.0692
  285loPI   PO4 4548  14.466   2.272  11.172 -0.0143 -0.0664  0.1969
  285loPI   GL1 4549  14.372   2.327  10.762  0.1779 -0.2166  0.0909
  285loPI   GL2 4550  14.396   2.072  10.525 -0.1050 -0.0442 -0.2053
  285loPI   C1A 4551  14.314   2.532  10.339  0.1653  0.0707  0.0897
  285loPI   C2A 4552  14.100   2.740  10.042  0.1247  0.0258  0.2709
  285loPI   C3A 4553  14.223   2.807   9.610  0.1088 -0.1402  0.1818
  285loPI   C4A 4554  14.316   2.779   9.148 -0.0463 -0.2946  0.0089
  285loPI   C5A 4555  14.342   2.722   8.749  0.0316 -0.0921  0.0893
  285loPI   C6A 4556  14.544   2.475   8.444 -0.3178  0.0360 -0.3239
  285loPI   C1B 4557  14.498   1.967  10.110  0.3112  0.1525 -0.0142
  285loPI   C2B 4558  14.496   1.998   9.689 -0.0154  0.0835  0.1040
  285loPI   C3B 4559  14.568   1.988   9.253  0.3656 -0.1011  0.0191
  285loPI   C4B 4560  14.563   1.758   8.867  0.2326  0.2412  0.1131
  286loPI    C1 4561  15.073   5.114  10.626 -0.1099  0.2794  0.2985
  286loPI    C2 4562  15.144   5.392  10.346 -0.2299 -0.1156 -0.1362
  286loPI    C3 4563  15.351   5.395  10.688  0.2067  0.1416 -0.3944
  286loPI   PO4 4564  15.143   4.863  10.479  0.1204  0.1401 -0.0185
  286loPI   GL1 4565  14.942   4.554  10.212  0.1257 -0.1161  0.1548
  286loPI   GL2 4566  15.034   4.832   9.990  0.0363  0.2220 -0.0083
  286loPI   C1A 4567  14.970   4.436   9.714  0.0085  0.0821 -0.1300
  286loPI   C2A 4568  15.023   4.400   9.244  0.1027 -0.0050  0.1657
  286loPI   C3A 4569  15.129   4.390   8.839  0.0781  0.0725  0.2525
  286loPI   C4A 4570  15.024   4.428   8.479  0.1350  0.1169  0.3486
  286loPI   C5A 4571  14.782   4.576   8.109  0.1502  0.1358 -0.2569
  286loPI   C6A 4572  14.392   4.716   7.948  0.1876 -0.0593 -0.1750
  286loPI   C1B 4573  15.118   4.884   9.567  0.3940  0.1152  0.1012
  286loPI   C2B 4574  15.133   4.895   9.150  0.0306  0.2922  0.1779
  286loPI   C3B 4575  15.277   4.913   8.672  0.1062  0.0288 -0.2249
  286loPI   C4B 4576  15.223   4.796   8.247  0.1699 -0.0736  0.3217
  287loPI    C1 4577  11.459   1.386  10.837  0.0426 -0.0343 -0.0184
  287loPI    C2 4578  11.115   1.566  10.936  0.0035 -0.1059 -0.0233
  287loPI    C3 4579  11.373   1.457  11.221  0.1775  0.2507 -0.0380
  287loPI   PO4 4580  11.471   1.394  10.554  0.1505  0.3117  0.0614
  287loPI   GL1 4581  11.563   1.067  10.231  0.2178  0.0303  0.2791
  287loPI   GL2 4582  11.806   0.789  10.166 -0.1761  0.0872  0.0658
  287loPI   C1A 4583  11.619   1.084   9.781 -0.3167  0.1231  0.1420
  287loPI   C2A 4584  11.564   0.944   9.304  0.0081  0.1184 -0.1197
  287loPI   C3A 4585  11.498   1.050   8.807 -0.0848 -0.0227  0.1625
  287loPI   C4A 4586  11.399   1.152   8.363 -0.2421  0.1580 -0.0458
  287loPI   C5A 4587  11.186   1.332   8.012 -0.1962 -0.0143 -0.2362
  287loPI   C6A 4588  11.388   1.379   7.646  0.0381  0.2553 -0.0897
  287loPI   C1B 4589  12.012   0.685   9.838  0.0712 -0.3355  0.3666
  287loPI   C2B 4590  11.966   0.576   9.438  0.2049 -0.1635 -0.0107
  287loPI   C3B 4591  11.904   0.658   8.927 -0.0526  0.1333  0.1637
  287loPI   C4B 4592  11.850   0.573   8.519 -0.0738  0.2095 -0.0867
  288loPI    C1 4593  13.172  15.038  11.011 -0.0186  0.2264  0.1498
  288loPI    C2 4594  13.509  15.019  11.225  0.2043 -0.1158 -0.2180
  288loPI    C3 4595  13.225  14.741  11.273 -0.0634  0.2100  0.1404
  288loPI   PO4 4596  13.240  15.031  10.781  0.1131  0.1943 -0.2267
  288loPI   GL1 4597  13.093  14.943  10.423  0.2598  0.2604  0.0539
  288loPI   GL2 4598  12.950  14.691  10.510  0.0206  0.2482  0.0373
  288loPI   C1A 4599  13.113  14.816  10.037 -0.0747 -0.3151  0.1682
  288loPI   C2A 4600  13.252  14.749   9.655  0.2968 -0.0970  0.0081
  288loPI   C3A 4601  13.384  14.684   9.334 -0.0766 -0.0382 -0.0342
  288loPI   C4A 4602  13.598  14.663   8.944 -0.0188  0.1532  0.3349
  288loPI   C5A 4603  13.754  14.895   8.683 -0.2545 -0.1724 -0.1354
  288loPI   C6A 4604  13.923  15.192   8.923 -0.0077 -0.2450  0.2810
  288loPI   C1B 4605  12.678  14.605  10.178  0.0693 -0.1152 -0.2596
  288loPI   C2B 4606  12.722  14.591   9.720 -0.1581  0.1928 -0.1511
  288loPI   C3B 4607  12.879  14.531   9.242 -0.1474  0.2858 -0.0638
  288loPI   C4B 4608  13.125  14.643   8.846  0.7056  0.0073 -0.2756
  289loPI    C1 4609  12.133  12.129  11.386 -0.1928  0.3610  0.4590
  289loPI    C2 4610  12.404  12.013  11.656  0.0944 -0.0428  0.0154
  289loPI    C3 4611  12.419  12.383  11.504  0.3940 -0.0575  0.0030
  289loPI   PO4 4612  12.124  11.919  11.175  0.2140 -0.1719 -0.0158
  289loPI   GL1 4613  12.367  11.839  10.810 -0.1120 -0.0606  0.0938
  289loPI   GL2 4614  12.423  12.028  10.633 -0.0564  0.2353  0.1442
  289loPI   C1A 4615  12.106  11.729  10.336  0.2562 -0.1722  0.0020
  289loPI   C2A 4616  12.010  11.629   9.842 -0.1232 -0.0284 -0.1584
  289loPI   C3A 4617  12.080  11.608   9.475 -0.2604  0.0791  0.0651
  289loPI   C4A 4618  12.019  11.687   8.984 -0.3286  0.0517 -0.0737
  289loPI   C5A 4619  12.002  11.732   8.460  0.2083  0.0315  0.1038
  289loPI   C6A 4620  12.014  11.750   8.040  0.2798  0.0536  0.0614
  289loPI   C1B 4621  12.575  12.066  10.233 -0.0386 -0.0143  0.2608
  289loPI   C2B 4622  12.689  12.130   9.790  0.0914  0.0090 -0.1002
  289loPI   C3B 4623  12.710  12.249   9.369 -0.0002 -0.2595 -0.0311
  289loPI   C4B 4624  12.798  12.185   8.994 -0.2505 -0.0874 -0.1477
  290loPI    C1 4625   8.321  17.234  11.190 -0.1969 -0.1980  0.0975
  290loPI    C2 4626   8.599  17.387  11.433 -0.1077 -0.2231  0.0117
  290loPI    C3 4627   8.394  17.062  11.544 -0.1166 -0.1933  0.0833
  290loPI   PO4 4628   8.459  17.401  10.929  0.2222 -0.1077  0.1724
  290loPI   GL1 4629   8.501  17.654  10.517 -0.1292 -0.1205  0.2991
  290loPI   GL2 4630   8.561  17.273  10.416 -0.0244  0.1181 -0.0603
  290loPI   C1A 4631   8.548  17.759  10.123 -0.0591  0.1543  0.2661
  290loPI   C2A 4632   8.502  17.805   9.718  0.2681  0.1504 -0.1537
  290loPI   C3A 4633   8.450  17.725   9.310  0.1292  0.0594  0.0243
  290loPI   C4A 4634   8.229  17.750   8.845 -0.0454 -0.2439 -0.0940
  290loPI   C5A 4635   8.189  17.722   8.456 -0.0730 -0.0175  0.2209
  290loPI   C6A 4636   8.365  17.598   8.168 -0.2464 -0.4405  0.1715
  290loPI   C1B 4637   8.437  17.320   9.951 -0.2477  0.2087 -0.0517
  290loPI   C2B 4638   8.388  17.210   9.480 -0.4346  0.1983 -0.1056
  290loPI   C3B 4639   8.332  17.281   8.985  0.0273  0.1466 -0.0715
  290loPI   C4B 4640   8.428  17.343   8.581 -0.0070 -0.2211  0.0259
  291loPI    C1 4641   9.274  10.663  11.235 -0.1888 -0.2408 -0.0201
  291loPI    C2 4642   9.591  10.693  11.478 -0.2856  0.0134  0.0767
  291loPI    C3 4643   9.281  10.461  11.580 -0.1777 -0.1521  0.0316
  291loPI   PO4 4644   9.283  10.856  11.065 -0.1094 -0.0120 -0.0063
  291loPI   GL1 4645   9.337  10.926  10.685 -0.1835 -0.1796  0.1958
  291loPI   GL2 4646   9.326  11.317  10.844  0.1419  0.2163  0.1690
  291loPI   C1A 4647   9.702  10.953  10.330 -0.0170  0.1080 -0.1283
  291loPI   C2A 4648   9.712  10.914   9.939 -0.2292 -0.1102 -0.1484
  291loPI   C3A 4649   9.734  11.047   9.474  0.0109 -0.1012 -0.0552
  291loPI   C4A 4650   9.777  11.078   9.053 -0.0147  0.1297 -0.2220
  291loPI   C5A 4651   9.451  11.148   8.698  0.4101 -0.0663 -0.0999
  291loPI   C6A 4652   9.043  11.070   8.639  0.0148 -0.3012  0.0965
  291loPI   C1B 4653   9.308  11.390  10.383  0.1313  0.0574  0.1585
  291loPI   C2B 4654   9.479  11.356   9.999  0.0334  0.1205  0.4924
  291loPI   C3B 4655   9.437  11.476   9.559  0.2056 -0.1478 -0.3491
  291loPI   C4B 4656   9.543  11.465   9.150  0.0153 -0.1021  0.2390
  292loPI    C1 4657   1.585   1.074  11.248  0.1758 -0.0427 -0.1477
  292loPI    C2 4658   1.407   1.317  11.512  0.0564 -0.1602 -0.1194
  292loPI    C3 4659   1.805   1.319  11.475  0.0626 -0.0323 -0.0481
  292loPI   PO4 4660   1.393   1.080  11.046 -0.1526  0.0958 -0.2143
  292loPI   GL1 4661   1.400   1.219  10.622  0.0873 -0.0049 -0.3125
  292loPI   GL2 4662   1.417   0.940  10.385 -0.1192 -0.1080  0.0980
  292loPI   C1A 4663   1.326   1.369  10.166 -0.2838 -0.0443  0.1891
  292loPI   C2A 4664   1.338   1.352   9.731 -0.0659  0.1538  0.0885
  292loPI   C3A 4665   1.422   1.341   9.273  0.1526  0.1224  0.0223
  292loPI   C4A 4666   1.436   1.283   8.827 -0.2510  0.0239  0.1699
  292loPI   C5A 4667   1.365   1.396   8.316  0.0831 -0.0701 -0.0220
  292loPI   C6A 4668   1.512   1.607   7.954 -0.1121 -0.0630  0.1321
  292loPI   C1B 4669   1.510   0.882   9.967 -0.0000 -0.0564  0.0393
  292loPI   C2B 4670   1.558   0.850   9.514  0.1196 -0.0713 -0.1514
  292loPI   C3B 4671   1.617   0.827   9.041  0.1291  0.0614 -0.1499
  292loPI   C4B 4672   1.515   0.737   8.697 -0.0526  0.0091  0.4572
  293loPI    C1 4673   6.947   8.207  10.485 -0.0792 -0.1787  0.0561
  293loPI    C2 4674   6.717   8.430  10.723  0.0118  0.0275 -0.0465
  293loPI    C3 4675   6.755   8.038  10.792 -0.1321  0.0462  0.1487
  293loPI   PO4 4676   7.159   8.363  10.460  0.3040 -0.0379 -0.1453
  293loPI   GL1 4677   7.368   8.603  10.239  0.2319 -0.4320 -0.2405
  293loPI   GL2 4678   7.099   8.910  10.219  0.1007 -0.2940  0.0640
  293loPI   C1A 4679   7.366   8.590   9.856  0.0287  0.2801 -0.1030
  293loPI   C2A 4680   7.451   8.573   9.450 -0.0357 -0.0903  0.2862
  293loPI   C3A 4681   7.459   8.564   9.055 -0.0178 -0.0207 -0.0475
  293loPI   C4A 4682   7.121   8.611   8.698  0.0578  0.2003 -0.1852
  293loPI   C5A 4683   6.990   8.531   8.249 -0.3466  0.0759 -0.3407
  293loPI   C6A 4684   7.270   8.553   7.885  0.2622  0.0944 -0.1218
  293loPI   C1B 4685   6.851   8.749   9.787 -0.0835 -0.2348 -0.0295
  293loPI   C2B 4686   6.580   8.580   9.516 -0.1696  0.1571  0.1168
  293loPI   C3B 4687   6.605   8.540   9.106 -0.1211 -0.0709  0.0054
  293loPI   C4B 4688   6.580   8.497   8.708  0.0226  0.1683 -0.1206
  294loPI    C1 4689  11.051   8.411  11.330  0.3098 -0.1459 -0.1190
  294loPI    C2 4690  10.931   8.681  11.600  0.0141 -0.2825 -0.1098
  294loPI    C3 4691  11.154   8.370  11.715  0.1765 -0.1579 -0.0838
  294loPI   PO4 4692  11.221   8.535  11.175 -0.0644 -0.0670 -0.0870
  294loPI   GL1 4693  11.433   8.407  10.770  0.1553 -0.0655  0.4158
  294loPI   GL2 4694  11.744   8.677  10.668 -0.1004 -0.2527 -0.1426
  294loPI   C1A 4695  11.548   8.430  10.309 -0.4151  0.1783  0.2826
  294loPI   C2A 4696  11.453   8.343   9.883 -0.3315  0.0010 -0.0018
  294loPI   C3A 4697  11.272   8.316   9.497  0.0936  0.0404  0.1559
  294loPI   C4A 4698  11.232   8.331   9.088 -0.1914  0.0425 -0.0673
  294loPI   C5A 4699  11.346   8.413   8.690  0.0825  0.0041 -0.1660
  294loPI   C6A 4700  11.613   8.484   8.341 -0.1638 -0.2378 -0.1533
  294loPI   C1B 4701  11.951   8.713  10.233  0.0485  0.2349  0.1604
  294loPI   C2B 4702  11.976   8.781   9.797 -0.0211 -0.0467  0.1102
  294loPI   C3B 4703  12.039   8.790   9.356  0.2004  0.2113 -0.4321
  294loPI   C4B 4704  12.052   8.910   8.978 -0.0709  0.1863 -0.1134
  295loPI    C1 4705  14.229  16.923  10.976  0.2615  0.0450  0.0134
  295loPI    C2 4706  14.217  16.651  11.268 -0.0453 -0.0982 -0.1281
  295loPI    C3 4707  13.886  16.852  11.168  0.1709  0.3117 -0.0444
  295loPI   PO4 4708  14.317  16.844  10.820  0.0752  0.1234  0.1495
  295loPI   GL1 4709  14.549  16.802  10.435 -0.1526  0.3522  0.1107
  295loPI   GL2 4710  14.571  17.142  10.485 -0.3422 -0.0130 -0.0203
  295loPI   C1A 4711  14.617  16.669  10.104  0.0431 -0.1404  0.0198
  295loPI   C2A 4712  14.650  16.386   9.770 -0.1022 -0.0238 -0.3210
  295loPI   C3A 4713  14.778  16.393   9.444  0.0506 -0.0333  0.2213
  295loPI   C4A 4714  14.867  16.483   9.054 -0.1768  0.0016 -0.0825
  295loPI   C5A 4715  14.800  16.771   8.778  0.2758  0.1366  0.2196
  295loPI   C6A 4716  14.596  16.992   8.539 -0.2864  0.3559  0.2502
  295loPI   C1B 4717  14.784  17.277  10.156 -0.3605 -0.0341 -0.1630
  295loPI   C2B 4718  14.896  17.288   9.726  0.1795  0.0798  0.1667
  295loPI   C3B 4719  14.857  17.243   9.327 -0.1738 -0.2687 -0.0418
  295loPI   C4B 4720  15.010  17.210   8.909  0.1277 -0.4158 -0.0310
  296loPI    C1 4721   4.613   2.964  11.102 -0.1358  0.2817  0.1676
  296loPI    C2 4722   4.280   2.757  11.021  0.0936 -0.0311  0.0008
  296loPI    C3 4723   4.290   3.152  10.961 -0.1251 -0.0770 -0.3658
  296loPI   PO4 4724   4.776   2.887  10.993  0.1395 -0.1850 -0.4093
  296loPI   GL1 4725   4.598   2.960  10.540  0.2513  0.3682 -0.0450
  296loPI   GL2 4726   4.323   2.860  10.475  0.2815 -0.1835 -0.0187
  296loPI   C1A 4727   4.994   2.991  10.256  0.0719  0.3554  0.2899
  296loPI   C2A 4728   5.136   3.044   9.846 -0.1738 -0.0793 -0.0540
  296loPI   C3A 4729   5.049   3.021   9.413  0.2254  0.2167  0.3569
  296loPI   C4A 4730   4.961   3.088   9.060 -0.0833 -0.3656  0.0778
  296loPI   C5A 4731   4.757   3.176   8.689  0.0517 -0.1099  0.0392
  296loPI   C6A 4732   4.663   2.938   8.295 -0.1717 -0.0627  0.0182
  296loPI   C1B 4733   4.529   2.929  10.032 -0.4230 -0.1237 -0.2570
  296loPI   C2B 4734   4.641   2.876   9.628  0.1213 -0.0446  0.0540
  296loPI   C3B 4735   4.729   2.683   9.220 -0.0346  0.0102 -0.0486
  296loPI   C4B 4736   4.608   2.672   8.765 -0.0149 -0.1404  0.1179
  297loPI    C1 4737   5.371  15.666  11.109  0.0910  0.0458  0.0902
  297loPI    C2 4738   5.695  15.736  10.885  0.0155  0.0183 -0.0290
  297loPI    C3 4739   5.728  15.711  11.283  0.1675 -0.0349 -0.0442
  297loPI   PO4 4740   5.153  15.802  10.973  0.1520 -0.1400  0.0894
  297loPI   GL1 4741   4.975  15.751  10.611  0.0712  0.2248 -0.0708
  297loPI   GL2 4742   4.919  16.054  10.436  0.1739  0.0636  0.3447
  297loPI   C1A 4743   4.751  15.673  10.177  0.1832  0.0666  0.1214
  297loPI   C2A 4744   4.840  15.575   9.809 -0.2372 -0.0257 -0.0216
  297loPI   C3A 4745   4.768  15.492   9.383  0.2437 -0.1032  0.0131
  297loPI   C4A 4746   4.712  15.541   8.954 -0.3399 -0.2261  0.2930
  297loPI   C5A 4747   4.678  15.564   8.523 -0.1192  0.0173 -0.1851
  297loPI   C6A 4748   4.407  15.658   8.245 -0.0676  0.0704  0.2107
  297loPI   C1B 4749   5.115  15.968  10.113  0.1626 -0.1338 -0.0392
  297loPI   C2B 4750   5.111  16.049   9.703 -0.0876 -0.0674 -0.2325
  297loPI   C3B 4751   4.981  15.950   9.320 -0.1657 -0.1252  0.3027
  297loPI   C4B 4752   5.198  15.616   9.117  0.2154 -0.2592 -0.2213
  298loPI    C1 4753   5.152   9.038  10.908 -0.1276 -0.0729 -0.1818
  298loPI    C2 4754   5.228   8.842  11.248  0.3808  0.4127  0.0007
  298loPI    C3 4755   4.851   8.927  11.147  0.1730 -0.3281  0.0890
  298loPI   PO4 4756   5.245   8.936  10.704 -0.0860 -0.0605 -0.1116
  298loPI   GL1 4757   5.253   9.188  10.398  0.2697 -0.0045  0.3409
  298loPI   GL2 4758   5.485   9.399  10.386  0.0077 -0.0372  0.0331
  298loPI   C1A 4759   4.902   9.279  10.101  0.1329  0.1538  0.2108
  298loPI   C2A 4760   4.689   9.151   9.713 -0.2059 -0.1412  0.2075
  298loPI   C3A 4761   4.420   9.079   9.335  0.0799 -0.2652 -0.0765
  298loPI   C4A 4762   4.445   8.974   8.901 -0.0306 -0.0583 -0.3681
  298loPI   C5A 4763   4.361   8.973   8.531 -0.0910  0.1273  0.0102
  298loPI   C6A 4764   4.450   9.177   8.125 -0.1040  0.0827 -0.1033
  298loPI   C1B 4765   5.656   9.521   9.995  0.0163  0.2095 -0.0823
  298loPI   C2B 4766   5.734   9.436   9.673 -0.0527 -0.0372  0.1477
  298loPI   C3B 4767   5.862   9.441   9.157  0.0348 -0.0195 -0.0202
  298loPI   C4B 4768   5.713   9.285   8.940  0.2968  0.0508  0.0696
  299loPI    C1 4769   5.033  12.085  10.773  0.2771 -0.2163  0.0263
  299loPI    C2 4770   5.221  12.115  11.125  0.0648  0.1375  0.1141
  299loPI    C3 4771   4.827  12.048  11.114  0.0621  0.1775 -0.0551
  299loPI   PO4 4772   5.040  12.274  10.649 -0.0525  0.3169  0.5277
  299loPI   GL1 4773   5.039  12.289  10.291 -0.1030 -0.3633 -0.1507
  299loPI   GL2 4774   4.713  12.139  10.318 -0.0202 -0.0525  0.3231
  299loPI   C1A 4775   4.963  12.589   9.967  0.0878 -0.1287  0.0712
  299loPI   C2A 4776   4.835  12.807   9.641 -0.1318 -0.3790 -0.2566
  299loPI   C3A 4777   4.907  12.776   9.242 -0.2771 -0.3336  0.0194
  299loPI   C4A 4778   4.810  12.788   8.870  0.0347  0.0221 -0.1288
  299loPI   C5A 4779   4.971  12.704   8.454  0.0143  0.2694 -0.2908
  299loPI   C6A 4780   5.015  12.458   8.019  0.0821  0.1061 -0.0884
  299loPI   C1B 4781   4.544  12.332   9.942 -0.1441  0.0915  0.0560
  299loPI   C2B 4782   4.591  12.323   9.520 -0.2162  0.0629  0.0086
  299loPI   C3B 4783   4.565  12.331   9.093  0.0032 -0.0137  0.0315
  299loPI   C4B 4784   4.495  12.360   8.634  0.2138 -0.0997 -0.0794
  300loPI    C1 4785   7.491   9.938  10.941  0.0301  0.3879 -0.0261
  300loPI    C2 4786   7.205   9.817  10.689  0.0730  0.1632  0.0309
  300loPI    C3 4787   7.109  10.025  11.016 -0.0302  0.0582  0.0680
  300loPI   PO4 4788   7.626  10.075  10.803 -0.0120  0.1505 -0.1190
  300loPI   GL1 4789   7.549  10.020  10.382  0.0778 -0.0729 -0.1317
  300loPI   GL2 4790   7.615  10.367  10.413  0.0546 -0.0266  0.2037
  300loPI   C1A 4791   7.487  10.144   9.958  0.0703  0.0862  0.3466
  300loPI   C2A 4792   7.390  10.192   9.528  0.0881  0.1348 -0.4663
  300loPI   C3A 4793   7.289  10.447   9.068  0.0678  0.0380 -0.1411
  300loPI   C4A 4794   7.350  10.409   8.614  0.0955 -0.1339 -0.0999
  300loPI   C5A 4795   7.098  10.216   8.220 -0.1046 -0.1189 -0.0803
  300loPI   C6A 4796   6.949   9.950   7.857 -0.0033  0.1078 -0.2462
  300loPI   C1B 4797   7.961  10.445  10.085  0.1986  0.0940 -0.2797
  300loPI   C2B 4798   7.885  10.494   9.603  0.3973  0.0180 -0.0851
  300loPI   C3B 4799   7.996  10.553   9.207 -0.1555 -0.2846  0.1886
  300loPI   C4B 4800   8.034  10.551   8.803 -0.0432 -0.0054 -0.0254
  301loPI    C1 4801   4.327   8.103  10.810  0.3253 -0.1262 -0.1182
  301loPI    C2 4802   4.611   7.934  11.036  0.0350 -0.0373  0.3248
  301loPI    C3 4803   4.434   8.272  11.157 -0.1627 -0.0147 -0.0153
  301loPI   PO4 4804   4.365   7.991  10.579 -0.1382  0.2230  0.1529
  301loPI   GL1 4805   4.281   8.174  10.192  0.1517  0.2281  0.2697
  301loPI   GL2 4806   3.951   8.095  10.072  0.1819 -0.0779  0.1952
  301loPI   C1A 4807   4.671   8.067   9.903  0.1017  0.2698  0.1318
  301loPI   C2A 4808   4.918   7.938   9.563  0.1423 -0.0270  0.1412
  301loPI   C3A 4809   4.948   7.913   9.134  0.0923  0.0527 -0.2487
  301loPI   C4A 4810   4.870   7.943   8.717 -0.3117  0.1196  0.0900
  301loPI   C5A 4811   4.714   7.804   8.251  0.1299  0.3287  0.0010
  301loPI   C6A 4812   4.611   8.143   7.923  0.2969  0.0690 -0.0893
  301loPI   C1B 4813   4.156   8.334   9.714  0.0254 -0.3365 -0.0166
  301loPI   C2B 4814   4.243   8.594   9.370  0.0114 -0.0736 -0.2624
  301loPI   C3B 4815   3.990   8.793   9.114 -0.2542  0.0484 -0.1011
  301loPI   C4B 4816   3.997   9.224   9.003 -0.0463 -0.0817 -0.2923
  302loPI    C1 4817  12.484   4.553  10.541 -0.2101  0.3110 -0.0041
  302loPI    C2 4818  12.343   4.507  10.912  0.0585 -0.0707  0.0559
  302loPI    C3 4819  12.136   4.366  10.600 -0.0019 -0.0565  0.0894
  302loPI   PO4 4820  12.751   4.506  10.555 -0.1862 -0.1246 -0.0621
  302loPI   GL1 4821  12.916   4.575  10.199  0.0886 -0.0518 -0.1644
  302loPI   GL2 4822  13.174   4.692  10.319 -0.1732  0.0243  0.0453
  302loPI   C1A 4823  13.129   4.274   9.971 -0.0399 -0.0525 -0.3887
  302loPI   C2A 4824  13.181   4.285   9.511 -0.0350 -0.0650  0.1294
  302loPI   C3A 4825  13.183   4.241   9.065 -0.0940 -0.2144 -0.4750
  302loPI   C4A 4826  13.129   4.329   8.701 -0.2186  0.1796  0.2210
  302loPI   C5A 4827  12.998   4.525   8.422  0.1145 -0.3074  0.0890
  302loPI   C6A 4828  12.780   4.637   8.118 -0.0057  0.1791  0.1044
  302loPI   C1B 4829  13.344   4.774   9.868  0.0285  0.0322 -0.0132
  302loPI   C2B 4830  13.324   4.795   9.443  0.4715  0.3845 -0.1620
  302loPI   C3B 4831  13.281   4.876   8.972  0.4632  0.0680  0.1855
  302loPI   C4B 4832  13.264   4.860   8.627  0.2615  0.1728  0.0888
  303loPI    C1 4833  11.097   5.557  11.025  0.2736  0.2405 -0.0320
  303loPI    C2 4834  11.284   5.353  11.315 -0.0195  0.0336  0.0164
  303loPI    C3 4835  11.097   5.697  11.400 -0.0743 -0.0084  0.0662
  303loPI   PO4 4836  11.175   5.464  10.800 -0.0178  0.0114  0.0186
  303loPI   GL1 4837  11.095   5.458  10.399 -0.2679  0.2201  0.2785
  303loPI   GL2 4838  11.420   5.531  10.259  0.0805  0.1993 -0.0699
  303loPI   C1A 4839  11.091   5.622   9.904 -0.2026 -0.1230  0.2317
  303loPI   C2A 4840  11.003   5.624   9.472 -0.1849  0.0312 -0.0366
  303loPI   C3A 4841  10.936   5.751   9.074  0.0464 -0.0975 -0.0972
  303loPI   C4A 4842  11.027   5.692   8.729  0.0194  0.2562  0.2288
  303loPI   C5A 4843  11.164   5.586   8.246  0.0070 -0.0838 -0.0251
  303loPI   C6A 4844  11.270   5.202   8.029  0.2105  0.0514 -0.2294
  303loPI   C1B 4845  11.608   5.537   9.846 -0.1454  0.2188 -0.0089
  303loPI   C2B 4846  11.493   5.693   9.513 -0.2027 -0.1788  0.4453
  303loPI   C3B 4847  11.431   5.748   9.132  0.0973 -0.2147  0.0421
  303loPI   C4B 4848  11.533   5.791   8.643 -0.0457 -0.1230  0.0002
  304loPI    C1 4849  14.377   8.209  10.532  0.0217 -0.0089  0.0170
  304loPI    C2 4850  14.461   8.376  10.886  0.0842 -0.0959  0.0434
  304loPI    C3 4851  14.299   8.010  10.870 -0.1169 -0.0057 -0.0126
  304loPI   PO4 4852  14.270   8.426  10.434 -0.2659 -0.0557  0.1563
  304loPI   GL1 4853  13.906   8.419  10.111 -0.1383 -0.1047 -0.2191
  304loPI   GL2 4854  13.698   8.223  10.041 -0.0161  0.0875 -0.0317
  304loPI   C1A 4855  13.989   8.704   9.742  0.0032 -0.0814 -0.0212
  304loPI   C2A 4856  13.822   8.911   9.334  0.2983 -0.0864  0.0007
  304loPI   C3A 4857  13.628   8.871   8.920  0.0843 -0.3068 -0.1123
  304loPI   C4A 4858  13.520   8.888   8.516 -0.1682 -0.0874  0.0237
  304loPI   C5A 4859  13.235   8.689   8.166  0.1177 -0.0778  0.0630
  304loPI   C6A 4860  12.944   8.487   7.888  0.1285 -0.2337  0.2860
  304loPI   C1B 4861  13.700   8.275   9.586 -0.0956  0.1749 -0.1401
  304loPI   C2B 4862  13.662   8.128   9.124  0.0506 -0.0836 -0.0235
  304loPI   C3B 4863  13.679   8.403   8.716  0.4291  0.0529 -0.0309
  304loPI   C4B 4864  13.687   8.495   8.263  0.1339 -0.1116  0.2222
  305loPI    C1 4865   5.467   7.785  10.752  0.0974  0.0412 -0.0218
  305loPI    C2 4866   5.580   7.623  11.100 -0.0013 -0.1046 -0.0567
  305loPI    C3 4867   5.855   7.733  10.831  0.0751  0.0050  0.0655
  305loPI   PO4 4868   5.364   7.655  10.603  0.0453  0.4552 -0.1671
  305loPI   GL1 4869   5.076   7.724  10.298 -0.1278 -0.2431  0.2217
  305loPI   GL2 4870   5.142   7.830  10.037 -0.1248 -0.1407 -0.1134
  305loPI   C1A 4871   4.918   7.300  10.040 -0.1094  0.2383 -0.0765
  305loPI   C2A 4872   4.885   7.151   9.584  0.4364 -0.1116 -0.0218
  305loPI   C3A 4873   5.024   7.052   9.079 -0.2535  0.0088 -0.0721
  305loPI   C4A 4874   5.106   6.856   8.736  0.4353  0.1347  0.0210
  305loPI   C5A 4875   4.897   6.707   8.431  0.1004 -0.1805 -0.4784
  305loPI   C6A 4876   4.677   6.302   8.453  0.2306  0.0304  0.1420
  305loPI   C1B 4877   5.166   7.532   9.695 -0.0037  0.2811 -0.0590
  305loPI   C2B 4878   5.290   7.597   9.349  0.0273  0.0339 -0.1570
  305loPI   C3B 4879   5.326   7.440   8.952  0.0829 -0.1298 -0.3825
  305loPI   C4B 4880   5.215   7.345   8.536  0.2480 -0.1518 -0.2040
  306loPI    C1 4881   6.443   2.493  10.827 -0.0706 -0.0032  0.3071
  306loPI    C2 4882   6.530   2.864  10.704 -0.0015 -0.0863  0.1017
  306loPI    C3 4883   6.811   2.641  10.881 -0.0229 -0.0666  0.1609
  306loPI   PO4 4884   6.290   2.412  10.569  0.1257  0.0604  0.1736
  306loPI   GL1 4885   6.056   2.051  10.491 -0.0112 -0.0403  0.1293
  306loPI   GL2 4886   5.937   1.779  10.542  0.1100 -0.4320 -0.1222
  306loPI   C1A 4887   6.148   1.847  10.107 -0.1282  0.2041  0.0311
  306loPI   C2A 4888   6.202   1.877   9.670 -0.0009 -0.3943  0.0271
  306loPI   C3A 4889   6.194   1.882   9.204  0.0046 -0.1422  0.0182
  306loPI   C4A 4890   6.127   1.580   8.868  0.1833 -0.0254 -0.2989
  306loPI   C5A 4891   5.739   1.429   8.806 -0.0308  0.2578 -0.1526
  306loPI   C6A 4892   5.370   1.477   8.765  0.0413  0.0053  0.1478
  306loPI   C1B 4893   5.539   1.773  10.325 -0.1607 -0.0495 -0.2462
  306loPI   C2B 4894   5.153   1.631  10.163  0.3394  0.1209 -0.1596
  306loPI   C3B 4895   5.106   1.740   9.779 -0.0505  0.3837 -0.1817
  306loPI   C4B 4896   5.278   1.981   9.414 -0.2763  0.0700 -0.1165
  307loPI    C1 4897  14.094   4.447  10.642  0.2528  0.1226  0.0111
  307loPI    C2 4898  14.045   4.481  11.037  0.0693  0.2396 -0.0205
  307loPI    C3 4899  14.073   4.810  10.810 -0.1930  0.1771 -0.1476
  307loPI   PO4 4900  13.874   4.192  10.607  0.1895  0.3095  0.0973
  307loPI   GL1 4901  13.828   4.043  10.211  0.0137 -0.1190  0.3772
  307loPI   GL2 4902  14.090   3.973  10.228 -0.0580  0.3913 -0.3887
  307loPI   C1A 4903  14.035   4.089   9.788  0.1718 -0.0722  0.2811
  307loPI   C2A 4904  14.072   4.118   9.332 -0.0233  0.2270  0.2295
  307loPI   C3A 4905  14.112   4.086   8.921  0.2923  0.0540  0.2448
  307loPI   C4A 4906  14.083   4.176   8.532  0.1292  0.0671 -0.0266
  307loPI   C5A 4907  13.907   4.329   8.131 -0.3063  0.0939 -0.3215
  307loPI   C6A 4908  13.812   4.487   7.735  0.2144  0.3350 -0.0896
  307loPI   C1B 4909  14.419   3.817   9.964  0.2124  0.3945  0.0010
  307loPI   C2B 4910  14.451   3.707   9.530  0.0629  0.0997 -0.1352
  307loPI   C3B 4911  14.461   3.775   9.166  0.1614  0.0770 -0.1009
  307loPI   C4B 4912  14.404   3.824   8.670  0.0930 -0.0267  0.3855
  308loPI    C1 4913   4.625  15.973  11.184 -0.0063 -0.3844 -0.0932
  308loPI    C2 4914   4.814  15.638  11.293  0.0193 -0.2495  0.2937
  308loPI    C3 4915   4.859  15.972  11.508 -0.0233  0.0001 -0.0745
  308loPI   PO4 4916   4.591  15.884  10.884 -0.0176 -0.1131  0.1755
  308loPI   GL1 4917   4.390  16.077  10.573 -0.0702 -0.1122 -0.2756
  308loPI   GL2 4918   4.323  15.828  10.405 -0.1341  0.0520  0.0657
  308loPI   C1A 4919   4.566  16.141  10.104 -0.0508 -0.2377 -0.0887
  308loPI   C2A 4920   4.548  16.053   9.614 -0.0779 -0.2578  0.0804
  308loPI   C3A 4921   4.475  15.919   9.227 -0.3551 -0.3686  0.2871
  308loPI   C4A 4922   4.458  16.003   8.775 -0.0168  0.3384  0.0188
  308loPI   C5A 4923   4.672  16.067   8.438  0.3003 -0.1118 -0.1471
  308loPI   C6A 4924   4.986  16.183   8.143  0.2111 -0.1136 -0.0702
  308loPI   C1B 4925   4.271  15.676   9.960 -0.0768 -0.2201  0.1462
  308loPI   C2B 4926   4.228  15.622   9.547  0.0754 -0.0905 -0.0355
  308loPI   C3B 4927   4.107  15.626   9.055  0.0911  0.2162 -0.0474
  308loPI   C4B 4928   4.167  15.568   8.718  0.2746  0.0410 -0.1740
  309loPI    C1 4929  14.324   5.692  10.718  0.1730 -0.0062 -0.0255
  309loPI    C2 4930  13.934   5.706  10.630  0.2125  0.1073 -0.1869
  309loPI    C3 4931  14.056   5.765  11.006  0.0661 -0.0498 -0.1135
  309loPI   PO4 4932  14.400   5.882  10.523 -0.0087 -0.0171  0.0975
  309loPI   GL1 4933  14.165   5.782  10.123 -0.3068 -0.2190 -0.0370
  309loPI   GL2 4934  14.109   5.481  10.242 -0.0237  0.1133  0.3436
  309loPI   C1A 4935  13.997   5.563   9.742 -0.0431 -0.1555 -0.0054
  309loPI   C2A 4936  13.909   5.457   9.334 -0.6565  0.1032  0.0675
  309loPI   C3A 4937  13.954   5.464   8.883  0.0879  0.0548 -0.0344
  309loPI   C4A 4938  13.810   5.627   8.560 -0.3384  0.4076 -0.1194
  309loPI   C5A 4939  13.345   5.643   8.358 -0.2059  0.0378 -0.1897
  309loPI   C6A 4940  12.954   5.512   8.433  0.2749  0.0305  0.1755
  309loPI   C1B 4941  14.361   5.237   9.941  0.2113 -0.2796 -0.0717
  309loPI   C2B 4942  14.235   5.099   9.564 -0.2556 -0.1356  0.0496
  309loPI   C3B 4943  14.293   5.075   9.165 -0.0238 -0.1825 -0.0422
  309loPI   C4B 4944  14.299   5.115   8.681 -0.0018 -0.2269 -0.3215
  310loPI    C1 4945  11.375  17.654  11.211 -0.0995 -0.1271  0.2651
  310loPI    C2 4946  11.728  17.676  11.396  0.2057 -0.0120 -0.3082
  310loPI    C3 4947  11.583  17.995  11.204 -0.2344 -0.0470 -0.0470
  310loPI   PO4 4948  11.412  17.394  11.014  0.1206  0.1405 -0.1700
  310loPI   GL1 4949  11.565  17.394  10.615 -0.0417  0.1278  0.1900
  310loPI   GL2 4950  11.820  17.169  10.454 -0.0776  0.0394  0.1599
  310loPI   C1A 4951  11.441  17.331  10.147 -0.1543  0.1993 -0.1205
  310loPI   C2A 4952  11.389  17.106   9.686 -0.1951 -0.0537  0.1510
  310loPI   C3A 4953  11.087  16.957   9.339  0.0978  0.3004 -0.1198
  310loPI   C4A 4954  11.065  16.981   8.906 -0.0381  0.0147  0.2295
  310loPI   C5A 4955  11.040  16.907   8.479 -0.0822  0.0840 -0.2933
  310loPI   C6A 4956  11.027  16.608   8.241 -0.1732  0.1047 -0.0882
  310loPI   C1B 4957  11.902  17.320  10.018 -0.0882  0.1212 -0.0151
  310loPI   C2B 4958  11.852  17.341   9.678  0.1337  0.1320 -0.3079
  310loPI   C3B 4959  12.049  17.298   9.293 -0.3438  0.1409  0.2118
  310loPI   C4B 4960  12.059  17.286   8.863 -0.1854  0.0934 -0.0828
  311loPI    C1 4961   0.963   1.317  11.089  0.0427 -0.1394  0.1033
  311loPI    C2 4962   0.922   1.714  11.119  0.1058 -0.1048 -0.2233
  311loPI    C3 4963   1.271   1.558  11.001  0.1387 -0.2695  0.0800
  311loPI   PO4 4964   0.827   1.201  10.987  0.1079  0.1103  0.0969
  311loPI   GL1 4965   0.751   1.130  10.553  0.2651  0.1427  0.0559
  311loPI   GL2 4966   0.483   1.181  10.515 -0.1431  0.0245  0.1921
  311loPI   C1A 4967   0.964   0.989  10.190  0.0048  0.4433  0.3659
  311loPI   C2A 4968   0.997   0.986   9.697 -0.3895  0.2430 -0.0394
  311loPI   C3A 4969   1.081   0.958   9.245  0.1056 -0.1134  0.1385
  311loPI   C4A 4970   1.070   0.920   8.800  0.0740  0.0437 -0.0832
  311loPI   C5A 4971   0.855   0.608   8.543  0.0896  0.0596 -0.1584
  311loPI   C6A 4972   0.496   0.666   8.317 -0.0762 -0.1237  0.1219
  311loPI   C1B 4973   0.408   1.066  10.121 -0.0972 -0.0231 -0.0460
  311loPI   C2B 4974   0.512   1.082   9.699  0.0476  0.0792  0.0635
  311loPI   C3B 4975   0.562   1.085   9.236 -0.2469 -0.1379 -0.1828
  311loPI   C4B 4976   0.583   1.000   8.844  0.2635 -0.1082 -0.0812
  312loPI    C1 4977   4.575   3.468  11.203 -0.0529  0.1544  0.0665
  312loPI    C2 4978   4.624   3.224  11.515  0.5363  0.1921  0.0144
  312loPI    C3 4979   4.639   3.620  11.567 -0.2139  0.2275  0.0653
  312loPI   PO4 4980   4.683   3.443  10.999 -0.2921  0.1186  0.0706
  312loPI   GL1 4981   4.497   3.587  10.640  0.0185 -0.0791 -0.2352
  312loPI   GL2 4982   4.632   3.381  10.339  0.2059  0.2042  0.1418
  312loPI   C1A 4983   4.319   3.755  10.301 -0.0820 -0.3086 -0.1262
  312loPI   C2A 4984   4.345   3.775   9.904  0.2380  0.0089  0.1612
  312loPI   C3A 4985   4.350   3.831   9.497  0.1788  0.1651  0.0623
  312loPI   C4A 4986   4.181   3.705   9.009  0.2483  0.0741 -0.1137
  312loPI   C5A 4987   4.040   3.649   8.549 -0.0522 -0.0194  0.0150
  312loPI   C6A 4988   3.901   3.328   8.342  0.0992  0.0366 -0.0565
  312loPI   C1B 4989   4.708   3.422   9.872 -0.0022  0.0965  0.0180
  312loPI   C2B 4990   4.719   3.401   9.477 -0.5160  0.3302 -0.1588
  312loPI   C3B 4991   4.599   3.491   9.099 -0.2894  0.0511 -0.0248
  312loPI   C4B 4992   4.535   3.735   8.634 -0.1600  0.1411 -0.2653
  313loPI    C1 4993  11.974   1.004  10.675  0.0954 -0.0075 -0.0839
  313loPI    C2 4994  11.593   0.881  10.676  0.1239 -0.0964  0.0271
  313loPI    C3 4995  11.890   0.615  10.710  0.2034 -0.0470 -0.2535
  313loPI   PO4 4996  11.974   1.150  10.524  0.1009 -0.0141 -0.0930
  313loPI   GL1 4997  12.190   1.161  10.200  0.0894 -0.0930  0.1553
  313loPI   GL2 4998  12.073   1.170   9.925  0.0381  0.2975  0.2012
  313loPI   C1A 4999  12.660   1.247  10.083  0.0047 -0.0606  0.0843
  313loPI   C2A 5000  12.602   1.249   9.678 -0.1983 -0.2844  0.0126
  313loPI   C3A 5001  12.461   1.259   9.211 -0.0346  0.1756  0.0496
  313loPI   C4A 5002  12.507   1.359   8.767 -0.0529  0.0270  0.1534
  313loPI   C5A 5003  12.317   1.450   8.410  0.1172  0.1138  0.1603
  313loPI   C6A 5004  12.340   1.228   8.000 -0.0487 -0.1917 -0.2720
  313loPI   C1B 5005  12.016   1.173   9.431  0.0420 -0.0038 -0.0396
  313loPI   C2B 5006  11.946   1.216   9.032  0.0710 -0.0363 -0.1869
  313loPI   C3B 5007  12.017   1.038   8.578 -0.1494 -0.2143  0.1924
  313loPI   C4B 5008  12.148   0.865   8.267  0.0779 -0.1307  0.1471
  314loPI    C1 5009  10.595   9.409  11.117  0.0107  0.2270  0.2051
  314loPI    C2 5010  10.734   9.446  11.491  0.1422 -0.2442  0.2095
  314loPI    C3 5011  10.734   9.088  11.312  0.0267 -0.0343 -0.2242
  314loPI   PO4 5012  10.745   9.618  10.994  0.1035 -0.1609 -0.4129
  314loPI   GL1 5013  10.442   9.715  10.530  0.1348 -0.4174 -0.1503
  314loPI   GL2 5014  10.366   9.433  10.655  0.1371 -0.2133  0.1083
  314loPI   C1A 5015  10.715   9.937  10.137  0.2044 -0.1117 -0.0465
  314loPI   C2A 5016  10.728  10.105   9.680 -0.3192  0.3342  0.1887
  314loPI   C3A 5017  10.845  10.127   9.146  0.0872 -0.0263  0.2500
  314loPI   C4A 5018  10.841  10.267   8.725 -0.0246 -0.1789 -0.0691
  314loPI   C5A 5019  10.931  10.338   8.299  0.2841  0.2055 -0.1921
  314loPI   C6A 5020  10.861  10.659   8.027 -0.3509  0.2347  0.0689
  314loPI   C1B 5021  10.496   9.433  10.152 -0.2166 -0.1709 -0.3585
  314loPI   C2B 5022  10.441   9.617   9.773  0.0760 -0.0213  0.0302
  314loPI   C3B 5023  10.540   9.658   9.463  0.1413  0.1160 -0.1041
  314loPI   C4B 5024  10.523   9.654   8.995  0.1440 -0.3040  0.1526
  315loPI    C1 5025  17.125   8.605  10.665  0.0474 -0.0742 -0.0918
  315loPI    C2 5026  17.241   8.811  10.988  0.0398 -0.0970 -0.0746
  315loPI    C3 5027  17.051   8.462  11.031 -0.1259 -0.0112 -0.1011
  315loPI   PO4 5028  17.004   8.736  10.485  0.1757 -0.1438 -0.1933
  315loPI   GL1 5029  17.018   8.765  10.051  0.1663  0.0089  0.3107
  315loPI   GL2 5030  16.889   8.599   9.833  0.3934  0.2387  0.0077
  315loPI   C1A 5031  17.295   8.890   9.775 -0.1369  0.0661  0.0301
  315loPI   C2A 5032  17.380   9.042   9.310 -0.1336 -0.0553 -0.1129
  315loPI   C3A 5033  17.315   9.128   9.015 -0.2474 -0.3020 -0.0586
  315loPI   C4A 5034  17.666   9.198   8.669 -0.0834 -0.0440  0.1117
  315loPI   C5A 5035  17.588   9.022   8.274 -0.1910  0.1214 -0.3722
  315loPI   C6A 5036  17.615   9.149   7.882 -0.1626  0.2790 -0.1606
  315loPI   C1B 5037  16.990   8.684   9.455 -0.1345  0.1243 -0.0021
  315loPI   C2B 5038  17.050   8.648   9.034 -0.0790  0.2233 -0.1210
  315loPI   C3B 5039  17.177   8.865   8.617  0.0034 -0.2322  0.3064
  315loPI   C4B 5040  17.148   8.893   8.175  0.3912 -0.0744  0.3242
  316loPI    C1 5041   9.063  11.684  11.039  0.2151 -0.1783 -0.0564
  316loPI    C2 5042   9.183  11.420  11.315 -0.0428 -0.2631 -0.0222
  316loPI    C3 5043   8.877  11.666  11.392  0.1093 -0.0439 -0.1043
  316loPI   PO4 5044   9.336  11.829  10.892  0.0565  0.2230  0.2603
  316loPI   GL1 5045   9.416  11.857  10.476 -0.0176 -0.1210  0.1716
  316loPI   GL2 5046   9.698  11.835  10.193 -0.1310 -0.0335 -0.1640
  316loPI   C1A 5047   9.219  11.820  10.037  0.1269  0.0251  0.4885
  316loPI   C2A 5048   9.134  11.952   9.504  0.0675  0.1435  0.0637
  316loPI   C3A 5049   9.269  11.863   9.078 -0.2412 -0.0843  0.0307
  316loPI   C4A 5050   9.406  11.680   8.692 -0.0371  0.0610  0.1287
  316loPI   C5A 5051   9.658  11.495   8.428 -0.0995 -0.2290  0.0408
  316loPI   C6A 5052   9.780  11.356   8.059 -0.1407 -0.1045 -0.2779
  316loPI   C1B 5053   9.641  11.901   9.761  0.0207  0.3482 -0.0567
  316loPI   C2B 5054   9.694  11.894   9.391  0.2798 -0.3682  0.1464
  316loPI   C3B 5055   9.740  11.968   8.955 -0.3237  0.1615  0.0198
  316loPI   C4B 5056   9.780  12.025   8.491 -0.3072  0.2882  0.0507
  317loPI    C1 5057  14.354   4.030  10.767 -0.0305 -0.0337 -0.0116
  317loPI    C2 5058  14.456   4.055  11.153  0.0088 -0.1307 -0.0155
  317loPI    C3 5059  14.399   3.697  10.985 -0.1961 -0.0825 -0.0506
  317loPI   PO4 5060  14.486   4.170  10.658 -0.1266  0.0052  0.2468
  317loPI   GL1 5061  14.614   4.149  10.321  0.1530 -0.2131 -0.3662
  317loPI   GL2 5062  14.866   3.977  10.173  0.3253 -0.0916 -0.0584
  317loPI   C1A 5063  14.512   4.309   9.850 -0.0740 -0.1293 -0.3805
  317loPI   C2A 5064  14.546   4.209   9.439  0.1338 -0.0273  0.1661
  317loPI   C3A 5065  14.581   4.293   9.015 -0.1743 -0.1187 -0.2335
  317loPI   C4A 5066  14.555   4.362   8.642  0.2140  0.0514 -0.0239
  317loPI   C5A 5067  14.505   4.200   8.259  0.1036 -0.0288 -0.0356
  317loPI   C6A 5068  14.448   4.182   7.775 -0.0516 -0.1716 -0.1263
  317loPI   C1B 5069  14.850   3.948   9.770  0.1016 -0.0267 -0.0144
  317loPI   C2B 5070  14.956   3.887   9.371 -0.1749  0.0722  0.2447
  317loPI   C3B 5071  14.896   3.870   8.913 -0.1526 -0.1005 -0.2285
  317loPI   C4B 5072  14.852   3.933   8.491  0.3630 -0.2173 -0.0562
  318loPI    C1 5073   2.414   0.767  11.108 -0.0733 -0.0790  0.0479
  318loPI    C2 5074   2.050   0.794  11.272  0.0459 -0.2113  0.3432
  318loPI    C3 5075   2.375   0.821  11.503  0.2256 -0.0813  0.0798
  318loPI   PO4 5076   2.386   0.912  10.790  0.0133  0.0293 -0.1339
  318loPI   GL1 5077   2.293   0.589  10.448  0.0234  0.1973 -0.0422
  318loPI   GL2 5078   2.206   0.306  10.362  0.1712 -0.1296  0.0899
  318loPI   C1A 5079   2.029   0.811  10.158  0.2963  0.0141 -0.1399
  318loPI   C2A 5080   2.006   0.825   9.773  0.1452 -0.1211  0.0750
  318loPI   C3A 5081   2.064   0.754   9.351 -0.2182 -0.1485 -0.0821
  318loPI   C4A 5082   2.179   0.747   8.994  0.0450  0.2727 -0.0278
  318loPI   C5A 5083   2.073   0.721   8.588 -0.1064  0.0846  0.0164
  318loPI   C6A 5084   2.239   0.574   8.140  0.2485  0.0359 -0.1414
  318loPI   C1B 5085   2.218   0.303   9.970 -0.1074 -0.1325 -0.5292
  318loPI   C2B 5086   2.243   0.290   9.546  0.2474 -0.1198  0.1221
  318loPI   C3B 5087   2.369   0.220   9.172 -0.0838  0.1064  0.3615
  318loPI   C4B 5088   2.266   0.230   8.755 -0.4155 -0.5391  0.0429
  319loPI    C1 5089   5.924   4.937  11.012  0.0052 -0.0525 -0.0237
  319loPI    C2 5090   5.579   4.934  11.215 -0.0464 -0.1509 -0.1114
  319loPI    C3 5091   5.881   4.697  11.329 -0.0078 -0.0659 -0.0355
  319loPI   PO4 5092   5.849   4.788  10.736  0.3853 -0.1687 -0.0505
  319loPI   GL1 5093   5.788   4.895  10.322 -0.1356 -0.0390  0.2122
  319loPI   GL2 5094   5.800   4.676  10.184  0.0502 -0.3026 -0.1768
  319loPI   C1A 5095   6.001   5.171   9.972 -0.0216  0.2162 -0.1723
  319loPI   C2A 5096   6.231   5.366   9.621 -0.1596  0.1900  0.2179
  319loPI   C3A 5097   6.256   5.243   9.197 -0.3893 -0.2487  0.0551
  319loPI   C4A 5098   6.013   5.261   8.799 -0.1224 -0.2211 -0.0650
  319loPI   C5A 5099   6.063   5.059   8.399 -0.2022  0.3207 -0.2067
  319loPI   C6A 5100   5.836   4.761   8.180  0.0977 -0.1871  0.1322
  319loPI   C1B 5101   5.447   4.882   9.895 -0.1838  0.0399 -0.2980
  319loPI   C2B 5102   5.380   4.696   9.568 -0.1239  0.1358  0.0547
  319loPI   C3B 5103   5.526   4.614   9.284 -0.2324  0.1406 -0.1881
  319loPI   C4B 5104   5.584   4.414   8.865 -0.2407  0.0789  0.1326
  320loPI    C1 5105   1.242   7.075  10.604  0.2501 -0.0027  0.0661
  320loPI    C2 5106   0.895   6.932  10.744  0.1056  0.1474 -0.1336
  320loPI    C3 5107   1.209   6.971  10.989  0.0325 -0.1463  0.0106
  320loPI   PO4 5108   1.175   7.158  10.337 -0.2949 -0.3146 -0.2263
  320loPI   GL1 5109   1.315   7.363   9.968 -0.1880 -0.0383 -0.0065
  320loPI   GL2 5110   1.591   7.215  10.067  0.1181 -0.2428  0.1759
  320loPI   C1A 5111   1.331   7.337   9.525  0.3785 -0.0255 -0.1863
  320loPI   C2A 5112   1.401   7.342   9.093  0.2119 -0.0565  0.1070
  320loPI   C3A 5113   1.536   7.125   8.768  0.1593 -0.0703  0.0271
  320loPI   C4A 5114   1.379   6.986   8.342 -0.2909  0.0632  0.1625
  320loPI   C5A 5115   1.547   6.922   7.901  0.0301  0.0923  0.0412
  320loPI   C6A 5116   1.581   7.033   7.489  0.2855  0.1533 -0.0926
  320loPI   C1B 5117   1.790   7.475   9.650  0.1043 -0.0048  0.0255
  320loPI   C2B 5118   1.844   7.747   9.241  0.0003  0.1079  0.1324
  320loPI   C3B 5119   2.057   7.839   8.888  0.4354 -0.0032  0.0246
  320loPI   C4B 5120   2.413   7.894   8.774  0.0665  0.2217  0.0412
  321loPI    C1 5121   1.401   2.121  11.031 -0.1860  0.1194  0.0943
  321loPI    C2 5122   1.384   1.946  11.390  0.3189  0.1182  0.1245
  321loPI    C3 5123   1.236   2.314  11.340  0.0157  0.0191  0.2665
  321loPI   PO4 5124   1.394   2.018  10.878 -0.0612  0.3810  0.0877
  321loPI   GL1 5125   1.300   1.733  10.554 -0.1612 -0.3211 -0.0378
  321loPI   GL2 5126   1.536   1.845  10.446  0.0540 -0.0118 -0.1464
  321loPI   C1A 5127   1.083   1.856  10.124 -0.1177 -0.1291  0.1901
  321loPI   C2A 5128   1.144   1.814   9.664 -0.1756 -0.4118  0.2315
  321loPI   C3A 5129   1.207   1.794   9.254  0.0239 -0.1190  0.3528
  321loPI   C4A 5130   1.277   1.815   8.796 -0.1352 -0.2298  0.2791
  321loPI   C5A 5131   1.231   1.868   8.425  0.3613 -0.1413  0.2597
  321loPI   C6A 5132   1.039   1.705   8.065  0.1834 -0.2159  0.0286
  321loPI   C1B 5133   1.566   1.771   9.963 -0.1617 -0.1951  0.0322
  321loPI   C2B 5134   1.677   1.740   9.503  0.0718  0.1444 -0.3328
  321loPI   C3B 5135   1.708   1.711   9.091  0.1847  0.0116 -0.0556
  321loPI   C4B 5136   1.723   1.727   8.615 -0.0166 -0.0945 -0.3464
  322loPI    C1 5137   6.699  14.016  10.970 -0.3253  0.2518  0.0072
  322loPI    C2 5138   6.418  13.998  11.254 -0.1364 -0.1097  0.1779
  322loPI    C3 5139   6.797  14.079  11.353 -0.0932 -0.1046  0.0110
  322loPI   PO4 5140   6.594  14.116  10.787  0.0887 -0.0268  0.1244
  322loPI   GL1 5141   6.424  14.286  10.459  0.0946  0.1512 -0.0060
  322loPI   GL2 5142   6.143  14.529  10.477 -0.2142  0.1252  0.3290
  322loPI   C1A 5143   6.437  13.939  10.228  0.1623 -0.1660  0.0651
  322loPI   C2A 5144   6.557  13.643   9.888  0.0819 -0.1182 -0.0618
  322loPI   C3A 5145   6.589  13.605   9.434 -0.0657  0.0863 -0.1138
  322loPI   C4A 5146   6.852  13.456   9.098 -0.2212 -0.3826  0.0139
  322loPI   C5A 5147   6.988  13.045   8.968  0.1076  0.0089 -0.2167
  322loPI   C6A 5148   7.177  12.693   8.936  0.0786  0.3855 -0.1636
  322loPI   C1B 5149   6.162  14.816  10.081  0.0893 -0.2669  0.1561
  322loPI   C2B 5150   5.954  14.951   9.761  0.0799  0.0986 -0.1017
  322loPI   C3B 5151   5.923  14.962   9.283  0.2153 -0.1997 -0.0064
  322loPI   C4B 5152   5.734  14.961   8.934  0.2224  0.0794 -0.0311
  323loPI    C1 5153   6.087   5.532  10.964  0.2516  0.1976 -0.1954
  323loPI    C2 5154   6.368   5.600  11.240 -0.0598  0.0441  0.1685
  323loPI    C3 5155   6.008   5.771  11.274 -0.0810  0.0777 -0.1835
  323loPI   PO4 5156   6.219   5.623  10.689 -0.0171  0.0612 -0.1331
  323loPI   GL1 5157   6.213   5.501  10.331 -0.1588  0.1367  0.0700
  323loPI   GL2 5158   6.418   5.309  10.180  0.0120 -0.0184  0.0737
  323loPI   C1A 5159   5.913   5.657   9.960  0.0438  0.3033 -0.2258
  323loPI   C2A 5160   5.903   5.782   9.546  0.0217 -0.0259  0.3023
  323loPI   C3A 5161   6.037   5.734   9.149  0.1428  0.0708  0.2883
  323loPI   C4A 5162   6.082   5.741   8.725 -0.0206  0.0074 -0.0647
  323loPI   C5A 5163   6.135   5.620   8.287 -0.1445 -0.0141 -0.2718
  323loPI   C6A 5164   5.895   5.772   8.020 -0.1172 -0.2023  0.2764
  323loPI   C1B 5165   6.700   5.367   9.788  0.0580  0.0532  0.2069
  323loPI   C2B 5166   6.746   5.226   9.382  0.1305 -0.0398 -0.2743
  323loPI   C3B 5167   6.853   5.347   8.909  0.0129 -0.3446  0.0787
  323loPI   C4B 5168   6.981   5.225   8.489 -0.1171 -0.1561 -0.0776
  324loPI    C1 5169  12.730   4.168  10.967 -0.0214 -0.0209  0.0627
  324loPI    C2 5170  12.572   4.337  11.293 -0.1355 -0.0942  0.0462
  324loPI    C3 5171  12.817   4.548  11.057 -0.2078  0.0206  0.0728
  324loPI   PO4 5172  12.586   4.068  10.775  0.0200  0.2917 -0.0973
  324loPI   GL1 5173  12.512   4.084  10.347 -0.3340 -0.0244 -0.1694
  324loPI   GL2 5174  12.638   4.185  10.154 -0.0065 -0.0407 -0.3492
  324loPI   C1A 5175  12.159   4.303  10.159 -0.4553 -0.0112  0.2384
  324loPI   C2A 5176  11.909   4.286   9.797 -0.0046 -0.0636 -0.1246
  324loPI   C3A 5177  11.803   4.408   9.403 -0.1243  0.0217  0.3097
  324loPI   C4A 5178  11.869   4.451   8.922 -0.0810  0.0565  0.0076
  324loPI   C5A 5179  11.830   4.433   8.442  0.2508 -0.3036 -0.0678
  324loPI   C6A 5180  11.801   4.194   8.042 -0.0023  0.0517 -0.0634
  324loPI   C1B 5181  12.682   4.147   9.797  0.1940 -0.2716  0.1286
  324loPI   C2B 5182  12.780   4.040   9.378  0.0985 -0.0156 -0.1547
  324loPI   C3B 5183  12.715   4.130   8.937  0.0029  0.2765  0.1390
  324loPI   C4B 5184  12.652   4.128   8.572 -0.2640 -0.1012 -0.0442
  325loPI    C1 5185   3.200   7.669  10.857 -0.2289 -0.0090  0.1588
  325loPI    C2 5186   3.471   7.631  11.149  0.0142 -0.0486 -0.0681
  325loPI    C3 5187   3.312   7.989  11.070  0.0439 -0.0140  0.0269
  325loPI   PO4 5188   3.301   7.554  10.661 -0.3250  0.1832 -0.0339
  325loPI   GL1 5189   3.117   7.459  10.262 -0.1001  0.0124  0.0118
  325loPI   GL2 5190   2.865   7.408  10.051 -0.1425  0.1244 -0.2774
  325loPI   C1A 5191   3.400   7.329   9.860  0.1538 -0.2453 -0.0472
  325loPI   C2A 5192   3.584   7.264   9.443  0.2211 -0.0240 -0.2940
  325loPI   C3A 5193   3.693   7.291   9.028  0.1173 -0.0455 -0.2567
  325loPI   C4A 5194   3.783   7.551   8.607  0.1062  0.2325 -0.0740
  325loPI   C5A 5195   3.738   7.500   8.199 -0.1237 -0.0564 -0.1788
  325loPI   C6A 5196   3.598   7.155   8.019 -0.0130 -0.2741 -0.0482
  325loPI   C1B 5197   2.848   7.307   9.646  0.4003 -0.0203  0.1422
  325loPI   C2B 5198   3.000   7.254   9.212 -0.2786 -0.0038  0.2238
  325loPI   C3B 5199   2.956   6.963   8.917 -0.0252 -0.0074 -0.2887
  325loPI   C4B 5200   2.999   6.850   8.494 -0.1527 -0.0218 -0.1689
  326loPI    C1 5201   9.944  15.546  11.170 -0.2137 -0.1983 -0.0994
  326loPI    C2 5202   9.679  15.586  11.467  0.0915 -0.0664  0.1610
  326loPI    C3 5203   9.849  15.230  11.397 -0.0666 -0.1244  0.0679
  326loPI   PO4 5204   9.865  15.679  10.965  0.0023 -0.0889 -0.0967
  326loPI   GL1 5205   9.664  15.584  10.642  0.0579  0.2374 -0.1430
  326loPI   GL2 5206   9.419  15.501  10.542 -0.0753 -0.1075  0.4446
  326loPI   C1A 5207   9.500  15.825  10.215 -0.2221  0.1613  0.2368
  326loPI   C2A 5208   9.825  16.053   9.990  0.1287 -0.3175  0.0533
  326loPI   C3A 5209   9.766  16.161   9.547 -0.2137 -0.0725 -0.1930
  326loPI   C4A 5210   9.959  16.220   9.213 -0.1526  0.1311 -0.0157
  326loPI   C5A 5211  10.105  15.911   8.919  0.1344 -0.1086 -0.2264
  326loPI   C6A 5212  10.322  15.644   8.698  0.0118 -0.0994  0.0222
  326loPI   C1B 5213   9.273  15.377  10.121 -0.1593  0.1731 -0.3112
  326loPI   C2B 5214   9.328  15.164   9.762  0.0887  0.1354 -0.0165
  326loPI   C3B 5215   9.459  15.256   9.391 -0.0557  0.3155  0.0534
  326loPI   C4B 5216   9.459  15.095   8.951 -0.1777  0.1896  0.0426
  327loPI    C1 5217  15.886  13.267  11.276  0.2451 -0.0581  0.0238
  327loPI    C2 5218  15.970  13.646  11.374  0.0589 -0.0164  0.0266
  327loPI    C3 5219  16.038  13.351  11.636  0.3315 -0.0020 -0.0254
  327loPI   PO4 5220  15.886  13.286  11.049 -0.2166 -0.1857  0.1866
  327loPI   GL1 5221  16.067  13.377  10.627  0.0905 -0.1968  0.2209
  327loPI   GL2 5222  16.112  13.692  10.426 -0.0174 -0.1316  0.0796
  327loPI   C1A 5223  15.771  13.430  10.170  0.1929 -0.2217  0.0563
  327loPI   C2A 5224  15.964  13.328   9.734  0.1722  0.1703  0.0735
  327loPI   C3A 5225  15.879  13.496   9.283 -0.3701 -0.0652  0.0643
  327loPI   C4A 5226  16.039  13.399   8.881 -0.0356  0.0085 -0.1198
  327loPI   C5A 5227  15.965  13.313   8.439 -0.1574  0.0406  0.0411
  327loPI   C6A 5228  16.059  13.578   8.090 -0.3448  0.2362 -0.1988
  327loPI   C1B 5229  16.184  13.716   9.993 -0.1438 -0.3239  0.0304
  327loPI   C2B 5230  16.257  13.756   9.571 -0.0052  0.1417  0.2521
  327loPI   C3B 5231  16.253  13.809   9.076  0.1094 -0.0902 -0.0135
  327loPI   C4B 5232  16.083  13.812   8.623 -0.0619  0.1418 -0.0221
  328loPI    C1 5233  11.910  10.164  10.901  0.1310  0.1411 -0.1314
  328loPI    C2 5234  12.279  10.114  10.753  0.0653 -0.1613 -0.2002
  328loPI    C3 5235  12.229  10.232  11.132  0.2317 -0.0547 -0.2106
  328loPI   PO4 5236  11.767  10.030  10.748 -0.0600 -0.0992 -0.0539
  328loPI   GL1 5237  11.574  10.307  10.447 -0.0274 -0.3409  0.0243
  328loPI   GL2 5238  11.892  10.437  10.434 -0.4688 -0.0361 -0.1368
  328loPI   C1A 5239  11.473  10.365  10.036 -0.2445  0.1886 -0.2003
  328loPI   C2A 5240  11.379  10.198   9.591  0.0933 -0.0504  0.0948
  328loPI   C3A 5241  11.378  10.237   9.240 -0.4045  0.0331  0.0971
  328loPI   C4A 5242  11.338  10.174   8.819 -0.0485  0.1440  0.1170
  328loPI   C5A 5243  11.203   9.938   8.557  0.2230  0.1784 -0.0920
  328loPI   C6A 5244  11.455   9.804   8.197  0.0110  0.1573 -0.1456
  328loPI   C1B 5245  11.972  10.329  10.064  0.0538 -0.0921 -0.0874
  328loPI   C2B 5246  11.939  10.265   9.667 -0.1968 -0.0782 -0.0410
  328loPI   C3B 5247  11.994  10.341   9.310  0.2330  0.2028 -0.1728
  328loPI   C4B 5248  11.796  10.144   8.976  0.1462  0.1103 -0.1024
  329loPI    C1 5249  14.161  10.364  10.856 -0.1203  0.2725  0.0562
  329loPI    C2 5250  14.359  10.017  10.849 -0.1332  0.2672 -0.0963
  329loPI    C3 5251  14.444  10.290  11.128 -0.1816  0.1078  0.0762
  329loPI   PO4 5252  13.906  10.221  10.718 -0.3040 -0.1655 -0.0134
  329loPI   GL1 5253  13.966  10.312  10.313  0.1849  0.2555  0.0414
  329loPI   GL2 5254  14.108  10.073  10.097  0.0153  0.0413 -0.1650
  329loPI   C1A 5255  14.117  10.635   9.977 -0.0384  0.0174 -0.0122
  329loPI   C2A 5256  14.202  10.660   9.550 -0.0738 -0.0587 -0.4921
  329loPI   C3A 5257  14.039  10.667   9.177  0.2714  0.0565  0.0732
  329loPI   C4A 5258  14.162  10.591   8.718 -0.2409 -0.1026  0.0439
  329loPI   C5A 5259  14.211  10.778   8.306 -0.0526  0.2676  0.0254
  329loPI   C6A 5260  14.350  11.048   7.996  0.0006 -0.2137  0.0105
  329loPI   C1B 5261  13.983  10.176   9.699  0.0629  0.3190 -0.1890
  329loPI   C2B 5262  13.985  10.231   9.299  0.0673  0.0320 -0.1659
  329loPI   C3B 5263  13.933  10.070   8.945 -0.2648  0.2095  0.3891
  329loPI   C4B 5264  13.877  10.237   8.566 -0.0782  0.2188 -0.0051
  330loPI    C1 5265   9.073   5.089  10.775 -0.1116 -0.1956  0.0260
  330loPI    C2 5266   8.972   5.124  11.161  0.1898 -0.1587  0.1044
  330loPI    C3 5267   9.141   5.432  10.969 -0.3744 -0.0175 -0.1896
  330loPI   PO4 5268   8.919   5.000  10.650  0.1393 -0.2020  0.3261
  330loPI   GL1 5269   8.674   5.301  10.387  0.3017 -0.0569 -0.1879
  330loPI   GL2 5270   8.645   5.074  10.189  0.0267  0.2998  0.2882
  330loPI   C1A 5271   8.343   5.481  10.011  0.2960  0.0202 -0.1305
  330loPI   C2A 5272   8.379   5.466   9.555  0.1037  0.1364  0.0661
  330loPI   C3A 5273   8.260   5.484   9.142 -0.1990 -0.1783  0.1101
  330loPI   C4A 5274   8.289   5.146   8.825  0.1996  0.1769  0.1029
  330loPI   C5A 5275   8.298   4.745   8.897  0.1654  0.0481  0.1791
  330loPI   C6A 5276   8.227   4.338   9.081 -0.0780 -0.1770  0.2339
  330loPI   C1B 5277   8.943   5.393   9.932 -0.0221  0.0398 -0.0126
  330loPI   C2B 5278   8.920   5.547   9.532  0.1102 -0.0302 -0.1380
  330loPI   C3B 5279   8.874   5.481   9.075  0.1633 -0.0502  0.3488
  330loPI   C4B 5280   8.845   5.530   8.532 -0.0945  0.3161  0.1852
  331loPI    C1 5281  16.686   1.280  11.058  0.1085  0.1729 -0.1559
  331loPI    C2 5282  16.409   1.076  10.853  0.1145 -0.0047  0.0103
  331loPI    C3 5283  16.309   1.267  11.190  0.1511  0.1050 -0.0403
  331loPI   PO4 5284  16.770   1.436  10.869 -0.0830  0.2726  0.4692
  331loPI   GL1 5285  17.094   1.540  10.611  0.0148  0.0740  0.2446
  331loPI   GL2 5286  17.456   1.400  10.498 -0.1799 -0.1245  0.0098
  331loPI   C1A 5287  17.150   1.811  10.388 -0.0775  0.0547 -0.1011
  331loPI   C2A 5288  17.277   1.748  10.036 -0.1793  0.0288 -0.0641
  331loPI   C3A 5289  17.343   1.817   9.579 -0.0598 -0.1925 -0.1444
  331loPI   C4A 5290  17.525   1.630   9.229 -0.0973 -0.3413  0.0990
  331loPI   C5A 5291  17.622   1.635   8.710  0.4859 -0.0148 -0.3968
  331loPI   C6A 5292  17.356   1.618   8.352 -0.0544 -0.0876 -0.3039
  331loPI   C1B 5293  17.499   1.206  10.038  0.0950 -0.0428  0.2654
  331loPI   C2B 5294  17.551   1.253   9.622  0.0314 -0.1085 -0.2349
  331loPI   C3B 5295  17.688   1.140   9.231 -0.0396 -0.3056  0.0885
  331loPI   C4B 5296  17.769   1.121   8.759 -0.0438 -0.2032  0.0184
  332loPI    C1 5297   7.515   1.755  11.182  0.0327  0.0070 -0.1258
  332loPI    C2 5298   7.225   1.651  11.437  0.0142 -0.0092 -0.1536
  332loPI    C3 5299   7.495   1.380  11.320  0.0976  0.0298 -0.0532
  332loPI   PO4 5300   7.264   1.875  10.998 -0.2162  0.3813  0.0021
  332loPI   GL1 5301   7.340   2.037  10.568 -0.0439 -0.1346 -0.0152
  332loPI   GL2 5302   7.126   1.818  10.541 -0.1487  0.0053 -0.4638
  332loPI   C1A 5303   7.515   1.861  10.126  0.2750  0.0323  0.1454
  332loPI   C2A 5304   7.613   1.727   9.659  0.1304  0.1372  0.0340
  332loPI   C3A 5305   7.622   1.827   9.260 -0.0266  0.0817 -0.1308
  332loPI   C4A 5306   7.600   1.791   8.775 -0.1134 -0.1853  0.0785
  332loPI   C5A 5307   7.542   2.057   8.320 -0.0511  0.0200 -0.1028
  332loPI   C6A 5308   7.499   2.083   7.921  0.0519 -0.1089 -0.0729
  332loPI   C1B 5309   7.026   2.018  10.208 -0.0618 -0.3717  0.1987
  332loPI   C2B 5310   7.233   2.108   9.804 -0.0077  0.1221  0.1327
  332loPI   C3B 5311   7.268   2.191   9.359 -0.1206  0.0285 -0.0376
  332loPI   C4B 5312   7.129   2.160   8.964 -0.1652  0.0924 -0.0527
  333loPI    C1 5313  17.063   2.448  11.081 -0.0876  0.0351  0.0685
  333loPI    C2 5314  17.214   2.811  11.156  0.0035  0.0435 -0.1488
  333loPI    C3 5315  17.315   2.501  11.388  0.3500  0.0513 -0.2836
  333loPI   PO4 5316  16.892   2.457  10.842 -0.2541  0.3447  0.2185
  333loPI   GL1 5317  16.818   2.247  10.401  0.3539  0.1835  0.0400
  333loPI   GL2 5318  16.640   2.561  10.357  0.3623 -0.1516 -0.1327
  333loPI   C1A 5319  17.069   2.217  10.117 -0.2081  0.0296  0.1004
  333loPI   C2A 5320  17.045   2.227   9.739 -0.0861  0.2117 -0.3117
  333loPI   C3A 5321  17.190   2.223   9.330 -0.2351  0.2518  0.3087
  333loPI   C4A 5322  17.281   2.353   8.959  0.2337 -0.4476  0.2839
  333loPI   C5A 5323  17.407   2.172   8.612  0.0380 -0.1527  0.0544
  333loPI   C6A 5324  17.273   2.529   8.356 -0.0382 -0.3158 -0.0371
  333loPI   C1B 5325  16.796   2.558   9.957 -0.0133  0.1994 -0.0404
  333loPI   C2B 5326  16.810   2.645   9.513 -0.0304 -0.1848 -0.0138
  333loPI   C3B 5327  17.027   2.688   9.151 -0.0006 -0.2537 -0.1474
  333loPI   C4B 5328  16.935   2.738   8.665 -0.4381  0.0039  0.1880
  334loPI    C1 5329  11.209   0.935  10.994  0.0721  0.0463  0.1206
  334loPI    C2 5330  11.203   0.970  11.392  0.1129  0.2920  0.1007
  334loPI    C3 5331  11.553   0.964  11.197  0.1066 -0.1508  0.0930
  334loPI   PO4 5332  11.028   1.072  10.878  0.1486  0.0988 -0.0745
  334loPI   GL1 5333  10.771   0.990  10.551 -0.0703 -0.1181  0.3054
  334loPI   GL2 5334  11.041   0.802  10.401 -0.3241  0.0367  0.0080
  334loPI   C1A 5335  10.589   0.733  10.164 -0.2260 -0.1832  0.2709
  334loPI   C2A 5336  10.618   0.783   9.636 -0.0720  0.1294  0.1577
  334loPI   C3A 5337  10.607   0.785   9.255  0.1855 -0.1868 -0.3826
  334loPI   C4A 5338  10.621   0.896   8.898 -0.1787 -0.1724 -0.3225
  334loPI   C5A 5339  10.662   0.746   8.537 -0.0916  0.1298  0.2405
  334loPI   C6A 5340  10.923   0.683   8.195  0.0455 -0.2550 -0.2687
  334loPI   C1B 5341  11.125   0.988   9.960 -0.0353 -0.1843  0.1054
  334loPI   C2B 5342  11.130   1.091   9.617 -0.1827  0.1375  0.2206
  334loPI   C3B 5343  11.081   0.918   9.235  0.0786  0.0923  0.1807
  334loPI   C4B 5344  11.122   0.779   8.828  0.0079 -0.1411  0.0814
  335loPI    C1 5345  16.042  14.163  11.377 -0.0082 -0.1623  0.0010
  335loPI    C2 5346  15.928  14.534  11.281  0.1238 -0.0698  0.1934
  335loPI    C3 5347  15.765  14.350  11.597  0.0331 -0.1902  0.0775
  335loPI   PO4 5348  16.142  14.084  11.205  0.0258 -0.0731 -0.0333
  335loPI   GL1 5349  16.200  14.124  10.774 -0.0995  0.0246  0.1528
  335loPI   GL2 5350  16.045  14.287  10.640  0.0024 -0.2122 -0.0597
  335loPI   C1A 5351  16.549  14.247  10.356  0.1236 -0.0246  0.4370
  335loPI   C2A 5352  16.620  14.226   9.924  0.1792 -0.1696  0.1122
  335loPI   C3A 5353  16.636  14.280   9.423 -0.0132  0.2560 -0.0738
  335loPI   C4A 5354  16.735  14.398   9.004  0.0684  0.0792 -0.2463
  335loPI   C5A 5355  16.880  14.767   8.885  0.2092  0.0212  0.1216
  335loPI   C6A 5356  16.986  15.048   8.592 -0.1686 -0.0107 -0.0807
  335loPI   C1B 5357  16.058  14.185  10.232 -0.1431 -0.1168 -0.2042
  335loPI   C2B 5358  16.121  14.220   9.763 -0.2630  0.0438 -0.1910
  335loPI   C3B 5359  16.162  14.299   9.273  0.1450 -0.0907  0.2355
  335loPI   C4B 5360  16.209  14.341   8.845  0.0920 -0.0899  0.0586
  336loPI    C1 5361   8.007   5.985  10.818 -0.0898 -0.1397 -0.0496
  336loPI    C2 5362   8.320   5.827  10.626  0.0851  0.0106  0.1073
  336loPI    C3 5363   8.360   5.953  11.003 -0.1556  0.0675  0.1157
  336loPI   PO4 5364   7.824   6.039  10.593 -0.0031  0.2111  0.0682
  336loPI   GL1 5365   7.957   5.968  10.186  0.0498  0.0467 -0.1620
  336loPI   GL2 5366   8.282   6.018  10.099  0.0639 -0.1270 -0.1615
  336loPI   C1A 5367   8.022   5.910   9.749  0.0477 -0.1136  0.0539
  336loPI   C2A 5368   8.022   5.872   9.308 -0.1750  0.2894  0.1708
  336loPI   C3A 5369   7.926   5.853   8.813 -0.2712 -0.2029  0.1321
  336loPI   C4A 5370   7.931   5.891   8.262 -0.0751 -0.0495 -0.1909
  336loPI   C5A 5371   7.675   6.005   7.879 -0.0086  0.0649 -0.0028
  336loPI   C6A 5372   7.258   6.085   7.988  0.1657 -0.1177  0.0149
  336loPI   C1B 5373   8.325   6.279   9.743 -0.1346  0.0561  0.2990
  336loPI   C2B 5374   8.279   6.245   9.242 -0.1694 -0.2028 -0.0509
  336loPI   C3B 5375   8.190   6.470   8.858  0.0184 -0.0469  0.0311
  336loPI   C4B 5376   8.025   6.223   8.525 -0.1650 -0.0323 -0.2382
  337loPI    C1 5377   3.016   5.273  11.058  0.1288 -0.0784 -0.0082
  337loPI    C2 5378   2.988   5.490  11.392  0.1295  0.0152 -0.0685
  337loPI    C3 5379   3.129   5.116  11.408 -0.0137 -0.0346  0.0581
  337loPI   PO4 5380   3.039   5.390  10.862 -0.1277  0.0633 -0.2230
  337loPI   GL1 5381   3.093   5.271  10.459 -0.0096 -0.0183 -0.2823
  337loPI   GL2 5382   3.370   5.261  10.432  0.0996  0.0959  0.3497
  337loPI   C1A 5383   3.139   5.256   9.946 -0.2088  0.1247  0.0554
  337loPI   C2A 5384   3.139   5.246   9.467  0.0296 -0.0899  0.3845
  337loPI   C3A 5385   3.216   5.205   9.099  0.1822  0.1099 -0.0301
  337loPI   C4A 5386   3.311   5.125   8.710  0.1307 -0.1690  0.2145
  337loPI   C5A 5387   3.206   5.219   8.319 -0.1222  0.0760  0.0432
  337loPI   C6A 5388   2.974   5.419   7.967 -0.1647 -0.0007  0.0329
  337loPI   C1B 5389   3.603   4.989  10.042  0.0401 -0.0187 -0.1416
  337loPI   C2B 5390   3.592   4.902   9.627 -0.3010 -0.3177 -0.3543
  337loPI   C3B 5391   3.609   4.933   9.172 -0.1471 -0.0727 -0.1810
  337loPI   C4B 5392   3.714   4.900   8.760 -0.2989 -0.0737  0.0962
  338loPI    C1 5393   7.779   4.445  11.192 -0.0542  0.0301 -0.1472
  338loPI    C2 5394   7.646   4.789  11.348  0.0422  0.0803 -0.1748
  338loPI    C3 5395   8.039   4.713  11.339  0.0265  0.0067 -0.2462
  338loPI   PO4 5396   7.588   4.448  10.951 -0.0762  0.0692  0.2017
  338loPI   GL1 5397   7.660   4.543  10.578  0.1292 -0.0482 -0.0477
  338loPI   GL2 5398   7.789   4.710  10.477 -0.1124 -0.2644 -0.1058
  338loPI   C1A 5399   7.519   4.480  10.172  0.1338  0.1189 -0.1700
  338loPI   C2A 5400   7.518   4.435   9.729 -0.1169  0.1171 -0.0990
  338loPI   C3A 5401   7.379   4.483   9.354  0.0776 -0.1045 -0.0096
  338loPI   C4A 5402   7.446   4.561   8.974 -0.2083 -0.2117  0.1720
  338loPI   C5A 5403   7.443   4.586   8.548  0.3628 -0.1025 -0.0350
  338loPI   C6A 5404   7.357   4.378   8.195  0.2081  0.0210  0.0436
  338loPI   C1B 5405   7.990   4.679  10.113 -0.3002 -0.2792  0.1235
  338loPI   C2B 5406   7.960   4.647   9.680 -0.0058 -0.0247  0.1318
  338loPI   C3B 5407   7.868   4.688   9.157  0.1202  0.1123 -0.0196
  338loPI   C4B 5408   7.880   4.882   8.676 -0.0884 -0.0395  0.1110
  339loPI    C1 5409  12.518   0.891  10.857 -0.2694 -0.1796 -0.2083
  339loPI    C2 5410  12.503   1.151  10.553 -0.5449 -0.1147 -0.1418
  339loPI    C3 5411  12.376   1.261  10.916 -0.1444 -0.1665  0.0188
  339loPI   PO4 5412  12.775   0.753  10.818  0.0468 -0.0292  0.1261
  339loPI   GL1 5413  12.910   0.683  10.417 -0.0045 -0.0203 -0.3803
  339loPI   GL2 5414  12.746   0.479  10.273 -0.2000 -0.0550  0.0623
  339loPI   C1A 5415  12.944   0.861   9.972 -0.3046 -0.0096 -0.2364
  339loPI   C2A 5416  12.936   0.936   9.455 -0.0418  0.2202 -0.0417
  339loPI   C3A 5417  12.896   0.777   9.101  0.0098 -0.3674 -0.1808
  339loPI   C4A 5418  12.841   0.877   8.688 -0.2251 -0.0490 -0.0482
  339loPI   C5A 5419  12.679   0.890   8.219  0.0480  0.1289  0.0371
  339loPI   C6A 5420  12.622   0.863   7.778  0.1222 -0.1404  0.2376
  339loPI   C1B 5421  12.785   0.419   9.824 -0.1514  0.0329 -0.0281
  339loPI   C2B 5422  12.849   0.362   9.419  0.2385 -0.0317  0.1074
  339loPI   C3B 5423  12.845   0.280   9.034 -0.1938  0.2365 -0.2959
  339loPI   C4B 5424  12.809   0.414   8.645  0.1794 -0.0261 -0.1304
  340loPI    C1 5425   2.615  12.363  10.584 -0.1221  0.0944  0.0818
  340loPI    C2 5426   2.718  12.703  10.767 -0.0852  0.0976  0.0549
  340loPI    C3 5427   2.788  12.351  10.944  0.1127  0.0929 -0.0296
  340loPI   PO4 5428   2.384  12.420  10.547 -0.1304  0.1435 -0.0481
  340loPI   GL1 5429   2.131  12.550  10.159  0.1531 -0.3257 -0.0884
  340loPI   GL2 5430   2.231  12.353   9.891 -0.2020  0.1664  0.0421
  340loPI   C1A 5431   2.169  12.868   9.858  0.3015  0.1042 -0.0189
  340loPI   C2A 5432   2.425  13.193   9.609 -0.3554  0.2567 -0.3672
  340loPI   C3A 5433   2.786  13.151   9.445  0.0724 -0.3029  0.3596
  340loPI   C4A 5434   2.738  13.152   8.993  0.1029  0.3951  0.2748
  340loPI   C5A 5435   2.584  13.026   8.532  0.2859 -0.2979 -0.1243
  340loPI   C6A 5436   2.613  12.899   8.124  0.0943 -0.1232  0.0392
  340loPI   C1B 5437   2.273  12.096   9.598 -0.1231 -0.0168 -0.0918
  340loPI   C2B 5438   2.174  11.888   9.254 -0.1571  0.0793  0.5596
  340loPI   C3B 5439   2.309  11.777   8.898  0.0255 -0.0342 -0.1544
  340loPI   C4B 5440   2.368  11.603   8.480 -0.1322 -0.1879  0.1567
  341loPI    C1 5441   6.226  15.253  11.184 -0.1227  0.2940  0.0573
  341loPI    C2 5442   6.120  15.385  11.547 -0.0280  0.2382  0.1059
  341loPI    C3 5443   6.506  15.367  11.446 -0.0459  0.1079  0.0583
  341loPI   PO4 5444   6.085  15.392  11.012 -0.0506  0.2675 -0.2002
  341loPI   GL1 5445   5.953  15.301  10.639  0.1497  0.0471  0.1029
  341loPI   GL2 5446   6.186  15.136  10.435  0.2391  0.1465 -0.0842
  341loPI   C1A 5447   5.793  15.384  10.217 -0.2173  0.1365 -0.0238
  341loPI   C2A 5448   5.829  15.424   9.765  0.2015  0.0705 -0.0474
  341loPI   C3A 5449   6.131  15.371   9.514 -0.1909  0.0901 -0.1534
  341loPI   C4A 5450   6.448  15.406   9.278  0.1659 -0.3075  0.0157
  341loPI   C5A 5451   6.441  15.350   8.885 -0.1884  0.1086  0.0044
  341loPI   C6A 5452   6.440  15.604   8.487  0.2017 -0.0714 -0.2102
  341loPI   C1B 5453   6.302  15.253   9.960  0.2494  0.1258 -0.2091
  341loPI   C2B 5454   6.402  14.971   9.522  0.2181 -0.2167  0.3252
  341loPI   C3B 5455   6.423  14.924   9.095  0.2208  0.2593 -0.0270
  341loPI   C4B 5456   6.273  14.913   8.740  0.0494 -0.1074 -0.3586
  342loPI    C1 5457  17.396   6.580  10.327  0.0636 -0.0084 -0.0584
  342loPI    C2 5458  17.202   6.874  10.137  0.0617 -0.0112 -0.0608
  342loPI    C3 5459  17.010   6.649  10.407  0.0621 -0.0129 -0.0620
  342loPI   PO4 5460  17.473   6.451  10.179  0.3087 -0.0485 -0.0974
  342loPI   GL1 5461  17.459   6.257   9.826  0.1219 -0.0142  0.1165
  342loPI   GL2 5462  17.398   6.541   9.706 -0.0896  0.0455  0.5488
  342loPI   C1A 5463  17.440   5.989   9.437  0.0015 -0.0053 -0.0568
  342loPI   C2A 5464  17.578   5.877   9.059  0.3667  0.1166  0.0509
  342loPI   C3A 5465  17.649   5.912   8.568  0.1098  0.1242  0.0289
  342loPI   C4A 5466  17.638   5.887   8.094 -0.1295  0.2698 -0.0234
  342loPI   C5A 5467  17.608   5.785   7.685  0.0633  0.1857 -0.0170
  342loPI   C6A 5468  17.334   5.724   7.347 -0.1051  0.1279 -0.0873
  342loPI   C1B 5469  17.061   6.640   9.475 -0.1919 -0.2071 -0.1058
  342loPI   C2B 5470  16.783   6.652   9.110 -0.0903 -0.1996 -0.0237
  342loPI   C3B 5471  16.470   6.979   8.709 -0.0262  0.1821  0.0371
  342loPI   C4B 5472  16.155   7.016   8.476  0.2612  0.0935  0.0887
  343loPI    C1 5473  15.574   3.174  11.308 -0.0994 -0.0508 -0.0637
  343loPI    C2 5474  15.404   3.511  11.441  0.0415  0.0392 -0.1084
  343loPI    C3 5475  15.482   3.212  11.695 -0.0270  0.0647 -0.0572
  343loPI   PO4 5476  15.494   3.143  10.984 -0.0239  0.0495 -0.1322
  343loPI   GL1 5477  15.633   3.380  10.636 -0.1233 -0.0137 -0.0150
  343loPI   GL2 5478  15.936   3.251  10.539 -0.0081  0.3318 -0.0046
  343loPI   C1A 5479  15.560   3.356  10.183 -0.0300  0.0193  0.0123
  343loPI   C2A 5480  15.620   3.299   9.780 -0.0238 -0.2663  0.2272
  343loPI   C3A 5481  15.665   3.206   9.280 -0.0041  0.0530 -0.4609
  343loPI   C4A 5482  15.636   3.261   8.884  0.2878 -0.1201  0.1501
  343loPI   C5A 5483  15.657   3.170   8.507  0.0985 -0.0375  0.2501
  343loPI   C6A 5484  15.418   3.251   8.214 -0.1282 -0.1863 -0.0572
  343loPI   C1B 5485  15.935   3.069  10.117 -0.2600 -0.2885  0.3819
  343loPI   C2B 5486  15.832   2.852   9.694  0.0235 -0.0054 -0.1931
  343loPI   C3B 5487  15.603   2.736   9.262 -0.2134 -0.3424 -0.2494
  343loPI   C4B 5488  15.579   2.676   8.876  0.1249  0.0972  0.2440
  344loPI    C1 5489  10.383   0.248  11.121 -0.0417  0.0482  0.0480
  344loPI    C2 5490  10.565   0.253  11.477 -0.2507  0.0753  0.1559
  344loPI    C3 5491  10.342   0.564  11.362  0.1342  0.2409 -0.1690
  344loPI   PO4 5492  10.571   0.208  10.951 -0.0690 -0.0318  0.0283
  344loPI   GL1 5493  10.675   0.058  10.574  0.0105  0.0585  0.2542
  344loPI   GL2 5494  10.951   0.116  10.535  0.1779 -0.4557 -0.2877
  344loPI   C1A 5495  10.668  -0.129  10.195 -0.0329  0.0906  0.1869
  344loPI   C2A 5496  10.832  -0.184   9.769 -0.0552  0.1575  0.0657
  344loPI   C3A 5497  10.822  -0.089   9.226 -0.2228 -0.1019  0.1909
  344loPI   C4A 5498  10.732  -0.155   8.768 -0.2520 -0.1126  0.0360
  344loPI   C5A 5499  10.883  -0.002   8.372 -0.2088  0.2939 -0.0514
  344loPI   C6A 5500  10.643   0.149   8.035  0.0797  0.1952  0.2683
  344loPI   C1B 5501  10.876   0.356  10.075  0.0817  0.3810  0.4162
  344loPI   C2B 5502  11.019   0.527   9.629 -0.0002 -0.1331  0.1394
  344loPI   C3B 5503  10.981   0.426   9.210  0.1197  0.2958  0.0598
  344loPI   C4B 5504  10.916   0.297   8.768 -0.1200 -0.1871  0.0132
  345loPI    C1 5505  17.353   2.038  11.158 -0.2696  0.2938 -0.0239
  345loPI    C2 5506  17.038   1.812  11.060 -0.1195  0.0833 -0.0301
  345loPI    C3 5507  17.030   2.034  11.393 -0.2877  0.1094 -0.0505
  345loPI   PO4 5508  17.615   1.996  10.962 -0.0206 -0.1635  0.0205
  345loPI   GL1 5509  17.739   2.105  10.601  0.1780  0.0106 -0.1765
  345loPI   GL2 5510  18.012   2.058  10.561 -0.1349  0.0676  0.0163
  345loPI   C1A 5511  17.575   2.096  10.209 -0.0448  0.0358 -0.0980
  345loPI   C2A 5512  17.662   2.156   9.834  0.2831  0.1451  0.0392
  345loPI   C3A 5513  17.637   2.231   9.449 -0.1822 -0.2401 -0.3076
  345loPI   C4A 5514  17.724   2.076   9.055 -0.0121 -0.0935 -0.0039
  345loPI   C5A 5515  17.906   2.064   8.663  0.0876 -0.0609 -0.0106
  345loPI   C6A 5516  18.196   2.045   8.261 -0.0043  0.0537 -0.2306
  345loPI   C1B 5517  18.065   2.062  10.091  0.3111 -0.1355  0.0975
  345loPI   C2B 5518  18.105   2.076   9.620  0.0479 -0.0780 -0.1076
  345loPI   C3B 5519  18.235   2.024   9.141 -0.1954  0.0564 -0.0246
  345loPI   C4B 5520  18.396   1.985   8.811  0.0206 -0.1613  0.3036
  346loPI    C1 5521   8.136   8.890  10.851 -0.0622 -0.0518  0.0484
  346loPI    C2 5522   8.390   8.760  10.571 -0.0611 -0.0798  0.0622
  346loPI    C3 5523   8.485   8.725  10.958 -0.1934 -0.3178  0.0750
  346loPI   PO4 5524   8.063   9.103  10.747 -0.0362  0.1540  0.0612
  346loPI   GL1 5525   8.035   9.226  10.420  0.1869 -0.0970  0.2669
  346loPI   GL2 5526   8.215   8.994  10.159  0.0371 -0.0927  0.1000
  346loPI   C1A 5527   7.918   9.405   9.940  0.2975  0.0059  0.0247
  346loPI   C2A 5528   7.962   9.423   9.491  0.0988  0.0120 -0.0836
  346loPI   C3A 5529   7.940   9.526   9.088 -0.1635  0.1647  0.2890
  346loPI   C4A 5530   7.877   9.607   8.600  0.0172 -0.1383 -0.3525
  346loPI   C5A 5531   7.887   9.680   8.166 -0.1578  0.0716 -0.0123
  346loPI   C6A 5532   7.917   9.516   7.857  0.0208 -0.2992  0.0555
  346loPI   C1B 5533   8.092   8.941   9.726  0.0156 -0.0380  0.0235
  346loPI   C2B 5534   8.247   9.021   9.309 -0.2596 -0.2354 -0.5451
  346loPI   C3B 5535   8.340   9.273   8.935 -0.0512  0.4776 -0.0447
  346loPI   C4B 5536   8.368   9.345   8.555 -0.0190 -0.3040  0.1448
  347loPI    C1 5537   5.851  11.992  10.564 -0.1269 -0.4366 -0.0764
  347loPI    C2 5538   5.497  12.098  10.411 -0.0436 -0.0447 -0.0085
  347loPI    C3 5539   5.585  12.187  10.791  0.1264 -0.1452 -0.0232
  347loPI   PO4 5540   6.044  12.151  10.452  0.0689  0.0777 -0.0183
  347loPI   GL1 5541   5.901  12.211  10.082 -0.0636 -0.0065 -0.0962
  347loPI   GL2 5542   5.797  12.530  10.218 -0.1427 -0.1455  0.0832
  347loPI   C1A 5543   5.530  12.247   9.826  0.0945  0.0893 -0.0897
  347loPI   C2A 5544   5.097  12.252   9.622 -0.0385  0.1080 -0.4832
  347loPI   C3A 5545   5.144  12.295   9.230 -0.1794  0.1521 -0.0703
  347loPI   C4A 5546   4.994  12.216   8.771 -0.0538  0.0814  0.0762
  347loPI   C5A 5547   5.318  12.163   8.443 -0.0718  0.1540 -0.1178
  347loPI   C6A 5548   5.357  12.059   8.031 -0.1269 -0.1383  0.2886
  347loPI   C1B 5549   5.445  12.694   9.936 -0.1372 -0.1894 -0.2150
  347loPI   C2B 5550   5.348  12.756   9.513  0.0071  0.1465  0.0662
  347loPI   C3B 5551   5.367  12.694   9.064  0.2461  0.0491 -0.2504
  347loPI   C4B 5552   5.530  12.553   8.725  0.0985  0.1264  0.1604
  348loPI    C1 5553   7.742   7.021  10.661 -0.2331  0.1591  0.0861
  348loPI    C2 5554   7.673   6.850  11.016  0.0496 -0.1095  0.0162
  348loPI    C3 5555   7.835   7.216  10.997 -0.1079 -0.0312  0.1635
  348loPI   PO4 5556   7.582   6.974  10.502  0.1153  0.1330  0.0679
  348loPI   GL1 5557   7.490   7.145  10.072 -0.0130  0.0230 -0.1098
  348loPI   GL2 5558   7.515   7.400  10.241 -0.0956  0.3004 -0.1909
  348loPI   C1A 5559   7.534   7.335   9.677 -0.2412  0.0833 -0.2551
  348loPI   C2A 5560   7.623   7.301   9.234 -0.1471 -0.0419 -0.4236
  348loPI   C3A 5561   7.727   7.405   8.803  0.0630  0.2655  0.0004
  348loPI   C4A 5562   7.736   7.493   8.461  0.0901 -0.0157  0.0443
  348loPI   C5A 5563   7.840   7.305   8.018 -0.0344 -0.0994 -0.2459
  348loPI   C6A 5564   7.936   6.873   7.959 -0.0475  0.0066 -0.0885
  348loPI   C1B 5565   7.854   7.648   9.936  0.2284  0.0866  0.1226
  348loPI   C2B 5566   7.849   7.682   9.493 -0.0570  0.1139  0.0253
  348loPI   C3B 5567   8.027   7.745   9.031 -0.1003  0.2002 -0.2037
  348loPI   C4B 5568   7.960   7.895   8.699 -0.1440  0.2471  0.1089
  349loPI    C1 5569  13.538   1.269  11.083  0.1481 -0.3387  0.1582
  349loPI    C2 5570  13.268   1.557  11.144  0.2400 -0.1879 -0.1284
  349loPI    C3 5571  13.506   1.440  11.443  0.0492 -0.1266  0.0500
  349loPI   PO4 5572  13.493   1.148  10.808  0.1006  0.1110  0.0123
  349loPI   GL1 5573  13.752   1.204  10.479 -0.0599 -0.0613  0.2141
  349loPI   GL2 5574  13.575   1.509  10.338  0.0963 -0.0061 -0.1472
  349loPI   C1A 5575  13.951   1.309  10.032  0.3159  0.0293 -0.1204
  349loPI   C2A 5576  13.927   1.292   9.660 -0.2273  0.3458 -0.1651
  349loPI   C3A 5577  13.977   1.138   9.327  0.1350 -0.0464 -0.1194
  349loPI   C4A 5578  13.917   1.077   8.901 -0.0036 -0.1633  0.3921
  349loPI   C5A 5579  13.750   0.962   8.426  0.1633  0.1804 -0.2726
  349loPI   C6A 5580  13.484   1.248   8.117  0.3174 -0.3070 -0.1517
  349loPI   C1B 5581  13.519   1.575   9.902 -0.1146  0.0818 -0.0796
  349loPI   C2B 5582  13.628   1.628   9.435  0.0315  0.0065  0.1873
  349loPI   C3B 5583  13.582   1.414   9.001 -0.0095 -0.0537  0.0701
  349loPI   C4B 5584  13.674   1.527   8.579  0.0917 -0.0850  0.0559
  350loPI    C1 5585   5.115  17.679  11.261  0.0061 -0.1726  0.2969
  350loPI    C2 5586   5.214  17.995  11.486  0.0263  0.0248  0.0181
  350loPI    C3 5587   4.848  17.969  11.327  0.0968  0.0214 -0.1457
  350loPI   PO4 5588   5.235  17.622  11.051  0.1733  0.0500  0.0743
  350loPI   GL1 5589   5.156  17.653  10.666  0.1712 -0.1977  0.0880
  350loPI   GL2 5590   4.938  17.496  10.538 -0.0628 -0.0131  0.0949
  350loPI   C1A 5591   5.404  17.531  10.317  0.5607  0.2274  0.1132
  350loPI   C2A 5592   5.481  17.484   9.868 -0.1569  0.0778 -0.1784
  350loPI   C3A 5593   5.494  17.420   9.487  0.1290 -0.1052  0.1744
  350loPI   C4A 5594   5.571  17.382   9.088  0.3598  0.0181  0.3805
  350loPI   C5A 5595   5.468  17.363   8.678  0.4430  0.3439  0.0264
  350loPI   C6A 5596   5.681  17.567   8.397  0.2790  0.0787  0.1453
  350loPI   C1B 5597   4.963  17.419  10.131 -0.0041 -0.1100  0.1312
  350loPI   C2B 5598   5.034  17.347   9.699  0.0123  0.0270 -0.2055
  350loPI   C3B 5599   5.064  17.222   9.269 -0.2428  0.3126  0.0774
  350loPI   C4B 5600   5.020  17.028   8.879 -0.1514  0.1468 -0.2743
  351loPI    C1 5601   9.988   8.385  11.028 -0.0474  0.1894  0.1708
  351loPI    C2 5602   9.911   8.750  11.170  0.0315  0.2036  0.1781
  351loPI    C3 5603  10.012   8.455  11.421 -0.1964  0.1335  0.1906
  351loPI   PO4 5604  10.157   8.428  10.854 -0.0153 -0.0910 -0.0602
  351loPI   GL1 5605  10.568   8.460  10.632  0.2586 -0.1235  0.1593
  351loPI   GL2 5606  10.868   8.662  10.542 -0.0539 -0.1442  0.0519
  351loPI   C1A 5607  10.495   8.506  10.085  0.2751  0.2456  0.0623
  351loPI   C2A 5608  10.478   8.586   9.647 -0.1443 -0.2229 -0.4839
  351loPI   C3A 5609  10.546   8.800   9.221  0.3374  0.1356 -0.2260
  351loPI   C4A 5610  10.517   8.757   8.824  0.2024 -0.0874  0.1566
  351loPI   C5A 5611  10.638   9.040   8.470  0.1653 -0.1177 -0.2359
  351loPI   C6A 5612  11.068   9.151   8.352 -0.2278  0.0469  0.0532
  351loPI   C1B 5613  11.047   8.553  10.148 -0.0910 -0.2597 -0.0861
  351loPI   C2B 5614  10.860   8.327   9.825  0.0495  0.0709  0.2122
  351loPI   C3B 5615  10.807   8.311   9.373  0.1965  0.0196  0.1388
  351loPI   C4B 5616  10.763   8.348   9.015  0.0028  0.2832  0.0911
  352loPI    C1 5617   2.235  14.233  11.103  0.0950 -0.0625  0.0491
  352loPI    C2 5618   1.959  13.999  11.273  0.0024  0.0669  0.0783
  352loPI    C3 5619   2.264  13.835  11.073 -0.0720 -0.0779  0.0823
  352loPI   PO4 5620   2.049  14.390  10.950 -0.1440 -0.2597  0.1041
  352loPI   GL1 5621   1.882  14.412  10.560 -0.1265 -0.1376  0.0431
  352loPI   GL2 5622   2.025  14.722  10.532  0.1429 -0.2384 -0.1282
  352loPI   C1A 5623   1.938  14.254  10.108  0.0297  0.0559  0.0449
  352loPI   C2A 5624   1.885  14.355   9.701  0.1086  0.0282  0.1829
  352loPI   C3A 5625   1.924  14.319   9.278  0.1560 -0.1673  0.0818
  352loPI   C4A 5626   1.951  14.300   8.792  0.0853  0.0296  0.1036
  352loPI   C5A 5627   2.192  14.446   8.526 -0.0833 -0.1636 -0.0681
  352loPI   C6A 5628   2.575  14.443   8.350 -0.1764 -0.0671  0.0218
  352loPI   C1B 5629   2.019  14.891  10.133  0.0526 -0.2091  0.1962
  352loPI   C2B 5630   2.132  15.141   9.702  0.0423  0.0218 -0.1782
  352loPI   C3B 5631   2.006  15.268   9.375  0.1879 -0.0812 -0.1175
  352loPI   C4B 5632   2.062  15.171   8.917  0.0282 -0.1831 -0.1355
  353loPI    C1 5633   8.540  16.108  10.820  0.1063 -0.2365  0.1823
  353loPI    C2 5634   8.415  15.973  10.465  0.0408 -0.1331  0.1661
  353loPI    C3 5635   8.205  15.890  10.795 -0.1085  0.0928  0.1307
  353loPI   PO4 5636   8.720  16.297  10.762  0.0950  0.3859  0.0802
  353loPI   GL1 5637   8.673  16.457  10.353  0.0005 -0.0850  0.0450
  353loPI   GL2 5638   8.848  16.698  10.194  0.2286  0.1909  0.0798
  353loPI   C1A 5639   8.768  16.357   9.827  0.1632  0.0297  0.2445
  353loPI   C2A 5640   8.697  16.392   9.321 -0.0450  0.3469  0.0265
  353loPI   C3A 5641   8.638  16.473   8.860  0.0268 -0.1833 -0.0007
  353loPI   C4A 5642   8.593  16.425   8.436 -0.0514 -0.0923 -0.1994
  353loPI   C5A 5643   8.541  16.373   8.046 -0.2113  0.1136 -0.1091
  353loPI   C6A 5644   8.465  16.698   7.683 -0.2499  0.0289  0.0738
  353loPI   C1B 5645   8.842  16.898   9.710  0.0661  0.1315  0.1253
  353loPI   C2B 5646   8.798  16.913   9.367  0.1086 -0.0330 -0.3095
  353loPI   C3B 5647   8.739  16.958   8.921  0.0571 -0.0120  0.0356
  353loPI   C4B 5648   8.737  16.899   8.563 -0.1535  0.1002 -0.0674
  354loPI    C1 5649  14.612  10.736  10.794  0.1306 -0.0468  0.0720
  354loPI    C2 5650  14.547  10.817  11.180 -0.0522 -0.1441  0.0630
  354loPI    C3 5651  14.263  10.893  10.909  0.0518 -0.1338 -0.0444
  354loPI   PO4 5652  14.665  10.443  10.702  0.2342  0.0617 -0.1219
  354loPI   GL1 5653  14.460  10.259  10.437  0.0628  0.0779  0.1858
  354loPI   GL2 5654  14.549   9.949  10.405  0.1693  0.1542  0.3488
  354loPI   C1A 5655  14.497  10.335   9.995  0.0371  0.2204 -0.0898
  354loPI   C2A 5656  14.483  10.237   9.592  0.1989  0.1467  0.1262
  354loPI   C3A 5657  14.611  10.312   9.258  0.1759 -0.1918  0.2511
  354loPI   C4A 5658  14.412  10.232   8.826  0.1635  0.1370  0.0388
  354loPI   C5A 5659  14.400  10.235   8.412 -0.0261  0.0216 -0.0381
  354loPI   C6A 5660  14.325   9.842   8.042  0.2391 -0.0952  0.0797
  354loPI   C1B 5661  14.672   9.884   9.924 -0.3668  0.5162  0.0318
  354loPI   C2B 5662  14.717   9.725   9.482  0.0729  0.1795  0.0825
  354loPI   C3B 5663  14.718   9.857   8.956 -0.0243 -0.2465 -0.3092
  354loPI   C4B 5664  14.927  10.100   8.670  0.0812  0.2412 -0.0809
  355loPI    C1 5665  16.443   0.444  11.121 -0.1060  0.0059  0.0725
  355loPI    C2 5666  16.548   0.804  11.261  0.1315  0.0365 -0.1773
  355loPI    C3 5667  16.719   0.474  11.409 -0.0970  0.0218  0.0623
  355loPI   PO4 5668  16.421   0.569  10.822  0.0367  0.1002  0.0561
  355loPI   GL1 5669  16.679   0.695  10.467 -0.0673  0.0569 -0.0667
  355loPI   GL2 5670  16.788   1.076  10.484 -0.1770 -0.0302 -0.1482
  355loPI   C1A 5671  16.785   0.856  10.048 -0.5340  0.2323  0.0497
  355loPI   C2A 5672  16.834   0.880   9.622  0.1932  0.1605  0.1450
  355loPI   C3A 5673  16.883   0.880   9.227 -0.1445  0.0911 -0.0543
  355loPI   C4A 5674  16.860   0.917   8.806  0.0846 -0.2008  0.1645
  355loPI   C5A 5675  16.615   0.965   8.460 -0.0073 -0.1892 -0.1512
  355loPI   C6A 5676  16.658   1.077   8.039 -0.0241 -0.0631 -0.2139
  355loPI   C1B 5677  16.999   1.308  10.163  0.0536  0.1152 -0.1766
  355loPI   C2B 5678  17.022   1.405   9.747  0.0014 -0.1164 -0.1176
  355loPI   C3B 5679  17.159   1.282   9.289  0.2441 -0.1687 -0.3183
  355loPI   C4B 5680  17.284   1.300   8.856  0.1780 -0.0419 -0.1307
  356loPI    C1 5681  14.086   1.174  10.999 -0.1427  0.0842  0.1000
  356loPI    C2 5682  13.965   1.103  11.374  0.1484  0.0161  0.1839
  356loPI    C3 5683  13.988   1.479  11.239 -0.2450  0.0264  0.1323
  356loPI   PO4 5684  14.032   0.996  10.844 -0.2521  0.0040 -0.0432
  356loPI   GL1 5685  14.235   0.734  10.560  0.2155  0.4529 -0.3452
  356loPI   GL2 5686  14.295   0.437  10.633  0.0566 -0.0716  0.0418
  356loPI   C1A 5687  14.272   0.927  10.135  0.0451 -0.0409  0.1833
  356loPI   C2A 5688  14.330   0.968   9.700 -0.2684 -0.1684  0.0180
  356loPI   C3A 5689  14.365   0.850   9.314  0.0447 -0.0627  0.1269
  356loPI   C4A 5690  14.272   0.730   8.903  0.2103  0.1020 -0.0335
  356loPI   C5A 5691  14.182   0.672   8.460  0.1916 -0.0763  0.1881
  356loPI   C6A 5692  14.211   0.564   8.004 -0.0792  0.3425  0.4192
  356loPI   C1B 5693  14.276   0.396  10.186 -0.0255  0.0784  0.1597
  356loPI   C2B 5694  14.310   0.372   9.714  0.0893  0.0465  0.4082
  356loPI   C3B 5695  14.222   0.359   9.372 -0.1505 -0.3182 -0.0074
  356loPI   C4B 5696  14.219   0.174   8.986  0.1450  0.0138  0.0164
  357loPI    C1 5697   3.925   6.819  11.001 -0.2513 -0.0425  0.0883
  357loPI    C2 5698   3.761   7.146  11.162 -0.0732 -0.0308  0.2495
  357loPI    C3 5699   3.578   6.792  11.197 -0.1830  0.0225  0.2190
  357loPI   PO4 5700   3.925   6.857  10.762  0.1912 -0.2247 -0.0478
  357loPI   GL1 5701   4.087   7.074  10.388 -0.0358 -0.0922  0.0339
  357loPI   GL2 5702   4.204   6.706  10.316  0.1252 -0.0853  0.2519
  357loPI   C1A 5703   3.676   6.911  10.080 -0.2158 -0.0505  0.0854
  357loPI   C2A 5704   3.846   6.903   9.650  0.0106  0.0259  0.1152
  357loPI   C3A 5705   3.952   6.951   9.290 -0.0098  0.2262  0.0260
  357loPI   C4A 5706   3.876   6.880   8.822 -0.0228  0.0983  0.3470
  357loPI   C5A 5707   3.937   7.027   8.380  0.2268 -0.0258  0.2403
  357loPI   C6A 5708   3.972   6.770   8.034 -0.0486  0.0893 -0.0560
  357loPI   C1B 5709   4.236   6.623   9.881 -0.0071 -0.0251  0.2715
  357loPI   C2B 5710   4.346   6.617   9.538  0.2247  0.2695  0.1082
  357loPI   C3B 5711   4.261   6.652   9.083  0.0741 -0.1116 -0.1525
  357loPI   C4B 5712   4.311   6.560   8.697 -0.1318 -0.0222 -0.0190
  358loPI    C1 5713  14.733  15.207  11.307  0.0784 -0.0255  0.0167
  358loPI    C2 5714  14.598  15.581  11.341 -0.0494 -0.0705  0.0094
  358loPI    C3 5715  14.991  15.509  11.357 -0.0163  0.0774 -0.1109
  358loPI   PO4 5716  14.571  15.133  11.174  0.0696  0.3030  0.2806
  358loPI   GL1 5717  14.469  15.088  10.742  0.0637 -0.2749 -0.1472
  358loPI   GL2 5718  14.406  15.332  10.561 -0.1379 -0.1243  0.2561
  358loPI   C1A 5719  14.558  14.884  10.366  0.0473  0.2170  0.1448
  358loPI   C2A 5720  14.565  14.775   9.975 -0.1184  0.2645 -0.4172
  358loPI   C3A 5721  14.588  14.671   9.584  0.0917 -0.1398 -0.1827
  358loPI   C4A 5722  14.641  14.684   9.094 -0.3483  0.0278  0.0047
  358loPI   C5A 5723  14.691  14.655   8.608 -0.2074 -0.0077  0.0255
  358loPI   C6A 5724  14.917  14.605   8.200 -0.0395 -0.2532 -0.1121
  358loPI   C1B 5725  14.305  15.347  10.095 -0.3351 -0.2110  0.0659
  358loPI   C2B 5726  14.390  15.153   9.629 -0.3182 -0.0196 -0.0032
  358loPI   C3B 5727  14.407  15.046   9.288 -0.0337  0.0448 -0.1619
  358loPI   C4B 5728  14.486  15.050   8.822  0.0717  0.2144 -0.0494
  359loPI    C1 5729   2.993   8.308  10.840  0.1372  0.0358  0.0333
  359loPI    C2 5730   2.759   8.598  10.694 -0.0736 -0.1187  0.0607
  359loPI    C3 5731   2.790   8.545  11.090  0.1769  0.0375  0.0642
  359loPI   PO4 5732   2.959   8.144  10.697  0.1473  0.0793 -0.3044
  359loPI   GL1 5733   2.985   7.941  10.309  0.0053 -0.0074 -0.3016
  359loPI   GL2 5734   2.732   7.941  10.019 -0.1105  0.0192 -0.0505
  359loPI   C1A 5735   3.195   7.819   9.938  0.0845 -0.1365  0.0124
  359loPI   C2A 5736   3.203   7.657   9.499 -0.1852 -0.3142  0.1932
  359loPI   C3A 5737   3.299   7.654   8.976 -0.0017  0.1627  0.0596
  359loPI   C4A 5738   3.204   7.392   8.711  0.0401  0.2441  0.0488
  359loPI   C5A 5739   3.433   7.080   8.551  0.1826  0.0154  0.5253
  359loPI   C6A 5740   3.540   6.710   8.243 -0.0336 -0.3153  0.3243
  359loPI   C1B 5741   2.763   7.830   9.643 -0.1510  0.3736  0.0133
  359loPI   C2B 5742   2.792   7.862   9.183 -0.0431 -0.0468 -0.2378
  359loPI   C3B 5743   2.900   7.847   8.713 -0.0298  0.0181  0.2566
  359loPI   C4B 5744   2.636   7.857   8.304 -0.0084  0.1719 -0.0158
  360loPI    C1 5745   2.922   0.575  11.057  0.1108 -0.1106  0.2363
  360loPI    C2 5746   2.850   0.827  11.360  0.0614  0.0395  0.1011
  360loPI    C3 5747   2.720   0.449  11.379  0.0734  0.0433  0.2741
  360loPI   PO4 5748   2.850   0.657  10.875  0.1309 -0.0938 -0.0979
  360loPI   GL1 5749   2.910   0.580  10.414  0.1510  0.0093  0.1722
  360loPI   GL2 5750   2.673   0.837  10.379  0.0998 -0.1057 -0.0321
  360loPI   C1A 5751   3.098   0.657  10.068  0.0161 -0.2085  0.3013
  360loPI   C2A 5752   3.157   0.593   9.605  0.0187 -0.2288  0.3544
  360loPI   C3A 5753   3.262   0.625   9.212  0.0376  0.1131 -0.0713
  360loPI   C4A 5754   3.097   0.488   8.895 -0.1885  0.1183 -0.0038
  360loPI   C5A 5755   3.287   0.496   8.450  0.4009  0.2184  0.3022
  360loPI   C6A 5756   3.438   0.688   8.066 -0.0510 -0.0994 -0.2516
  360loPI   C1B 5757   2.536   0.729  10.019 -0.0747 -0.0235  0.1989
  360loPI   C2B 5758   2.613   0.677   9.551  0.2726  0.1202 -0.1527
  360loPI   C3B 5759   2.645   0.680   9.157 -0.0566  0.0902 -0.1983
  360loPI   C4B 5760   2.637   0.573   8.690 -0.0078  0.0089  0.1645
  361loPI    C1 5761  16.657   5.971  10.832  0.0719  0.0289 -0.0852
  361loPI    C2 5762  16.389   6.261  10.770  0.2007  0.1245 -0.2040
  361loPI    C3 5763  16.765   6.355  10.871  0.1576 -0.0125  0.0944
  361loPI   PO4 5764  16.482   5.762  10.574 -0.1949  0.1098  0.0647
  361loPI   GL1 5765  16.460   5.680  10.147 -0.1763 -0.1926  0.1469
  361loPI   GL2 5766  16.434   5.465   9.988 -0.0973 -0.0023  0.0094
  361loPI   C1A 5767  16.118   5.769   9.824  0.0096  0.2841  0.1940
  361loPI   C2A 5768  16.087   5.866   9.454  0.0361 -0.1350 -0.1611
  361loPI   C3A 5769  16.178   5.890   9.117 -0.2204 -0.2930 -0.3094
  361loPI   C4A 5770  16.315   5.690   8.757  0.1107  0.1753  0.0315
  361loPI   C5A 5771  16.645   5.656   8.375  0.2821  0.1658 -0.0510
  361loPI   C6A 5772  16.709   5.372   7.996  0.2188  0.0210  0.1223
  361loPI   C1B 5773  16.681   5.664   9.671  0.2070 -0.1696 -0.0315
  361loPI   C2B 5774  16.622   5.753   9.278  0.0731  0.1083 -0.0174
  361loPI   C3B 5775  16.735   5.934   8.821 -0.0651 -0.4105 -0.3036
  361loPI   C4B 5776  16.815   6.095   8.501  0.2837  0.3095  0.2149
  362loPI    C1 5777  10.819  10.659  11.013  0.0950  0.2460  0.0428
  362loPI    C2 5778  10.630  10.495  11.326  0.2008  0.1934  0.0796
  362loPI    C3 5779  10.980  10.345  11.202 -0.0259 -0.0328 -0.3069
  362loPI   PO4 5780  10.757  10.636  10.778  0.0554  0.1110 -0.1760
  362loPI   GL1 5781  10.666  10.723  10.373  0.0853  0.3734 -0.1044
  362loPI   GL2 5782  10.854  10.992  10.182 -0.0247 -0.0989 -0.3335
  362loPI   C1A 5783  10.554  10.500  10.033 -0.3186 -0.0808  0.2971
  362loPI   C2A 5784  10.503  10.569   9.552 -0.0978  0.0353 -0.0587
  362loPI   C3A 5785  10.612  10.602   9.192  0.0862  0.0981  0.0345
  362loPI   C4A 5786  10.504  10.664   8.683 -0.2486  0.2294  0.0830
  362loPI   C5A 5787  10.190  10.708   8.325 -0.1455 -0.2024  0.0142
  362loPI   C6A 5788  10.244  11.031   8.104 -0.1812  0.2535  0.1908
  362loPI   C1B 5789  10.821  10.984   9.767  0.1140  0.0303  0.1094
  362loPI   C2B 5790  10.791  11.061   9.350  0.4111  0.1431 -0.1572
  362loPI   C3B 5791  10.912  11.022   8.882  0.1630 -0.2004 -0.2612
  362loPI   C4B 5792  10.918  10.843   8.566 -0.0624 -0.1524 -0.0978
  363loPI    C1 5793   5.784   2.248  10.855 -0.2884  0.1352 -0.1237
  363loPI    C2 5794   5.595   2.469  11.130 -0.0623  0.0883  0.0725
  363loPI    C3 5795   5.750   2.114  11.230 -0.1333 -0.0104 -0.1605
  363loPI   PO4 5796   5.607   2.372  10.635 -0.0159  0.0822  0.0229
  363loPI   GL1 5797   5.759   2.346  10.208 -0.3908  0.0430 -0.1710
  363loPI   GL2 5798   5.886   2.574  10.257  0.0335 -0.2547 -0.0323
  363loPI   C1A 5799   5.835   2.224   9.794 -0.0565  0.3039  0.0458
  363loPI   C2A 5800   5.827   2.091   9.418 -0.1049 -0.3978  0.0967
  363loPI   C3A 5801   5.720   2.418   9.164  0.0726 -0.1460 -0.0212
  363loPI   C4A 5802   5.504   2.456   8.714  0.0501 -0.0629 -0.1932
  363loPI   C5A 5803   5.085   2.429   8.550  0.2451  0.0920  0.0117
  363loPI   C6A 5804   4.595   2.375   8.263  0.3097 -0.0757  0.2061
  363loPI   C1B 5805   5.928   2.825   9.884 -0.4914  0.5167 -0.0842
  363loPI   C2B 5806   5.884   2.896   9.450 -0.0807 -0.0373 -0.0475
  363loPI   C3B 5807   5.904   2.868   9.061 -0.0960  0.0583 -0.1073
  363loPI   C4B 5808   5.896   2.900   8.595 -0.2214  0.1046  0.4967
  364loPI    C1 5809  16.229  14.690  10.923 -0.0657 -0.1360 -0.2015
  364loPI    C2 5810  16.551  14.519  10.756  0.1384  0.0144  0.0315
  364loPI    C3 5811  16.467  14.454  11.142 -0.1122 -0.0226 -0.0273
  364loPI   PO4 5812  16.233  14.947  10.779 -0.2179 -0.1108 -0.0184
  364loPI   GL1 5813  16.328  14.980  10.402 -0.0307  0.0277 -0.1335
  364loPI   GL2 5814  16.246  14.654  10.306  0.1528  0.2242 -0.1319
  364loPI   C1A 5815  16.631  15.083  10.103  0.1937 -0.2215 -0.1725
  364loPI   C2A 5816  16.747  15.380   9.729  0.3013 -0.3045  0.0834
  364loPI   C3A 5817  16.916  15.598   9.366  0.3798  0.0043  0.1193
  364loPI   C4A 5818  17.089  15.712   8.912 -0.1221  0.0552 -0.0202
  364loPI   C5A 5819  17.189  15.771   8.492  0.0909  0.3736  0.0216
  364loPI   C6A 5820  17.470  15.952   8.256 -0.0533 -0.1524  0.0306
  364loPI   C1B 5821  16.211  14.684   9.919  0.2655 -0.1287 -0.1473
  364loPI   C2B 5822  16.348  14.732   9.574 -0.1459  0.0345  0.1150
  364loPI   C3B 5823  16.405  14.770   9.075  0.1227 -0.3101 -0.0765
  364loPI   C4B 5824  16.451  14.711   8.655 -0.2081 -0.0923 -0.2835
  365loPI    C1 5825   6.493   8.922  10.931 -0.2375  0.0463 -0.1181
  365loPI    C2 5826   6.105   8.824  10.932 -0.1542 -0.2942 -0.1007
  365loPI    C3 5827   6.341   8.708  11.234 -0.0130 -0.1931 -0.1716
  365loPI   PO4 5828   6.624   8.942  10.621 -0.1969  0.1361  0.2284
  365loPI   GL1 5829   6.538   8.986  10.133 -0.0880 -0.0789  0.1605
  365loPI   GL2 5830   6.473   9.054   9.745 -0.0049  0.1766 -0.2184
  365loPI   C1A 5831   6.255   8.617   9.845 -0.1165  0.1906  0.3150
  365loPI   C2A 5832   6.060   8.519   9.487  0.1389 -0.0522 -0.1914
  365loPI   C3A 5833   6.123   8.547   9.071 -0.0379  0.5030 -0.1810
  365loPI   C4A 5834   6.089   8.393   8.585 -0.0408 -0.0160  0.4093
  365loPI   C5A 5835   5.646   8.401   8.496 -0.1768 -0.4501 -0.0403
  365loPI   C6A 5836   5.306   8.672   8.407 -0.0270 -0.2459  0.1793
  365loPI   C1B 5837   6.632   9.043   9.358  0.0283 -0.3015 -0.2267
  365loPI   C2B 5838   7.017   8.938   9.099 -0.3368 -0.1766 -0.0073
  365loPI   C3B 5839   7.325   9.067   8.830 -0.1494  0.2033  0.0712
  365loPI   C4B 5840   7.499   8.823   8.449  0.0138 -0.5586  0.0396
  366loPI    C1 5841  16.401  16.399  11.168  0.0858  0.2655 -0.4169
  366loPI    C2 5842  16.205  16.739  11.244  0.0207  0.1114  0.1505
  366loPI    C3 5843  16.573  16.684  11.390  0.0182 -0.0737  0.0899
  366loPI   PO4 5844  16.421  16.377  10.840 -0.0651 -0.1896  0.0892
  366loPI   GL1 5845  16.108  16.349  10.458  0.1619  0.4488 -0.1476
  366loPI   GL2 5846  15.998  16.703  10.458  0.1920 -0.0859  0.1509
  366loPI   C1A 5847  16.222  16.320   9.993 -0.0791 -0.2103  0.4233
  366loPI   C2A 5848  16.377  16.273   9.611  0.0576  0.1602 -0.0899
  366loPI   C3A 5849  16.393  16.243   9.169 -0.0546 -0.2045  0.2785
  366loPI   C4A 5850  16.499  16.355   8.745  0.0363 -0.1096 -0.1406
  366loPI   C5A 5851  16.388  16.533   8.377 -0.0692  0.0536  0.1505
  366loPI   C6A 5852  16.345  16.756   8.051 -0.3816  0.2263 -0.2914
  366loPI   C1B 5853  15.966  16.769   9.995  0.0701  0.3175 -0.3726
  366loPI   C2B 5854  16.042  16.686   9.617  0.1057  0.1778 -0.0829
  366loPI   C3B 5855  16.160  16.712   9.256 -0.1070 -0.1400 -0.2684
  366loPI   C4B 5856  16.250  16.815   8.811  0.0199 -0.1575  0.2658
  367loPI    C1 5857  15.808   5.697  10.520  0.0113  0.1185  0.1977
  367loPI    C2 5858  16.086   5.940  10.367 -0.0141 -0.0667 -0.1537
  367loPI    C3 5859  16.062   5.888  10.763  0.4209 -0.0126 -0.1149
  367loPI   PO4 5860  15.697   5.584  10.334 -0.3674 -0.2228  0.0400
  367loPI   GL1 5861  15.672   5.558   9.929 -0.0742  0.1526  0.1792
  367loPI   GL2 5862  15.349   5.601   9.990 -0.0977 -0.0617  0.0318
  367loPI   C1A 5863  15.670   5.567   9.433  0.1374 -0.1562  0.0290
  367loPI   C2A 5864  15.748   5.665   8.963  0.0840  0.0579  0.0055
  367loPI   C3A 5865  15.818   5.567   8.506  0.1315  0.0034  0.1099
  367loPI   C4A 5866  15.840   5.324   8.191  0.0035  0.3036 -0.1283
  367loPI   C5A 5867  15.533   5.146   7.999 -0.3752 -0.0267 -0.2000
  367loPI   C6A 5868  15.348   5.439   7.624  0.0552  0.0236 -0.2065
  367loPI   C1B 5869  15.168   5.839   9.701  0.0731  0.1845 -0.2073
  367loPI   C2B 5870  15.022   5.885   9.338  0.4283  0.1983 -0.2614
  367loPI   C3B 5871  14.826   5.635   9.206 -0.1099 -0.1011 -0.1384
  367loPI   C4B 5872  14.698   5.221   9.356 -0.1903 -0.1829  0.0559
  368loPI    C1 5873   5.320   2.072  11.010  0.0091  0.0356 -0.0238
  368loPI    C2 5874   5.562   1.782  10.878 -0.3679 -0.2741 -0.0527
  368loPI    C3 5875   5.359   1.734  11.219 -0.1482  0.1171  0.1404
  368loPI   PO4 5876   5.208   2.123  10.834 -0.1496  0.2265  0.2254
  368loPI   GL1 5877   5.022   2.068  10.493 -0.1943 -0.2904  0.0324
  368loPI   GL2 5878   5.201   2.244  10.290  0.0067 -0.1200  0.0117
  368loPI   C1A 5879   4.789   2.074  10.074  0.1399  0.2245 -0.1289
  368loPI   C2A 5880   4.730   2.089   9.629  0.0057  0.1812 -0.1775
  368loPI   C3A 5881   4.790   2.061   9.208  0.0119  0.0295  0.0991
  368loPI   C4A 5882   4.663   2.170   8.715  0.2799 -0.2157  0.0186
  368loPI   C5A 5883   4.488   1.937   8.375 -0.1265 -0.0909 -0.0550
  368loPI   C6A 5884   4.444   1.649   8.089  0.1630 -0.0860  0.1196
  368loPI   C1B 5885   5.391   2.139   9.959 -0.0619  0.0704  0.0238
  368loPI   C2B 5886   5.580   1.752   9.827 -0.0877  0.0601 -0.0901
  368loPI   C3B 5887   5.844   1.575   9.565  0.3467 -0.1886 -0.0821
  368loPI   C4B 5888   6.179   1.425   9.386 -0.1744 -0.0444  0.0104
  369loPI    C1 5889  12.000   1.611  10.725 -0.0513 -0.0988  0.0413
  369loPI    C2 5890  12.113   1.738  11.087  0.3393 -0.1001 -0.0756
  369loPI    C3 5891  11.907   1.397  11.050  0.0952  0.0180  0.1616
  369loPI   PO4 5892  12.227   1.608  10.562 -0.0571  0.1206 -0.1176
  369loPI   GL1 5893  12.278   1.650  10.136  0.0929  0.2174  0.0553
  369loPI   GL2 5894  12.410   2.010  10.139  0.3115 -0.0587  0.2142
  369loPI   C1A 5895  12.253   1.565   9.655 -0.0301  0.0346  0.1064
  369loPI   C2A 5896  12.140   1.633   9.210  0.0175  0.0252 -0.2330
  369loPI   C3A 5897  12.027   1.663   8.790  0.0588 -0.0930 -0.0597
  369loPI   C4A 5898  11.796   1.423   8.466  0.0646 -0.3500  0.1819
  369loPI   C5A 5899  11.745   1.106   7.978  0.0731  0.1765  0.1166
  369loPI   C6A 5900  11.638   0.989   7.561  0.1248  0.2076  0.1315
  369loPI   C1B 5901  12.387   2.163   9.737 -0.3580  0.0360  0.1780
  369loPI   C2B 5902  12.353   2.076   9.353  0.2298 -0.1107  0.2031
  369loPI   C3B 5903  12.452   2.112   8.939  0.2239  0.1434  0.2565
  369loPI   C4B 5904  12.406   1.914   8.467 -0.0314 -0.3621 -0.0067
  370loPI    C1 5905   0.599   5.699  10.706 -0.0370  0.0379 -0.1676
  370loPI    C2 5906   0.388   5.810  11.027  0.1441 -0.0972  0.0008
  370loPI    C3 5907   0.788   5.825  11.036  0.1496 -0.0785 -0.2282
  370loPI   PO4 5908   0.515   5.731  10.422  0.1565  0.0581 -0.1676
  370loPI   GL1 5909   0.631   5.677  10.043 -0.0274  0.0644 -0.0354
  370loPI   GL2 5910   0.419   5.720   9.691  0.0543  0.0204 -0.4637
  370loPI   C1A 5911   0.917   5.708   9.686 -0.0242 -0.2379 -0.1394
  370loPI   C2A 5912   0.989   5.674   9.257  0.0477 -0.0221  0.1661
  370loPI   C3A 5913   1.087   5.468   8.779  0.1317 -0.0101 -0.3348
  370loPI   C4A 5914   0.893   5.400   8.322  0.2655  0.0175  0.2032
  370loPI   C5A 5915   0.905   5.793   7.962  0.1500  0.3412  0.3178
  370loPI   C6A 5916   1.181   6.086   7.811  0.2166  0.3913  0.2571
  370loPI   C1B 5917   0.503   5.788   9.246 -0.0143  0.3272  0.0513
  370loPI   C2B 5918   0.645   5.683   8.803  0.0784 -0.1186 -0.2333
  370loPI   C3B 5919   0.446   5.673   8.429  0.1882 -0.0519 -0.1023
  370loPI   C4B 5920   0.409   5.691   7.988  0.1074  0.1273  0.0827
  371loPI    C1 5921  16.275   1.591  10.857  0.1597  0.0594 -0.0326
  371loPI    C2 5922  16.121   1.960  10.873 -0.0518 -0.0278 -0.0148
  371loPI    C3 5923  16.057   1.703  11.173 -0.0691 -0.1418 -0.1151
  371loPI   PO4 5924  16.234   1.543  10.636 -0.0638  0.2164 -0.1815
  371loPI   GL1 5925  16.580   1.532  10.430 -0.2408  0.1721 -0.2141
  371loPI   GL2 5926  16.635   1.792  10.337  0.2823  0.1846  0.2887
  371loPI   C1A 5927  16.575   1.359   9.962 -0.1785 -0.2319  0.0248
  371loPI   C2A 5928  16.587   1.341   9.498 -0.1474 -0.1599  0.2557
  371loPI   C3A 5929  16.762   1.396   9.018  0.0605  0.0841 -0.2135
  371loPI   C4A 5930  16.660   1.466   8.658 -0.0634 -0.1101 -0.0879
  371loPI   C5A 5931  16.870   1.547   8.290  0.3742  0.0916 -0.2262
  371loPI   C6A 5932  16.691   1.535   7.792  0.2156 -0.0966 -0.0520
  371loPI   C1B 5933  16.762   1.842   9.948 -0.1137  0.3224 -0.4305
  371loPI   C2B 5934  16.756   1.840   9.515 -0.2940  0.0979  0.3204
  371loPI   C3B 5935  17.045   1.761   9.168 -0.3480  0.1677  0.2375
  371loPI   C4B 5936  17.084   1.769   8.740  0.0467  0.0358  0.1162
  372loPI    C1 5937  10.194  14.764  10.847 -0.1160 -0.0529  0.2370
  372loPI    C2 5938  10.010  15.115  10.900  0.0089  0.0206  0.1873
  372loPI    C3 5939  10.212  14.947  11.202 -0.0662 -0.0173  0.2164
  372loPI   PO4 5940  10.048  14.594  10.614  0.1054 -0.1014  0.0228
  372loPI   GL1 5941  10.008  14.368  10.178 -0.2759 -0.1252 -0.1275
  372loPI   GL2 5942  10.197  14.202  10.123  0.1552 -0.1837 -0.3423
  372loPI   C1A 5943   9.834  14.486   9.873  0.0925 -0.0483 -0.1212
  372loPI   C2A 5944   9.853  14.260   9.548 -0.0701  0.0690  0.0957
  372loPI   C3A 5945  10.020  14.298   9.156  0.1336  0.1946 -0.0484
  372loPI   C4A 5946   9.772  14.132   8.779  0.2075  0.1638  0.0210
  372loPI   C5A 5947   9.881  13.853   8.528 -0.1249  0.0446  0.2900
  372loPI   C6A 5948   9.990  13.940   8.124 -0.0490  0.1639  0.0650
  372loPI   C1B 5949  10.311  14.354   9.707 -0.1293  0.0286 -0.3289
  372loPI   C2B 5950  10.537  14.278   9.356  0.2215 -0.1123 -0.0349
  372loPI   C3B 5951  10.857  14.438   9.057 -0.1435  0.4526 -0.0097
  372loPI   C4B 5952  10.987  14.505   8.643  0.4564 -0.0373 -0.2996
  373loPI    C1 5953  17.245  13.552  11.127 -0.0104  0.0442  0.1360
  373loPI    C2 5954  16.859  13.575  11.024  0.0519 -0.2036 -0.1710
  373loPI    C3 5955  16.965  13.391  11.363 -0.1172  0.1294  0.0684
  373loPI   PO4 5956  17.376  13.347  10.991  0.0653 -0.0447 -0.1618
  373loPI   GL1 5957  17.653  13.300  10.739 -0.0064 -0.1290  0.2845
  373loPI   GL2 5958  17.664  13.434  10.430 -0.1952 -0.0572 -0.0188
  373loPI   C1A 5959  17.424  12.984  10.420  0.2159 -0.0172 -0.1721
  373loPI   C2A 5960  17.357  13.034   9.932  0.0873  0.0361 -0.2687
  373loPI   C3A 5961  17.454  13.262   9.580  0.1795 -0.1935  0.0686
  373loPI   C4A 5962  17.550  13.258   9.123  0.2832  0.0981 -0.2474
  373loPI   C5A 5963  17.353  13.173   8.719  0.0627 -0.1832 -0.0307
  373loPI   C6A 5964  17.311  13.103   8.190 -0.0345 -0.0086 -0.0207
  373loPI   C1B 5965  17.726  13.487   9.977 -0.3315  0.1054  0.0371
  373loPI   C2B 5966  17.754  13.734   9.601  0.0363 -0.0923 -0.2794
  373loPI   C3B 5967  17.735  13.731   9.174  0.1638 -0.0091  0.0774
  373loPI   C4B 5968  17.546  13.633   8.735  0.1796 -0.3373 -0.0245
  374loPI    C1 5969   7.193   4.987  11.188  0.0150 -0.0992  0.0687
  374loPI    C2 5970   7.301   5.080  11.562  0.0706  0.0091  0.0262
  374loPI    C3 5971   6.940   5.185  11.427  0.2211  0.3824 -0.0990
  374loPI   PO4 5972   7.412   5.080  10.930  0.1746  0.2758  0.1327
  374loPI   GL1 5973   7.163   5.140  10.593  0.2824 -0.2042  0.4275
  374loPI   GL2 5974   7.332   4.865  10.447 -0.0305  0.3032 -0.2651
  374loPI   C1A 5975   7.174   5.291  10.234 -0.1153 -0.1532  0.1294
  374loPI   C2A 5976   7.244   5.332   9.821  0.0634  0.0246  0.3470
  374loPI   C3A 5977   7.235   5.484   9.428 -0.1557  0.0309  0.1496
  374loPI   C4A 5978   7.314   5.611   8.988 -0.0350 -0.1504 -0.0130
  374loPI   C5A 5979   7.470   5.642   8.516  0.3311 -0.0924 -0.0250
  374loPI   C6A 5980   7.485   5.582   8.070  0.1541 -0.2562  0.2175
  374loPI   C1B 5981   7.158   4.854   9.971  0.0267 -0.0674  0.0115
  374loPI   C2B 5982   7.092   4.864   9.520  0.2011 -0.0667 -0.2966
  374loPI   C3B 5983   6.983   4.882   9.078 -0.1508 -0.2193  0.0173
  374loPI   C4B 5984   7.005   4.775   8.687  0.1490  0.0501  0.0646
  375loPI    C1 5985   0.803  16.583  11.153  0.0067  0.0699  0.0567
  375loPI    C2 5986   0.903  16.445  11.515 -0.2202 -0.0211  0.0869
  375loPI    C3 5987   0.709  16.208  11.258  0.1271 -0.0281 -0.1769
  375loPI   PO4 5988   0.799  16.846  11.039 -0.1867 -0.0075  0.1166
  375loPI   GL1 5989   0.966  17.066  10.708  0.0200  0.1112  0.1557
  375loPI   GL2 5990   0.750  17.279  10.716 -0.3353  0.1804 -0.2547
  375loPI   C1A 5991   1.007  16.734  10.373  0.2254 -0.2598 -0.0584
  375loPI   C2A 5992   0.998  16.754   9.992  0.4844 -0.0719 -0.0080
  375loPI   C3A 5993   0.919  16.708   9.675 -0.0372  0.0313  0.0507
  375loPI   C4A 5994   1.048  16.747   9.264  0.0640 -0.1065 -0.0152
  375loPI   C5A 5995   0.898  16.668   8.808 -0.1146  0.0262 -0.2903
  375loPI   C6A 5996   0.917  16.481   8.418 -0.3374 -0.0300 -0.0419
  375loPI   C1B 5997   0.854  17.284  10.229 -0.1426  0.4095  0.1242
  375loPI   C2B 5998   0.815  17.166   9.806 -0.0898 -0.1606  0.1536
  375loPI   C3B 5999   0.857  17.204   9.379 -0.1825 -0.0585 -0.0948
  375loPI   C4B 6000   0.870  17.189   8.942  0.0625 -0.0196 -0.3087
  376loPI    C1 6001  15.013  12.161  10.946 -0.0295 -0.1063 -0.1261
  376loPI    C2 6002  15.290  12.192  10.659  0.1735 -0.1654  0.0605
  376loPI    C3 6003  15.387  12.266  11.040 -0.1496  0.1419  0.0890
  376loPI   PO4 6004  14.766  12.287  10.725  0.1774 -0.1161  0.0216
  376loPI   GL1 6005  14.864  12.348  10.303 -0.0387 -0.1016 -0.1672
  376loPI   GL2 6006  14.500  12.531  10.382 -0.1495  0.1746  0.2280
  376loPI   C1A 6007  14.953  12.351   9.870 -0.2179 -0.0884  0.2640
  376loPI   C2A 6008  14.996  12.233   9.390  0.3327  0.0297  0.0200
  376loPI   C3A 6009  14.987  12.240   8.928  0.0940  0.1287  0.2774
  376loPI   C4A 6010  14.813  12.088   8.494 -0.0483  0.3098 -0.1759
  376loPI   C5A 6011  14.553  12.269   8.133  0.3333 -0.3952 -0.1209
  376loPI   C6A 6012  14.101  12.137   8.307  0.2067 -0.1828 -0.1275
  376loPI   C1B 6013  14.467  12.469   9.931 -0.2713 -0.0803 -0.1692
  376loPI   C2B 6014  14.460  12.380   9.528  0.0747 -0.1094  0.1369
  376loPI   C3B 6015  14.479  12.290   9.121  0.0792  0.0856  0.0774
  376loPI   C4B 6016  14.426  12.397   8.651 -0.0336  0.0692  0.0929
  377loPI    C1 6017  12.232  17.195  10.741  0.0483  0.0393 -0.1017
  377loPI    C2 6018  12.511  17.190  11.028 -0.0503  0.1091 -0.0036
  377loPI    C3 6019  12.536  17.455  10.730  0.1272 -0.0540 -0.1367
  377loPI   PO4 6020  12.241  16.993  10.680  0.1607  0.2187 -0.2576
  377loPI   GL1 6021  12.303  16.830  10.309  0.1043 -0.3308 -0.1646
  377loPI   GL2 6022  12.578  16.608  10.249 -0.0699  0.1026 -0.0739
  377loPI   C1A 6023  12.253  16.887   9.809  0.0864  0.1507  0.1431
  377loPI   C2A 6024  12.274  16.877   9.373  0.0500 -0.4295 -0.0801
  377loPI   C3A 6025  11.974  16.778   9.024 -0.0277 -0.1934 -0.0444
  377loPI   C4A 6026  11.933  16.501   8.708  0.0713  0.2633  0.0613
  377loPI   C5A 6027  11.997  16.100   8.482 -0.1644  0.1733  0.0245
  377loPI   C6A 6028  11.972  15.750   8.200 -0.2305 -0.1326  0.0838
  377loPI   C1B 6029  12.792  16.636   9.853 -0.3212 -0.3504 -0.0569
  377loPI   C2B 6030  12.695  16.585   9.413 -0.0522 -0.1418  0.3290
  377loPI   C3B 6031  12.557  16.760   8.946  0.0131 -0.2153  0.2264
  377loPI   C4B 6032  12.311  16.883   8.658  0.3809 -0.1057  0.0560
  378loPI    C1 6033  12.546   0.312  11.163  0.1834 -0.1368 -0.1242
  378loPI    C2 6034  12.855   0.540  11.274  0.2219 -0.3215  0.1573
  378loPI    C3 6035  12.883   0.142  11.293  0.0903 -0.3488 -0.1558
  378loPI   PO4 6036  12.397   0.448  10.984 -0.0690 -0.0431 -0.1364
  378loPI   GL1 6037  12.311   0.365  10.555  0.1323  0.0679  0.2173
  378loPI   GL2 6038  12.338   0.711  10.448 -0.0365 -0.0582  0.1624
  378loPI   C1A 6039  12.162   0.299  10.170  0.0586  0.0952 -0.0711
  378loPI   C2A 6040  12.284   0.317   9.710 -0.3136  0.0415 -0.1892
  378loPI   C3A 6041  12.403   0.227   9.264  0.0194  0.1930 -0.1782
  378loPI   C4A 6042  12.413   0.220   8.835 -0.1013 -0.1600  0.2497
  378loPI   C5A 6043  12.318   0.264   8.418 -0.0387 -0.0195 -0.1759
  378loPI   C6A 6044  12.013   0.271   8.119 -0.1414  0.0583  0.1530
  378loPI   C1B 6045  12.455   0.805  10.030  0.0453  0.1223  0.0416
  378loPI   C2B 6046  12.430   0.783   9.559  0.1458  0.1382  0.3746
  378loPI   C3B 6047  12.377   0.723   9.170 -0.1698 -0.1832  0.2519
  378loPI   C4B 6048  12.388   0.748   8.709 -0.1551  0.0316  0.3175
  379loPI    C1 6049  11.562   4.173  11.068 -0.4333 -0.1583  0.1703
  379loPI    C2 6050  11.749   3.950  11.342 -0.1613 -0.0257  0.0960
  379loPI    C3 6051  11.401   4.126  11.431 -0.3571 -0.4371  0.1700
  379loPI   PO4 6052  11.735   4.158  10.877  0.0598 -0.2919 -0.0631
  379loPI   GL1 6053  11.737   4.057  10.381 -0.0170  0.0473  0.0690
  379loPI   GL2 6054  11.655   3.764  10.234 -0.0183  0.1731  0.1379
  379loPI   C1A 6055  11.402   4.194  10.038 -0.0613  0.0236  0.2956
  379loPI   C2A 6056  11.379   4.335   9.660 -0.1759  0.2959  0.0607
  379loPI   C3A 6057  11.380   4.365   9.187  0.0224 -0.1332  0.0273
  379loPI   C4A 6058  11.341   4.438   8.794 -0.1915  0.3376 -0.0581
  379loPI   C5A 6059  11.324   4.328   8.459 -0.1403 -0.0920  0.0693
  379loPI   C6A 6060  11.285   4.038   8.198  0.1659 -0.2304  0.0084
  379loPI   C1B 6061  11.689   3.844   9.728 -0.0855  0.2514 -0.1883
  379loPI   C2B 6062  11.746   3.956   9.267  0.1393 -0.0514  0.1640
  379loPI   C3B 6063  11.656   3.950   8.928  0.1488  0.2784  0.0933
  379loPI   C4B 6064  11.705   3.993   8.575 -0.1975 -0.2155  0.2094
  380loPI    C1 6065   0.433   7.600  10.488 -0.3169 -0.1194 -0.2017
  380loPI    C2 6066   0.486   7.227  10.622  0.0304 -0.0612 -0.1671
  380loPI    C3 6067   0.497   7.535  10.877  0.0338 -0.0037 -0.2363
  380loPI   PO4 6068   0.551   7.589  10.298 -0.5017 -0.0112  0.0909
  380loPI   GL1 6069   0.681   7.563   9.971 -0.2476  0.1856 -0.4610
  380loPI   GL2 6070   0.715   7.879   9.944 -0.1796 -0.0349  0.3027
  380loPI   C1A 6071   0.829   7.376   9.582  0.3377 -0.0700 -0.0921
  380loPI   C2A 6072   0.923   7.592   9.218  0.0969 -0.0599 -0.0576
  380loPI   C3A 6073   1.017   7.623   8.820  0.1257  0.1633 -0.0368
  380loPI   C4A 6074   1.263   7.461   8.457 -0.2883  0.0216 -0.0964
  380loPI   C5A 6075   1.237   7.352   8.052  0.0552  0.1546  0.0534
  380loPI   C6A 6076   1.100   7.068   7.741  0.0352 -0.1821 -0.1409
  380loPI   C1B 6077   0.616   7.853   9.535 -0.0182 -0.3551  0.1538
  380loPI   C2B 6078   0.548   7.931   9.019  0.1257 -0.0118 -0.1847
  380loPI   C3B 6079   0.449   7.821   8.640  0.1359  0.1199  0.0162
  380loPI   C4B 6080   0.433   7.594   8.269  0.1199 -0.1875  0.0513
  381loPI    C1 6081   9.559   6.141  10.609  0.1455  0.0481 -0.0882
  381loPI    C2 6082   9.210   6.053  10.434  0.0625  0.4085 -0.1103
  381loPI    C3 6083   9.349   5.822  10.730  0.0336 -0.0032 -0.4102
  381loPI   PO4 6084   9.652   6.292  10.405 -0.1958  0.0894  0.1466
  381loPI   GL1 6085   9.577   6.262   9.949 -0.1543 -0.1997  0.0044
  381loPI   GL2 6086   9.868   6.425   9.936  0.1483 -0.2555  0.1077
  381loPI   C1A 6087   9.695   6.023   9.536 -0.2579  0.4629  0.1306
  381loPI   C2A 6088   9.747   5.977   9.129  0.1332 -0.2989 -0.2681
  381loPI   C3A 6089   9.722   5.956   8.700 -0.2889  0.1653  0.1145
  381loPI   C4A 6090   9.776   6.054   8.370  0.1601  0.3425  0.1396
  381loPI   C5A 6091   9.830   6.276   8.037  0.2734 -0.0856  0.2331
  381loPI   C6A 6092  10.077   6.619   7.835 -0.1813  0.2416  0.0353
  381loPI   C1B 6093   9.802   6.545   9.458 -0.2571 -0.1190  0.1433
  381loPI   C2B 6094   9.797   6.513   9.087 -0.2634  0.0192  0.2277
  381loPI   C3B 6095   9.903   6.428   8.656 -0.2854 -0.0963  0.0146
  381loPI   C4B 6096  10.119   6.649   8.307 -0.1288  0.2003 -0.0927
  382loPI    C1 6097  15.351   9.264  10.939 -0.0907 -0.0971 -0.0098
  382loPI    C2 6098  15.608   8.958  10.926  0.0007 -0.0158 -0.1312
  382loPI    C3 6099  15.250   8.911  11.098  0.1786 -0.0683  0.2349
  382loPI   PO4 6100  15.332   9.316  10.641 -0.0096  0.0195 -0.1084
  382loPI   GL1 6101  15.174   9.175  10.150 -0.0477  0.0566  0.2082
  382loPI   GL2 6102  15.464   9.125  10.163 -0.1324 -0.3040 -0.1322
  382loPI   C1A 6103  14.899   9.246   9.718 -0.1555  0.1225 -0.2071
  382loPI   C2A 6104  14.693   9.254   9.268  0.0509 -0.3662  0.1341
  382loPI   C3A 6105  14.800   9.345   8.868 -0.0207  0.4186 -0.1972
  382loPI   C4A 6106  15.020   9.408   8.486  0.1133  0.0974 -0.1944
  382loPI   C5A 6107  15.303   9.465   8.287 -0.0961 -0.0538  0.0674
  382loPI   C6A 6108  15.690   9.602   8.090 -0.1028 -0.0486  0.0038
  382loPI   C1B 6109  15.380   9.087   9.655 -0.6023  0.0995 -0.4148
  382loPI   C2B 6110  15.144   9.154   9.250 -0.1717  0.1922 -0.3235
  382loPI   C3B 6111  15.309   9.152   8.830 -0.0295  0.1563  0.1190
  382loPI   C4B 6112  15.422   9.018   8.479 -0.1153 -0.0035  0.1390
  383loPI    C1 6113  10.157   3.046  10.970 -0.0321 -0.0170  0.1550
  383loPI    C2 6114  10.515   2.899  10.868  0.0061  0.0980  0.1230
  383loPI    C3 6115  10.328   2.761  11.193  0.0246 -0.0480  0.0722
  383loPI   PO4 6116  10.047   3.034  10.837  0.0681 -0.0422  0.1111
  383loPI   GL1 6117   9.984   2.997  10.408 -0.1442 -0.1058 -0.0449
  383loPI   GL2 6118  10.191   3.052  10.310 -0.3469 -0.0459 -0.1993
  383loPI   C1A 6119   9.794   3.226  10.055 -0.3234 -0.4344  0.3826
  383loPI   C2A 6120   9.873   3.224   9.662  0.3603 -0.0448  0.3263
  383loPI   C3A 6121  10.035   3.110   9.227 -0.2139 -0.1398 -0.2366
  383loPI   C4A 6122  10.119   3.061   8.862 -0.0686  0.2153  0.3621
  383loPI   C5A 6123  10.100   2.970   8.389  0.1254  0.1811  0.0850
  383loPI   C6A 6124   9.997   2.810   7.981 -0.1559 -0.1012  0.1937
  383loPI   C1B 6125  10.247   3.043   9.881  0.0877  0.0646  0.1740
  383loPI   C2B 6126  10.470   3.162   9.551 -0.0964 -0.0501  0.0904
  383loPI   C3B 6127  10.498   3.306   9.017 -0.0760  0.0415  0.0289
  383loPI   C4B 6128  10.306   3.477   8.687 -0.0253 -0.2683  0.1178
  384loPI    C1 6129   1.762   1.711  11.082  0.0282  0.0282 -0.1494
  384loPI    C2 6130   1.909   1.949  10.797  0.0470  0.2561  0.0477
  384loPI    C3 6131   1.906   2.071  11.178  0.3587 -0.1892  0.2005
  384loPI   PO4 6132   1.813   1.489  10.923  0.1547  0.2012  0.0782
  384loPI   GL1 6133   1.941   1.339  10.486 -0.1100 -0.0478  0.2739
  384loPI   GL2 6134   1.990   1.691  10.377 -0.4222  0.0513 -0.0491
  384loPI   C1A 6135   1.836   1.265  10.098 -0.2858  0.0829 -0.0079
  384loPI   C2A 6136   1.853   1.260   9.655 -0.0273  0.0185 -0.0349
  384loPI   C3A 6137   1.994   1.218   9.256 -0.2643  0.1656  0.1176
  384loPI   C4A 6138   1.934   1.260   8.798 -0.0346 -0.1736 -0.3445
  384loPI   C5A 6139   2.231   1.157   8.293  0.0616 -0.3059 -0.1879
  384loPI   C6A 6140   2.507   0.967   7.943  0.3783  0.2974 -0.3958
  384loPI   C1B 6141   2.154   1.605   9.886 -0.0243  0.0557 -0.0485
  384loPI   C2B 6142   2.188   1.607   9.420 -0.0690  0.2107  0.0678
  384loPI   C3B 6143   2.277   1.556   8.977  0.0779 -0.1588  0.1754
  384loPI   C4B 6144   2.316   1.535   8.562  0.2523  0.0148 -0.0576
  385loPI    C1 6145  13.193  15.594  10.963 -0.0570  0.2394 -0.1839
  385loPI    C2 6146  13.201  15.434  11.329 -0.3044  0.0310 -0.2667
  385loPI    C3 6147  13.172  15.830  11.285 -0.2410  0.0596 -0.0613
  385loPI   PO4 6148  13.469  15.444  10.758  0.2079 -0.2249 -0.4114
  385loPI   GL1 6149  13.583  15.427  10.265  0.2503 -0.2215  0.1485
  385loPI   GL2 6150  13.623  15.059  10.413 -0.0593 -0.1650 -0.1664
  385loPI   C1A 6151  13.804  15.269   9.899  0.0329 -0.0022 -0.0167
  385loPI   C2A 6152  13.912  15.454   9.490 -0.0694  0.0049 -0.0328
  385loPI   C3A 6153  14.227  15.572   9.193 -0.0052 -0.2773 -0.1614
  385loPI   C4A 6154  14.315  15.701   8.845  0.1921 -0.0443  0.3771
  385loPI   C5A 6155  14.312  15.913   8.513 -0.0092  0.0406 -0.2549
  385loPI   C6A 6156  14.224  16.168   8.145  0.0340  0.0655  0.1601
  385loPI   C1B 6157  13.603  14.790  10.096  0.1753  0.0937  0.2464
  385loPI   C2B 6158  13.664  14.477   9.710 -0.3528 -0.0413 -0.3667
  385loPI   C3B 6159  13.673  14.275   9.251 -0.2161  0.1312 -0.0627
  385loPI   C4B 6160  13.614  14.060   8.821 -0.4847 -0.3983 -0.1213
  386loPI    C1 6161   3.195   6.190  10.848 -0.3457  0.1592 -0.1070
  386loPI    C2 6162   3.070   5.888  11.079 -0.1640  0.0698 -0.1234
  386loPI    C3 6163   3.109   6.256  11.233  0.1725 -0.0347  0.0508
  386loPI   PO4 6164   3.072   6.167  10.628 -0.2871  0.1407 -0.0820
  386loPI   GL1 6165   3.093   5.940  10.257  0.2817 -0.2106 -0.0942
  386loPI   GL2 6166   3.260   5.666  10.153 -0.1313 -0.0565  0.0949
  386loPI   C1A 6167   3.199   6.190   9.952 -0.0984 -0.3735 -0.1316
  386loPI   C2A 6168   3.312   6.230   9.437  0.2466  0.3063 -0.2849
  386loPI   C3A 6169   3.350   6.238   8.976 -0.2180  0.2426 -0.1569
  386loPI   C4A 6170   3.429   6.249   8.594 -0.0821  0.0716  0.0588
  386loPI   C5A 6171   3.605   6.129   8.202  0.1034  0.2148  0.2899
  386loPI   C6A 6172   3.707   6.349   7.849  0.1010 -0.2685  0.2735
  386loPI   C1B 6173   3.270   5.745   9.723 -0.2226  0.2709 -0.1878
  386loPI   C2B 6174   3.282   5.748   9.280 -0.2242 -0.2327 -0.3914
  386loPI   C3B 6175   3.341   5.670   8.811 -0.0899  0.2681 -0.1000
  386loPI   C4B 6176   3.439   5.629   8.373  0.1656 -0.0129  0.2825
  387loPI    C1 6177   7.993  13.588  10.644  0.2981  0.1056  0.1843
  387loPI    C2 6178   7.641  13.762  10.720  0.1285 -0.2145  0.1479
  387loPI    C3 6179   7.861  13.615  11.021  0.0833 -0.2940  0.1424
  387loPI   PO4 6180   8.021  13.645  10.473  0.2027  0.0152  0.0207
  387loPI   GL1 6181   7.907  13.815  10.101  0.0342  0.3363 -0.0401
  387loPI   GL2 6182   8.139  14.118  10.025  0.0466 -0.1210  0.3239
  387loPI   C1A 6183   8.032  13.738   9.673  0.4460  0.0644 -0.1666
  387loPI   C2A 6184   8.292  13.789   9.290 -0.1124 -0.2090 -0.0307
  387loPI   C3A 6185   8.616  13.945   9.072 -0.0129  0.1688 -0.0696
  387loPI   C4A 6186   8.814  14.211   8.670 -0.4392  0.0973  0.1408
  387loPI   C5A 6187   8.895  13.951   8.216  0.0278 -0.0880 -0.2500
  387loPI   C6A 6188   9.071  13.885   7.799  0.2221 -0.1581 -0.3016
  387loPI   C1B 6189   7.897  14.234   9.598  0.0560  0.2834  0.1319
  387loPI   C2B 6190   7.869  14.149   9.225 -0.0871 -0.1566 -0.0720
  387loPI   C3B 6191   8.085  14.095   8.913  0.2246  0.3224 -0.2005
  387loPI   C4B 6192   8.370  13.996   8.626  0.0005 -0.1095 -0.0109
  388loPI    C1 6193  14.338   7.171  10.833 -0.0805  0.1541  0.0740
  388loPI    C2 6194  14.386   6.841  11.054 -0.0301  0.0519 -0.0873
  388loPI    C3 6195  14.076   7.085  11.122 -0.0791 -0.0394  0.0192
  388loPI   PO4 6196  14.391   7.125  10.645  0.0471  0.1058  0.0804
  388loPI   GL1 6197  14.197   7.252  10.171 -0.1839  0.0135  0.0474
  388loPI   GL2 6198  14.493   7.411  10.129 -0.1465  0.0906  0.1421
  388loPI   C1A 6199  14.116   7.067   9.785  0.0591  0.3209  0.0648
  388loPI   C2A 6200  14.208   6.942   9.338  0.0701  0.2557 -0.0923
  388loPI   C3A 6201  14.207   6.919   8.977  0.1071 -0.2224  0.1843
  388loPI   C4A 6202  14.521   6.949   8.616  0.1569  0.1124 -0.1745
  388loPI   C5A 6203  14.635   6.821   8.247 -0.2390 -0.0039  0.1315
  388loPI   C6A 6204  14.734   6.462   8.058 -0.1429 -0.1139  0.1736
  388loPI   C1B 6205  14.327   7.513   9.775  0.3389  0.1725  0.1335
  388loPI   C2B 6206  14.452   7.455   9.345 -0.1983 -0.0438  0.2179
  388loPI   C3B 6207  14.416   7.427   8.891  0.2119  0.0727 -0.0469
  388loPI   C4B 6208  14.529   7.515   8.471  0.1988  0.1004 -0.1511
  389loPI    C1 6209  15.433   4.078  10.812 -0.2237 -0.1115  0.2053
  389loPI    C2 6210  15.441   4.390  11.063 -0.0247  0.0669 -0.0183
  389loPI    C3 6211  15.399   4.019  11.207 -0.3212  0.1984  0.2464
  389loPI   PO4 6212  15.303   4.120  10.713 -0.0115  0.1769  0.4051
  389loPI   GL1 6213  15.338   4.324  10.336  0.0784  0.0006  0.1476
  389loPI   GL2 6214  15.453   4.650  10.171  0.0842  0.0695 -0.3605
  389loPI   C1A 6215  15.271   4.201   9.997  0.2997  0.0192 -0.1890
  389loPI   C2A 6216  15.440   4.129   9.585 -0.1331  0.0623 -0.0393
  389loPI   C3A 6217  15.413   4.074   9.202 -0.0784  0.1799 -0.0795
  389loPI   C4A 6218  15.473   4.061   8.791  0.1164 -0.0866  0.1881
  389loPI   C5A 6219  15.361   4.025   8.374  0.0245  0.2504  0.0912
  389loPI   C6A 6220  15.372   4.187   7.902 -0.0032  0.1471  0.1002
  389loPI   C1B 6221  15.477   4.562   9.808 -0.0632  0.0174  0.3373
  389loPI   C2B 6222  15.505   4.579   9.390  0.2646 -0.0809  0.1748
  389loPI   C3B 6223  15.553   4.604   9.034 -0.1444  0.0335 -0.0723
  389loPI   C4B 6224  15.556   4.491   8.616  0.0615  0.1809  0.1723
  390loPI    C1 6225  10.669   1.953  10.764  0.0486  0.0418 -0.1401
  390loPI    C2 6226  10.805   1.939  11.140 -0.1134 -0.0459 -0.0836
  390loPI    C3 6227  11.040   2.077  10.847  0.0735 -0.1369  0.0217
  390loPI   PO4 6228  10.646   1.821  10.681 -0.1452  0.2079  0.0437
  390loPI   GL1 6229  10.527   1.759  10.257  0.2233 -0.1224  0.2316
  390loPI   GL2 6230  10.526   1.414  10.337 -0.0590  0.1744  0.0112
  390loPI   C1A 6231  10.334   1.688   9.832  0.1054  0.3441 -0.1078
  390loPI   C2A 6232  10.269   1.615   9.462 -0.1812  0.0249 -0.2606
  390loPI   C3A 6233  10.400   1.603   9.122  0.2024  0.1476  0.0885
  390loPI   C4A 6234  10.454   1.448   8.692 -0.0872  0.1209 -0.0457
  390loPI   C5A 6235  10.570   1.182   8.272 -0.0621  0.2417  0.0484
  390loPI   C6A 6236  10.731   1.126   7.852 -0.2269  0.3265 -0.2590
  390loPI   C1B 6237  10.781   1.301  10.041  0.1424  0.1020 -0.2537
  390loPI   C2B 6238  10.691   1.340   9.603  0.0020 -0.0200  0.1820
  390loPI   C3B 6239  10.869   1.350   9.178  0.2020 -0.1131 -0.1950
  390loPI   C4B 6240  10.965   1.221   8.722  0.2292  0.0003  0.0567
  391loPI    C1 6241   6.749   2.061  11.027  0.2872  0.1307 -0.2366
  391loPI    C2 6242   6.641   2.318  11.314 -0.0694 -0.1166 -0.1422
  391loPI    C3 6243   6.940   2.060  11.379 -0.0616 -0.0827 -0.0419
  391loPI   PO4 6244   6.807   2.150  10.772  0.3828  0.0451 -0.0675
  391loPI   GL1 6245   7.042   2.493  10.491 -0.1032 -0.1023 -0.0888
  391loPI   GL2 6246   6.781   2.514  10.362 -0.1474 -0.1249  0.1231
  391loPI   C1A 6247   7.367   2.523  10.205 -0.2415 -0.5462 -0.0409
  391loPI   C2A 6248   7.419   2.563   9.771  0.0473  0.1965  0.0028
  391loPI   C3A 6249   7.451   2.705   9.361 -0.0090  0.0309  0.1509
  391loPI   C4A 6250   7.339   2.623   8.966 -0.1772  0.1558  0.2227
  391loPI   C5A 6251   7.108   2.611   8.599 -0.0324 -0.1235 -0.1616
  391loPI   C6A 6252   6.821   2.917   8.397  0.3231 -0.1362  0.2291
  391loPI   C1B 6253   6.909   2.474   9.991  0.5358 -0.0749  0.1877
  391loPI   C2B 6254   6.950   2.503   9.524 -0.3193 -0.2544 -0.0302
  391loPI   C3B 6255   6.804   2.618   8.987  0.1917 -0.1003  0.1442
  391loPI   C4B 6256   6.573   2.462   8.560  0.0724  0.1244  0.0897
  392loPI    C1 6257  14.541   1.369  11.204  0.1466 -0.0645  0.0095
  392loPI    C2 6258  14.778   1.607  11.421  0.0687 -0.1862  0.2314
  392loPI    C3 6259  14.545   1.337  11.603 -0.5570  0.2129  0.0533
  392loPI   PO4 6260  14.442   1.540  11.055  0.0255  0.3055 -0.1503
  392loPI   GL1 6261  14.274   1.509  10.655  0.2031  0.4206 -0.4386
  392loPI   GL2 6262  14.271   1.300  10.488  0.2147 -0.1052  0.1277
  392loPI   C1A 6263  14.040   1.710  10.281 -0.0371 -0.0261  0.1291
  392loPI   C2A 6264  14.028   1.734   9.832 -0.4288  0.0852 -0.0299
  392loPI   C3A 6265  14.105   1.825   9.419 -0.2474 -0.0229  0.1186
  392loPI   C4A 6266  14.078   1.634   8.977 -0.1211  0.0460 -0.0374
  392loPI   C5A 6267  14.178   1.561   8.547 -0.1983 -0.2418  0.0101
  392loPI   C6A 6268  13.955   1.589   8.145  0.1962 -0.0684 -0.0487
  392loPI   C1B 6269  14.417   1.400  10.141 -0.0640  0.0012 -0.3067
  392loPI   C2B 6270  14.423   1.471   9.747 -0.1993 -0.1171  0.3657
  392loPI   C3B 6271  14.481   1.376   9.326  0.0593 -0.1558 -0.0241
  392loPI   C4B 6272  14.481   1.213   8.903 -0.2799 -0.2592 -0.0371
  393loPI    C1 6273  12.317  12.905  10.763 -0.0041 -0.1541 -0.3888
  393loPI    C2 6274  12.692  12.853  10.891 -0.0675  0.3173  0.0161
  393loPI    C3 6275  12.387  12.837  11.150 -0.3285 -0.0105 -0.3010
  393loPI   PO4 6276  12.330  13.014  10.520 -0.2320 -0.0309  0.2588
  393loPI   GL1 6277  12.329  13.265  10.185 -0.0043 -0.0556 -0.0604
  393loPI   GL2 6278  11.988  13.177  10.151  0.0259  0.0796 -0.3026
  393loPI   C1A 6279  12.212  13.064   9.735  0.1567  0.2670 -0.0849
  393loPI   C2A 6280  12.244  13.071   9.296 -0.1184  0.4922  0.1610
  393loPI   C3A 6281  12.158  12.997   8.785  0.0382 -0.0173 -0.0599
  393loPI   C4A 6282  12.048  13.312   8.427 -0.1113 -0.0785  0.2229
  393loPI   C5A 6283  11.945  13.580   8.054 -0.0948  0.0837 -0.0328
  393loPI   C6A 6284  11.627  13.753   7.823  0.0589 -0.1649  0.0052
  393loPI   C1B 6285  11.850  13.440   9.863  0.0599  0.2971  0.0515
  393loPI   C2B 6286  12.019  13.475   9.462 -0.1010  0.2302 -0.2108
  393loPI   C3B 6287  11.910  13.550   9.020  0.0358 -0.3543  0.0422
  393loPI   C4B 6288  11.759  13.927   8.945  0.0822  0.1072  0.1171
  394loPI    C1 6289   8.122  12.477  10.740 -0.0638 -0.0874 -0.1199
  394loPI    C2 6290   8.064  12.763  11.014  0.1939  0.0034 -0.1575
  394loPI    C3 6291   8.244  12.421  11.117  0.0216 -0.0850 -0.1469
  394loPI   PO4 6292   8.150  12.669  10.447 -0.0487  0.1781  0.1150
  394loPI   GL1 6293   8.408  12.837  10.182  0.0927  0.1131 -0.0494
  394loPI   GL2 6294   8.693  12.753  10.398 -0.2413 -0.2357 -0.0273
  394loPI   C1A 6295   8.514  13.028   9.884 -0.0813  0.3729  0.3033
  394loPI   C2A 6296   8.609  12.906   9.502 -0.2408 -0.2689 -0.1386
  394loPI   C3A 6297   8.718  12.745   9.060  0.1808 -0.1016  0.0452
  394loPI   C4A 6298   8.680  13.000   8.729  0.3302 -0.1632  0.3443
  394loPI   C5A 6299   8.452  13.151   8.429 -0.0840  0.1422 -0.1407
  394loPI   C6A 6300   8.072  13.023   8.290  0.0181  0.1814 -0.0738
  394loPI   C1B 6301   8.759  12.595   9.945 -0.1333 -0.0109  0.2089
  394loPI   C2B 6302   8.890  12.486   9.535 -0.1868  0.0826 -0.0247
  394loPI   C3B 6303   9.011  12.332   9.135 -0.0847  0.1237 -0.0520
  394loPI   C4B 6304   8.837  12.402   8.739 -0.1714  0.0590 -0.3028
  395loPI    C1 6305  10.854  12.355  11.197 -0.1514  0.1757 -0.0298
  395loPI    C2 6306  11.169  12.601  11.221 -0.0855  0.0719  0.1940
  395loPI    C3 6307  10.932  12.546  11.539 -0.1873 -0.0395  0.1006
  395loPI   PO4 6308  10.690  12.486  10.962  0.0161 -0.0788  0.0570
  395loPI   GL1 6309  10.716  12.556  10.542 -0.0080 -0.1159  0.2388
  395loPI   GL2 6310  10.863  12.366  10.436  0.3097 -0.2835  0.2489
  395loPI   C1A 6311  10.856  12.887  10.327  0.1589 -0.2432 -0.2722
  395loPI   C2A 6312  11.034  13.089  10.010  0.0254  0.2692  0.1594
  395loPI   C3A 6313  11.079  12.975   9.657  0.0829 -0.1322 -0.1441
  395loPI   C4A 6314  11.234  12.896   9.230 -0.4977  0.2646 -0.1095
  395loPI   C5A 6315  11.175  12.934   8.827  0.1124  0.2139 -0.0163
  395loPI   C6A 6316  11.094  13.113   8.466  0.0448 -0.0156  0.2090
  395loPI   C1B 6317  10.812  12.478  10.000  0.1734 -0.1089  0.2669
  395loPI   C2B 6318  10.877  12.521   9.572  0.0489  0.0657 -0.0861
  395loPI   C3B 6319  10.927  12.479   9.136  0.0546 -0.0722  0.1114
  395loPI   C4B 6320  11.013  12.468   8.773  0.0778  0.2128  0.3249
  396loPI    C1 6321  11.709   9.353  11.046 -0.1204  0.1338 -0.0881
  396loPI    C2 6322  11.589   9.238  11.410  0.1413 -0.2252 -0.1105
  396loPI    C3 6323  11.904   9.481  11.370 -0.0101 -0.0239 -0.0908
  396loPI   PO4 6324  11.643   9.105  10.912  0.1248  0.1238  0.1755
  396loPI   GL1 6325  11.570   9.115  10.460  0.3597  0.1035 -0.2394
  396loPI   GL2 6326  11.248   9.119  10.375 -0.0452  0.1692 -0.1606
  396loPI   C1A 6327  11.523   8.932   9.997 -0.0367 -0.0310 -0.3169
  396loPI   C2A 6328  11.520   8.757   9.511 -0.2434 -0.4128  0.1806
  396loPI   C3A 6329  11.533   8.796   9.026 -0.1950  0.1739  0.0207
  396loPI   C4A 6330  11.431   8.943   8.604 -0.2238  0.0269 -0.3063
  396loPI   C5A 6331  11.568   9.281   8.343  0.2621 -0.0681  0.0346
  396loPI   C6A 6332  11.782   9.520   8.039  0.2021 -0.0563 -0.0629
  396loPI   C1B 6333  11.219   9.362  10.072  0.0308  0.2743  0.1670
  396loPI   C2B 6334  10.917   9.360   9.835 -0.0879 -0.3770 -0.2250
  396loPI   C3B 6335  10.796   9.243   9.477 -0.0205 -0.0848  0.0633
  396loPI   C4B 6336  10.726   9.203   9.017  0.1270  0.1055 -0.0382
  397loPI    C1 6337  10.203   1.349  10.842 -0.0005 -0.1130 -0.3727
  397loPI    C2 6338  10.595   1.287  10.894  0.0347  0.2449 -0.1783
  397loPI    C3 6339  10.354   1.321  11.211 -0.1297  0.1820 -0.2950
  397loPI   PO4 6340  10.215   1.530  10.686  0.1422 -0.3673 -0.3141
  397loPI   GL1 6341   9.998   1.606  10.326  0.0263  0.0214  0.3732
  397loPI   GL2 6342   9.948   1.860  10.214  0.0914  0.3530 -0.0497
  397loPI   C1A 6343   9.877   1.521   9.889 -0.2346 -0.0839 -0.1335
  397loPI   C2A 6344   9.804   1.541   9.513 -0.0078  0.0226  0.1601
  397loPI   C3A 6345   9.818   1.519   9.116 -0.4433  0.2043  0.1462
  397loPI   C4A 6346   9.995   1.713   8.880 -0.0199 -0.2362  0.0164
  397loPI   C5A 6347   9.929   1.965   8.457  0.0790  0.0445 -0.0996
  397loPI   C6A 6348   9.764   2.150   8.128 -0.2353  0.1311  0.2569
  397loPI   C1B 6349   9.920   2.002   9.819  0.1380 -0.1364 -0.1300
  397loPI   C2B 6350   9.963   2.002   9.368 -0.2731  0.1427 -0.3248
  397loPI   C3B 6351   9.916   2.199   8.935 -0.2134  0.0244  0.1693
  397loPI   C4B 6352  10.066   2.604   8.727  0.0749  0.1134  0.0845
  398loPI    C1 6353   9.903   1.922  11.080 -0.1235 -0.0733  0.0376
  398loPI    C2 6354  10.273   1.782  11.140 -0.2185 -0.2478  0.2290
  398loPI    C3 6355  10.202   2.175  11.159 -0.0401 -0.2119  0.1707
  398loPI   PO4 6356   9.824   1.869  10.835 -0.0153 -0.0017  0.0022
  398loPI   GL1 6357   9.547   2.060  10.447 -0.1688 -0.1101  0.0613
  398loPI   GL2 6358   9.443   1.789  10.382 -0.2469 -0.1884 -0.1126
  398loPI   C1A 6359   9.527   2.244  10.040  0.0048 -0.2765  0.0106
  398loPI   C2A 6360   9.554   2.328   9.671 -0.3514  0.4887 -0.0511
  398loPI   C3A 6361   9.582   2.303   9.311  0.0900  0.1947  0.0188
  398loPI   C4A 6362   9.401   2.411   8.919 -0.0778  0.0337  0.2007
  398loPI   C5A 6363   9.421   2.196   8.524 -0.0831 -0.1556  0.2895
  398loPI   C6A 6364   9.431   1.763   8.392  0.1140 -0.4458 -0.0369
  398loPI   C1B 6365   9.421   1.751   9.975 -0.1916 -0.0714 -0.1743
  398loPI   C2B 6366   9.465   1.864   9.613 -0.1959  0.2168 -0.2587
  398loPI   C3B 6367   9.393   1.868   9.240 -0.1607  0.0698 -0.0346
  398loPI   C4B 6368   9.520   1.886   8.892 -0.3154 -0.1047 -0.0973
  399loPI    C1 6369   3.299  12.978  10.873 -0.2157 -0.0227 -0.0354
  399loPI    C2 6370   3.180  12.637  10.702  0.1892 -0.1360 -0.0998
  399loPI    C3 6371   3.122  12.695  11.093  0.0293 -0.2355 -0.1080
  399loPI   PO4 6372   3.337  13.080  10.658  0.1538 -0.1833 -0.0591
  399loPI   GL1 6373   3.430  13.293  10.284 -0.1725 -0.0568 -0.1442
  399loPI   GL2 6374   3.628  13.470  10.184  0.2403 -0.3948 -0.0053
  399loPI   C1A 6375   3.374  13.010   9.872 -0.2252 -0.1778 -0.1291
  399loPI   C2A 6376   3.346  13.012   9.451  0.0659  0.1035  0.1412
  399loPI   C3A 6377   3.226  13.068   9.084 -0.0041  0.1614  0.2524
  399loPI   C4A 6378   3.173  13.003   8.600 -0.2440 -0.0201  0.0062
  399loPI   C5A 6379   3.091  13.101   8.182 -0.1544 -0.0232  0.2027
  399loPI   C6A 6380   2.965  13.015   7.726  0.0336 -0.1363  0.0374
  399loPI   C1B 6381   3.662  13.371   9.595  0.0866 -0.1604  0.2613
  399loPI   C2B 6382   3.641  13.356   9.123 -0.0919  0.2718  0.0078
  399loPI   C3B 6383   3.525  13.412   8.704  0.0036  0.2367  0.0392
  399loPI   C4B 6384   3.349  13.544   8.334  0.0022  0.0566 -0.2045
  400loPI    C1 6385   0.441   6.754  10.320 -0.1609  0.0457  0.0222
  400loPI    C2 6386   0.185   6.480  10.460 -0.0474 -0.0238  0.0956
  400loPI    C3 6387   0.443   6.658  10.708  0.0612 -0.0465 -0.0003
  400loPI   PO4 6388   0.454   6.623  10.081 -0.0535 -0.2425 -0.0285
  400loPI   GL1 6389   0.293   6.550   9.752 -0.2551 -0.0800 -0.1617
  400loPI   GL2 6390   0.379   6.217   9.687 -0.1339  0.0169 -0.0305
  400loPI   C1A 6391   0.182   6.757   9.335  0.0230  0.0613  0.1743
  400loPI   C2A 6392   0.112   6.896   8.897 -0.0559  0.0846 -0.3032
  400loPI   C3A 6393  -0.319   6.829   8.755 -0.3380 -0.1747 -0.1182
  400loPI   C4A 6394  -0.644   6.755   8.455 -0.1840 -0.0348  0.2627
  400loPI   C5A 6395  -0.613   7.023   8.130  0.1761 -0.1611  0.0779
  400loPI   C6A 6396  -0.423   7.152   7.819  0.1250 -0.1760 -0.0621
  400loPI   C1B 6397   0.376   6.289   9.298  0.0297  0.3272  0.1375
  400loPI   C2B 6398   0.344   6.470   8.909  0.0672  0.1937 -0.2748
  400loPI   C3B 6399   0.253   6.567   8.502 -0.1441  0.0711  0.0672
  400loPI   C4B 6400   0.360   6.659   8.026 -0.2014  0.3488  0.1488
  401loPI    C1 6401   4.669   9.461  10.937  0.0224  0.1559 -0.0822
  401loPI    C2 6402   4.721   9.735  11.224  0.0092  0.0595  0.0127
  401loPI    C3 6403   4.634   9.357  11.322  0.3003 -0.0414 -0.1067
  401loPI   PO4 6404   4.954   9.533  10.767 -0.0228  0.4301  0.1416
  401loPI   GL1 6405   5.031   9.724  10.295  0.2820  0.2527 -0.2598
  401loPI   GL2 6406   4.806   9.916  10.220 -0.2102 -0.0921  0.0032
  401loPI   C1A 6407   5.199   9.701   9.941 -0.0433  0.3273  0.1723
  401loPI   C2A 6408   5.509   9.943   9.663  0.0706 -0.0998  0.0552
  401loPI   C3A 6409   5.506   9.951   9.203 -0.3244  0.0007  0.2612
  401loPI   C4A 6410   5.632   9.769   8.863 -0.1683 -0.0534  0.4535
  401loPI   C5A 6411   5.746   9.617   8.498 -0.2313 -0.1212  0.3946
  401loPI   C6A 6412   6.038   9.433   8.192  0.1141  0.1051 -0.1497
  401loPI   C1B 6413   4.720   9.683   9.873  0.0934 -0.1025  0.0921
  401loPI   C2B 6414   4.905   9.571   9.501  0.1029  0.2420 -0.2178
  401loPI   C3B 6415   4.950   9.128   9.227  0.1006  0.3051  0.1086
  401loPI   C4B 6416   4.811   8.771   9.285  0.0825  0.1563 -0.3399
  402loPI    C1 6417  13.329   0.072  11.095 -0.3331  0.0707 -0.1272
  402loPI    C2 6418  13.369   0.394  11.328 -0.0558  0.0045 -0.0785
  402loPI    C3 6419  13.296   0.037  11.492  0.0568 -0.0280 -0.0985
  402loPI   PO4 6420  13.264   0.193  10.839  0.0476 -0.1737  0.2254
  402loPI   GL1 6421  13.326   0.384  10.455 -0.0686  0.0592  0.3682
  402loPI   GL2 6422  13.393   0.689  10.293  0.3011 -0.1261  0.2895
  402loPI   C1A 6423  13.187   0.255  10.079 -0.0661  0.0372  0.0095
  402loPI   C2A 6424  13.246   0.113   9.677 -0.3983  0.0652 -0.2284
  402loPI   C3A 6425  13.214  -0.069   9.210 -0.0059  0.1083  0.2467
  402loPI   C4A 6426  13.202  -0.028   8.746  0.2520 -0.2823 -0.0663
  402loPI   C5A 6427  13.037  -0.018   8.354  0.1316  0.0018 -0.1178
  402loPI   C6A 6428  13.165   0.091   7.929 -0.1761  0.0137  0.1577
  402loPI   C1B 6429  13.385   0.649   9.823 -0.1045  0.2224 -0.0332
  402loPI   C2B 6430  13.351   0.467   9.397 -0.4058  0.0423 -0.1343
  402loPI   C3B 6431  13.383   0.448   8.914  0.1202  0.1775 -0.1097
  402loPI   C4B 6432  13.570   0.545   8.619  0.0297 -0.0408 -0.1688
  403loPI    C1 6433   8.637   4.779  11.165 -0.3248 -0.1449  0.0487
  403loPI    C2 6434   8.707   4.402  11.280  0.0182 -0.0812  0.0594
  403loPI    C3 6435   8.496   4.648  11.516 -0.0175 -0.2016  0.1539
  403loPI   PO4 6436   8.478   4.873  10.931  0.2690  0.0257  0.0898
  403loPI   GL1 6437   8.397   4.929  10.618 -0.0691 -0.1150  0.1563
  403loPI   GL2 6438   8.401   4.644  10.365 -0.2608 -0.0447  0.1570
  403loPI   C1A 6439   8.150   5.124  10.235  0.3491  0.0839  0.1715
  403loPI   C2A 6440   8.030   5.163   9.824  0.0214  0.0463 -0.0403
  403loPI   C3A 6441   8.128   5.023   9.413 -0.0102 -0.1626  0.0108
  403loPI   C4A 6442   8.378   4.717   9.383 -0.1778  0.1967 -0.1745
  403loPI   C5A 6443   8.631   4.322   9.567  0.0870  0.0357  0.1488
  403loPI   C6A 6444   8.376   4.248   9.924 -0.1527  0.0123  0.2003
  403loPI   C1B 6445   8.464   4.762   9.901  0.0260 -0.0302  0.0841
  403loPI   C2B 6446   8.667   5.078   9.667 -0.0250 -0.0944  0.1144
  403loPI   C3B 6447   8.742   5.006   9.209 -0.1331 -0.0547  0.0743
  403loPI   C4B 6448   8.766   5.015   8.811 -0.0457 -0.1449  0.0967
  404loPI    C1 6449  10.318   5.967  10.932 -0.0112 -0.3853 -0.1568
  404loPI    C2 6450  10.680   5.877  11.077 -0.0746 -0.1111  0.1854
  404loPI    C3 6451  10.354   5.705  11.232 -0.1092 -0.1847  0.0330
  404loPI   PO4 6452  10.306   5.828  10.643  0.0468  0.1148  0.2882
  404loPI   GL1 6453  10.388   5.952  10.272 -0.1041  0.1482 -0.1094
  404loPI   GL2 6454  10.045   6.045  10.172  0.0737  0.0464  0.1245
  404loPI   C1A 6455  10.657   5.995   9.960  0.0607  0.0215 -0.0562
  404loPI   C2A 6456  10.661   6.108   9.504 -0.1511  0.1748 -0.1618
  404loPI   C3A 6457  10.691   6.202   9.077  0.2301 -0.2929  0.0568
  404loPI   C4A 6458  10.700   6.096   8.643  0.0929  0.0819 -0.2621
  404loPI   C5A 6459  10.711   5.838   8.322 -0.2103 -0.0140 -0.2482
  404loPI   C6A 6460  10.798   5.345   8.064 -0.2308  0.0447 -0.1091
  404loPI   C1B 6461  10.146   5.941   9.828 -0.2533 -0.0274  0.1395
  404loPI   C2B 6462  10.200   6.069   9.381  0.0033 -0.1588 -0.0226
  404loPI   C3B 6463  10.164   6.143   8.973  0.0155 -0.0987  0.1365
  404loPI   C4B 6464  10.219   6.042   8.556  0.1176 -0.3176 -0.0469
  405loPI    C1 6465   1.292   2.783  11.000  0.2307 -0.1452 -0.0612
  405loPI    C2 6466   0.953   2.762  11.211  0.1685 -0.1211 -0.1579
  405loPI    C3 6467   1.295   2.865  11.391  0.1351 -0.1988 -0.0491
  405loPI   PO4 6468   1.300   2.574  10.826  0.0184  0.3665 -0.2904
  405loPI   GL1 6469   1.206   2.340  10.538  0.0564 -0.0935 -0.0382
  405loPI   GL2 6470   0.928   2.419  10.384 -0.0705  0.0107 -0.0450
  405loPI   C1A 6471   1.356   2.287  10.221 -0.1891  0.1627 -0.3257
  405loPI   C2A 6472   1.412   2.232   9.791 -0.0032  0.0876 -0.0676
  405loPI   C3A 6473   1.534   2.190   9.407  0.1970  0.0107 -0.2280
  405loPI   C4A 6474   1.544   2.182   8.952  0.0961 -0.2523 -0.1410
  405loPI   C5A 6475   1.658   2.222   8.490 -0.0579 -0.1151  0.1257
  405loPI   C6A 6476   1.820   1.997   8.118  0.0488  0.0811  0.1954
  405loPI   C1B 6477   0.941   2.343   9.981 -0.3591 -0.1058  0.0665
  405loPI   C2B 6478   0.967   2.282   9.608  0.2545  0.0630 -0.2774
  405loPI   C3B 6479   1.099   2.351   9.203  0.1479  0.3512 -0.0215
  405loPI   C4B 6480   1.124   2.306   8.697 -0.0979  0.1079 -0.1228
  406loPI    C1 6481  17.154   3.301  10.885 -0.1336 -0.0342  0.2674
  406loPI    C2 6482  16.925   3.245  11.208  0.0549 -0.1253  0.3869
  406loPI    C3 6483  17.323   3.251  11.244  0.0730  0.0188  0.1787
  406loPI   PO4 6484  16.962   3.454  10.736  0.1648  0.0936 -0.0701
  406loPI   GL1 6485  16.739   3.239  10.416 -0.5088 -0.0075  0.0461
  406loPI   GL2 6486  16.988   2.975  10.335 -0.0647  0.1695 -0.1610
  406loPI   C1A 6487  16.446   3.160  10.067  0.0909  0.1821 -0.2609
  406loPI   C2A 6488  16.477   3.036   9.631 -0.0268  0.2748 -0.2220
  406loPI   C3A 6489  16.484   2.972   9.270  0.0851  0.2756  0.2230
  406loPI   C4A 6490  16.553   2.925   8.942  0.0345  0.5510 -0.1411
  406loPI   C5A 6491  16.558   3.016   8.485  0.3935  0.2083 -0.1748
  406loPI   C6A 6492  16.396   2.965   8.076  0.4107 -0.0844 -0.0705
  406loPI   C1B 6493  16.957   3.179   9.975 -0.0153  0.3513 -0.3582
  406loPI   C2B 6494  16.975   3.099   9.511 -0.0821  0.2045  0.0688
  406loPI   C3B 6495  16.991   3.186   9.029 -0.0906  0.1204 -0.1471
  406loPI   C4B 6496  17.072   3.291   8.635 -0.2250  0.1240 -0.0506
  407loPI    C1 6497   3.545   3.804  11.272  0.0434 -0.2299 -0.1373
  407loPI    C2 6498   3.339   3.991  11.560  0.1123 -0.0557 -0.1999
  407loPI    C3 6499   3.637   3.742  11.656  0.1468  0.0156 -0.1200
  407loPI   PO4 6500   3.632   4.012  11.076  0.0606 -0.1106  0.0275
  407loPI   GL1 6501   3.642   3.985  10.685  0.1540 -0.3769  0.2972
  407loPI   GL2 6502   3.992   4.052  10.619  0.0455  0.0765  0.0544
  407loPI   C1A 6503   3.483   3.834  10.354 -0.1748  0.2057 -0.1419
  407loPI   C2A 6504   3.442   3.903   9.901 -0.0730 -0.1263 -0.0596
  407loPI   C3A 6505   3.264   3.877   9.495 -0.0238  0.0126  0.0240
  407loPI   C4A 6506   3.050   4.127   9.246  0.3368  0.0257  0.3861
  407loPI   C5A 6507   2.966   4.251   8.838  0.0024 -0.0034 -0.2873
  407loPI   C6A 6508   2.732   4.327   8.400 -0.2144  0.0108 -0.0698
  407loPI   C1B 6509   3.950   4.109  10.195 -0.0071 -0.0280 -0.2034
  407loPI   C2B 6510   3.910   4.097   9.788 -0.2044 -0.2112  0.1088
  407loPI   C3B 6511   3.933   4.044   9.257 -0.0025  0.0250 -0.1279
  407loPI   C4B 6512   3.895   4.058   8.806 -0.0375  0.2687 -0.4235
  408loPI    C1 6513   2.189  16.991  11.532 -0.0441 -0.2076  0.0081
  408loPI    C2 6514   1.810  16.995  11.405 -0.0859 -0.0084  0.1352
  408loPI    C3 6515   1.893  17.068  11.789  0.0901  0.0631  0.0849
  408loPI   PO4 6516   2.272  16.871  11.250  0.0643 -0.1344 -0.1020
  408loPI   GL1 6517   2.164  16.980  10.838  0.2439 -0.1148  0.2760
  408loPI   GL2 6518   2.294  17.345  10.749  0.2252 -0.1710 -0.1546
  408loPI   C1A 6519   2.193  16.948  10.435 -0.0338 -0.1722 -0.2405
  408loPI   C2A 6520   2.300  16.887   9.997  0.1072 -0.0211 -0.2707
  408loPI   C3A 6521   2.343  16.935   9.632  0.0845  0.1901 -0.1943
  408loPI   C4A 6522   2.370  16.941   9.132  0.1137  0.0173 -0.1460
  408loPI   C5A 6523   2.424  16.830   8.841 -0.3659  0.1678 -0.0301
  408loPI   C6A 6524   2.767  16.807   8.473  0.0314 -0.1436  0.1475
  408loPI   C1B 6525   2.554  17.354  10.318  0.1599 -0.0793  0.0067
  408loPI   C2B 6526   2.648  17.313   9.860  0.0370  0.0225 -0.3294
  408loPI   C3B 6527   2.706  17.339   9.412 -0.0064 -0.2282 -0.1318
  408loPI   C4B 6528   2.773  17.304   8.949 -0.1396  0.1822 -0.0971
  409loPI    C1 6529  14.852   6.188  10.538 -0.1126  0.2176 -0.0512
  409loPI    C2 6530  15.195   6.394  10.559  0.0275 -0.0287  0.1271
  409loPI    C3 6531  14.967   6.352  10.885 -0.0503 -0.0719  0.0675
  409loPI   PO4 6532  14.861   6.034  10.349  0.1235 -0.2945 -0.1071
  409loPI   GL1 6533  14.787   6.080   9.894  0.0533  0.0565  0.2233
  409loPI   GL2 6534  15.037   6.324   9.763 -0.4078  0.1311 -0.0238
  409loPI   C1A 6535  14.676   6.185   9.520  0.0641  0.0194 -0.0819
  409loPI   C2A 6536  14.597   6.084   9.085  0.1431  0.1946 -0.1019
  409loPI   C3A 6537  14.485   5.971   8.674 -0.1050 -0.1245 -0.2011
  409loPI   C4A 6538  14.329   5.970   8.323  0.0397  0.1441 -0.0389
  409loPI   C5A 6539  13.969   5.828   8.106 -0.1284  0.1829  0.2075
  409loPI   C6A 6540  13.530   6.085   8.091 -0.0388 -0.0934  0.3266
  409loPI   C1B 6541  15.055   6.477   9.361  0.1424  0.2277 -0.4227
  409loPI   C2B 6542  15.015   6.292   8.980 -0.0183  0.0560  0.0532
  409loPI   C3B 6543  15.082   5.926   8.812  0.2072  0.4866  0.1945
  409loPI   C4B 6544  15.309   5.585   8.614  0.1991 -0.1388  0.1017
  410loPI    C1 6545   3.225   8.746  10.958  0.0223 -0.0417  0.1014
  410loPI    C2 6546   3.481   8.450  10.875  0.0626  0.0078  0.0488
  410loPI    C3 6547   3.320   8.479  11.240 -0.0803 -0.1844  0.0024
  410loPI   PO4 6548   3.419   8.946  10.700 -0.2824  0.2632  0.2122
  410loPI   GL1 6549   3.218   9.125  10.309  0.3574  0.0046 -0.0275
  410loPI   GL2 6550   3.134   9.393  10.257  0.0223 -0.1264  0.1035
  410loPI   C1A 6551   3.049   8.900   9.972  0.3892  0.0008  0.2879
  410loPI   C2A 6552   3.264   8.746   9.658  0.1848  0.3012 -0.1929
  410loPI   C3A 6553   3.416   8.594   9.223  0.0746  0.2798 -0.1801
  410loPI   C4A 6554   3.669   8.556   8.886 -0.0094 -0.1812 -0.3095
  410loPI   C5A 6555   3.630   8.511   8.443 -0.0808  0.3542 -0.5797
  410loPI   C6A 6556   3.216   8.401   8.271 -0.1201  0.0169 -0.2655
  410loPI   C1B 6557   2.985   9.331   9.792  0.0530  0.1712 -0.3812
  410loPI   C2B 6558   3.044   9.124   9.454  0.0318  0.2712 -0.1927
  410loPI   C3B 6559   2.997   8.953   9.082 -0.2412 -0.0425 -0.3116
  410loPI   C4B 6560   3.147   8.644   8.792 -0.2061 -0.0560  0.2118
  411loPI    C1 6561   0.165   7.169  10.266  0.2261  0.0438  0.0437
  411loPI    C2 6562   0.008   7.369  10.576  0.1966  0.0305  0.0375
  411loPI    C3 6563   0.053   6.972  10.596 -0.0582 -0.0067 -0.0794
  411loPI   PO4 6564   0.033   7.215  10.060  0.0198 -0.0108  0.0007
  411loPI   GL1 6565   0.037   6.972   9.685 -0.1983  0.0539 -0.0829
  411loPI   GL2 6566  -0.336   6.978   9.652 -0.1777  0.2084  0.0675
  411loPI   C1A 6567  -0.101   7.152   9.326 -0.1933  0.1432  0.2739
  411loPI   C2A 6568  -0.174   7.401   8.881 -0.2078  0.2868  0.1438
  411loPI   C3A 6569  -0.135   7.227   8.484  0.3011  0.0424  0.0094
  411loPI   C4A 6570  -0.093   6.854   8.153 -0.0519  0.2529 -0.1132
  411loPI   C5A 6571  -0.163   6.618   7.752 -0.0099 -0.1220 -0.1519
  411loPI   C6A 6572  -0.330   6.258   7.636 -0.3685  0.1072  0.1122
  411loPI   C1B 6573  -0.509   6.813   9.250 -0.0427  0.0096  0.0737
  411loPI   C2B 6574  -0.778   6.649   8.938  0.0663 -0.2575 -0.2102
  411loPI   C3B 6575  -1.057   6.612   8.640 -0.0485 -0.2059  0.1362
  411loPI   C4B 6576  -1.108   6.528   8.178  0.1105  0.3199 -0.2305
  412loPI    C1 6577  17.164  12.538  11.468 -0.1023  0.2080  0.2137
  412loPI    C2 6578  17.068  12.151  11.490  0.1349  0.1471  0.2119
  412loPI    C3 6579  17.401  12.284  11.666  0.2327  0.2886 -0.0732
  412loPI   PO4 6580  17.072  12.608  11.128  0.1532  0.1145 -0.0721
  412loPI   GL1 6581  17.081  12.445  10.703 -0.1373  0.2846 -0.1616
  412loPI   GL2 6582  16.995  12.118  10.658  0.0959  0.2398  0.2654
  412loPI   C1A 6583  17.074  12.694  10.278  0.3775  0.1137  0.0451
  412loPI   C2A 6584  17.102  12.675   9.742  0.0596 -0.1294  0.2593
  412loPI   C3A 6585  17.057  12.756   9.379  0.0083 -0.2356 -0.0178
  412loPI   C4A 6586  17.128  12.773   8.993  0.1449  0.1574  0.1682
  412loPI   C5A 6587  17.321  12.661   8.579  0.2431  0.0136  0.4076
  412loPI   C6A 6588  17.698  12.371   8.474  0.1135  0.1736  0.0022
  412loPI   C1B 6589  17.156  12.194  10.267 -0.1912 -0.0550 -0.0173
  412loPI   C2B 6590  17.201  12.188   9.832 -0.2253 -0.0093 -0.1543
  412loPI   C3B 6591  17.344  12.297   9.428  0.2069  0.1468  0.0144
  412loPI   C4B 6592  17.495  12.326   9.015 -0.4084  0.0061  0.1799
  413loPI    C1 6593   5.549   0.013  11.090  0.0661  0.0458  0.2374
  413loPI    C2 6594   5.518   0.345  10.870  0.0688 -0.0509  0.0893
  413loPI    C3 6595   5.197   0.199  11.059  0.0040 -0.1169 -0.0706
  413loPI   PO4 6596   5.681  -0.189  10.944 -0.3830 -0.1226 -0.1257
  413loPI   GL1 6597   5.802  -0.225  10.569 -0.1460  0.2307  0.1422
  413loPI   GL2 6598   5.682   0.017  10.415  0.1026  0.1461  0.0582
  413loPI   C1A 6599   5.911  -0.414  10.200  0.0432  0.0390  0.0293
  413loPI   C2A 6600   5.936  -0.468   9.714  0.1613  0.1505  0.2727
  413loPI   C3A 6601   5.940  -0.375   9.248  0.0359 -0.0382 -0.1604
  413loPI   C4A 6602   6.098  -0.412   8.832  0.3292  0.0237  0.1555
  413loPI   C5A 6603   6.431  -0.627   8.512  0.4354 -0.0177 -0.4811
  413loPI   C6A 6604   6.726  -0.953   8.536 -0.0934  0.2019 -0.0605
  413loPI   C1B 6605   5.593  -0.023   9.989 -0.1566 -0.1907  0.2329
  413loPI   C2B 6606   5.541  -0.139   9.595  0.2288 -0.1108 -0.2733
  413loPI   C3B 6607   5.743   0.065   9.272  0.1553  0.0654  0.0836
  413loPI   C4B 6608   5.743  -0.051   8.811 -0.0013 -0.2494  0.2332
  414loPI    C1 6609  15.405  11.811  10.898 -0.3318  0.0810  0.0054
  414loPI    C2 6610  15.683  11.881  11.177 -0.2668  0.1530 -0.0769
  414loPI    C3 6611  15.300  11.832  11.284 -0.2731  0.3749  0.0077
  414loPI   PO4 6612  15.453  11.691  10.719 -0.2791 -0.0418 -0.1116
  414loPI   GL1 6613  15.412  11.818  10.290 -0.0974  0.0223  0.0891
  414loPI   GL2 6614  15.615  12.042  10.383  0.0021 -0.0604 -0.0962
  414loPI   C1A 6615  15.319  12.012   9.932  0.3002  0.1111  0.2089
  414loPI   C2A 6616  15.421  12.267   9.628 -0.2911 -0.1051 -0.1678
  414loPI   C3A 6617  15.659  12.475   9.390 -0.1290 -0.1845  0.3582
  414loPI   C4A 6618  15.939  12.478   9.081  0.2053 -0.1662  0.1780
  414loPI   C5A 6619  15.623  12.413   8.704  0.1604  0.2320  0.3051
  414loPI   C6A 6620  15.770  12.138   8.407 -0.0413 -0.0658  0.0355
  414loPI   C1B 6621  15.797  12.309  10.056 -0.1166  0.0515  0.0553
  414loPI   C2B 6622  15.794  12.667   9.914 -0.2050 -0.2151 -0.1498
  414loPI   C3B 6623  15.924  12.839   9.581 -0.2561  0.0144  0.2465
  414loPI   C4B 6624  16.196  13.059   9.285 -0.0454 -0.0617 -0.3128
  415loPI    C1 6625   9.250  14.328  10.765  0.0365  0.0780 -0.1389
  415loPI    C2 6626   9.612  14.337  10.936 -0.1078  0.1376  0.1701
  415loPI    C3 6627   9.348  14.053  11.038 -0.1671  0.1232 -0.0182
  415loPI   PO4 6628   9.165  14.519  10.725  0.0788  0.1362  0.1914
  415loPI   GL1 6629   9.141  14.789  10.352 -0.0959  0.1359 -0.0867
  415loPI   GL2 6630   8.903  15.121  10.267 -0.1512  0.1766  0.3571
  415loPI   C1A 6631   9.280  14.677   9.975  0.1655  0.2539  0.1975
  415loPI   C2A 6632   9.471  14.710   9.542 -0.0398 -0.0262 -0.1032
  415loPI   C3A 6633   9.669  14.651   9.191  0.0168  0.0390 -0.1670
  415loPI   C4A 6634   9.705  14.665   8.847  0.2960 -0.0941 -0.1067
  415loPI   C5A 6635   9.396  14.658   8.528  0.0527 -0.1606  0.1361
  415loPI   C6A 6636   9.389  14.811   8.057  0.2444  0.1005 -0.0283
  415loPI   C1B 6637   8.800  15.039   9.750 -0.2228  0.0079  0.0317
  415loPI   C2B 6638   8.972  15.138   9.386 -0.0213 -0.2258 -0.0185
  415loPI   C3B 6639   9.013  15.209   8.863 -0.0711 -0.0949 -0.1129
  415loPI   C4B 6640   8.916  15.502   8.574  0.1630  0.0136 -0.0226
  416loPI    C1 6641  12.257  15.924  10.812  0.0794  0.0145  0.1471
  416loPI    C2 6642  12.193  15.983  11.202  0.0324 -0.0497  0.1492
  416loPI    C3 6643  11.898  16.047  10.939 -0.0284 -0.2990  0.1543
  416loPI   PO4 6644  12.478  15.717  10.750 -0.2015  0.2084  0.2726
  416loPI   GL1 6645  12.676  15.543  10.496  0.2993 -0.0274 -0.0116
  416loPI   GL2 6646  12.936  15.464  10.558 -0.1418  0.0534 -0.1751
  416loPI   C1A 6647  12.576  15.631  10.059 -0.0405 -0.1910 -0.0163
  416loPI   C2A 6648  12.577  15.536   9.626 -0.0108 -0.0904  0.2981
  416loPI   C3A 6649  12.589  15.509   9.176  0.1421 -0.1447 -0.0799
  416loPI   C4A 6650  12.630  15.308   8.801  0.0718  0.0517  0.0789
  416loPI   C5A 6651  12.618  15.063   8.448 -0.2977 -0.0039 -0.1094
  416loPI   C6A 6652  12.850  14.938   8.118 -0.0674  0.0409  0.0102
  416loPI   C1B 6653  13.046  15.323  10.128 -0.2663 -0.0904 -0.2585
  416loPI   C2B 6654  13.297  15.228   9.779 -0.1124 -0.0104  0.1409
  416loPI   C3B 6655  13.524  15.184   9.448  0.1848 -0.1891 -0.0149
  416loPI   C4B 6656  13.458  15.102   9.060 -0.1413  0.3979  0.3701
  417loPI    C1 6657   4.451  17.051  11.466  0.1252  0.1973  0.1244
  417loPI    C2 6658   4.088  17.050  11.634  0.0346 -0.0627 -0.0671
  417loPI    C3 6659   4.364  16.786  11.753  0.1471  0.1031  0.0446
  417loPI   PO4 6660   4.340  17.102  11.225  0.0075  0.1932 -0.0730
  417loPI   GL1 6661   4.433  16.988  10.814 -0.0637  0.0581 -0.2242
  417loPI   GL2 6662   4.725  17.096  10.741 -0.1688  0.1125  0.0121
  417loPI   C1A 6663   4.365  16.651  10.375  0.1435 -0.0361 -0.1058
  417loPI   C2A 6664   4.329  16.654   9.847 -0.3890 -0.4077 -0.2445
  417loPI   C3A 6665   4.414  16.508   9.395  0.1474  0.0094  0.0222
  417loPI   C4A 6666   4.359  16.413   8.978  0.1861 -0.0621  0.1992
  417loPI   C5A 6667   4.297  16.449   8.542  0.0235 -0.1439 -0.3267
  417loPI   C6A 6668   3.837  16.487   8.651 -0.3586 -0.0163  0.0046
  417loPI   C1B 6669   4.688  17.004  10.372 -0.1279  0.0042 -0.0496
  417loPI   C2B 6670   4.699  17.022   9.990  0.1595 -0.2277 -0.0806
  417loPI   C3B 6671   4.683  16.922   9.564  0.2323  0.1412 -0.1270
  417loPI   C4B 6672   4.690  16.819   9.166 -0.1120 -0.1420  0.2067
  418loPI    C1 6673   8.255   6.897  10.956 -0.1015  0.3110 -0.1258
  418loPI    C2 6674   8.442   7.250  10.969 -0.0168  0.2579  0.1553
  418loPI    C3 6675   8.504   6.980  11.258 -0.1578  0.0512 -0.0051
  418loPI   PO4 6676   8.233   6.848  10.709 -0.3765 -0.1587  0.1050
  418loPI   GL1 6677   8.290   6.996  10.368  0.1812 -0.0053 -0.1340
  418loPI   GL2 6678   7.985   7.056  10.191  0.1355 -0.0038 -0.0165
  418loPI   C1A 6679   8.531   7.179  10.095 -0.1423 -0.1312 -0.0321
  418loPI   C2A 6680   8.598   7.109   9.641 -0.1774  0.0081 -0.1456
  418loPI   C3A 6681   8.726   7.309   9.175  0.1629 -0.1146  0.2290
  418loPI   C4A 6682   8.814   7.410   8.717 -0.2587  0.0072  0.1810
  418loPI   C5A 6683   8.899   7.521   8.232 -0.1490  0.1093  0.0515
  418loPI   C6A 6684   8.950   7.467   7.747 -0.1855  0.0393 -0.1691
  418loPI   C1B 6685   8.090   7.178   9.796  0.0399  0.5591 -0.0735
  418loPI   C2B 6686   8.132   7.283   9.336  0.0707  0.2555 -0.3109
  418loPI   C3B 6687   8.329   7.295   8.816  0.0119  0.1929 -0.2741
  418loPI   C4B 6688   8.425   7.483   8.429 -0.1437  0.0757 -0.2190
  419loPI    C1 6689  17.002  16.680  11.157  0.0401 -0.0548  0.0397
  419loPI    C2 6690  17.381  16.720  11.038  0.0178  0.0195 -0.0072
  419loPI    C3 6691  17.209  17.007  11.256  0.0160 -0.0545  0.0897
  419loPI   PO4 6692  16.845  16.655  10.949 -0.0727 -0.2010 -0.1162
  419loPI   GL1 6693  17.130  16.691  10.579  0.0920  0.2597  0.2263
  419loPI   GL2 6694  16.823  16.918  10.421 -0.0336  0.0006 -0.2063
  419loPI   C1A 6695  17.128  16.602  10.101 -0.3304  0.3636 -0.5024
  419loPI   C2A 6696  17.084  16.579   9.686 -0.3434  0.1982  0.2526
  419loPI   C3A 6697  17.081  16.584   9.249  0.3906  0.0660 -0.0711
  419loPI   C4A 6698  17.240  16.649   8.762  0.1157 -0.1746  0.0842
  419loPI   C5A 6699  17.262  16.565   8.324  0.1708  0.0424 -0.1897
  419loPI   C6A 6700  17.304  16.334   7.939  0.0387 -0.1166 -0.1057
  419loPI   C1B 6701  16.881  17.029  10.007 -0.0527  0.0230  0.0657
  419loPI   C2B 6702  16.912  17.172   9.588  0.0197  0.2099  0.1819
  419loPI   C3B 6703  17.126  17.077   9.286 -0.2949 -0.0805 -0.0855
  419loPI   C4B 6704  17.164  17.218   8.888  0.1273  0.0310 -0.0486
  420loPI    C1 6705   7.347   6.483  10.991 -0.0695  0.0839 -0.0288
  420loPI    C2 6706   7.439   6.111  10.875 -0.2033  0.0825 -0.1328
  420loPI    C3 6707   7.655   6.291  11.160 -0.0612 -0.0280 -0.1695
  420loPI   PO4 6708   7.286   6.634  10.766  0.0894  0.1386  0.0177
  420loPI   GL1 6709   7.158   6.500  10.391 -0.0368 -0.0498  0.0291
  420loPI   GL2 6710   7.461   6.306  10.313 -0.2191  0.2912  0.0245
  420loPI   C1A 6711   7.332   6.619   9.972  0.2273 -0.0098  0.0112
  420loPI   C2A 6712   7.342   6.839   9.589 -0.0403  0.2975 -0.0887
  420loPI   C3A 6713   7.437   6.826   9.089 -0.0529 -0.3524 -0.1172
  420loPI   C4A 6714   7.418   6.853   8.731  0.1510  0.2007 -0.2326
  420loPI   C5A 6715   7.608   6.997   8.376  0.0683  0.0598 -0.0521
  420loPI   C6A 6716   7.413   7.150   7.955 -0.1184 -0.0311 -0.0972
  420loPI   C1B 6717   7.587   6.264   9.779 -0.1134 -0.0508  0.1732
  420loPI   C2B 6718   7.891   6.338   9.494  0.3141  0.2610 -0.2652
  420loPI   C3B 6719   7.774   6.414   9.145 -0.1710 -0.0536 -0.1991
  420loPI   C4B 6720   7.734   6.476   8.784 -0.0753 -0.1469  0.0625
  421loPI    C1 6721  14.415  15.789  10.946  0.0316 -0.0131  0.1422
  421loPI    C2 6722  14.224  15.451  11.043  0.0923 -0.0410  0.1645
  421loPI    C3 6723  14.151  15.787  11.247 -0.0256 -0.0220  0.0924
  421loPI   PO4 6724  14.378  15.848  10.710 -0.0635  0.1769  0.1327
  421loPI   GL1 6725  14.387  15.903  10.327 -0.0732 -0.1794  0.3737
  421loPI   GL2 6726  13.996  15.847  10.207  0.3438 -0.1066 -0.1621
  421loPI   C1A 6727  14.426  15.911   9.941  0.1571  0.2011  0.0376
  421loPI   C2A 6728  14.477  15.974   9.528 -0.1403  0.0796 -0.0639
  421loPI   C3A 6729  14.517  16.089   9.056 -0.1929  0.0109 -0.0415
  421loPI   C4A 6730  14.684  16.227   8.672 -0.0966 -0.1397  0.0702
  421loPI   C5A 6731  14.999  16.398   8.485 -0.2151  0.1704 -0.3007
  421loPI   C6A 6732  15.445  16.561   8.277  0.1173  0.4609  0.1644
  421loPI   C1B 6733  13.986  15.897   9.820 -0.0717  0.0782 -0.0483
  421loPI   C2B 6734  13.912  15.952   9.386 -0.0090  0.2172 -0.0150
  421loPI   C3B 6735  13.947  16.067   8.997 -0.1554  0.0558  0.0979
  421loPI   C4B 6736  13.910  16.260   8.497 -0.0656  0.1758 -0.0981
  422loPI    C1 6737   0.074   4.269  10.816 -0.1464 -0.0741 -0.0833
  422loPI    C2 6738  -0.180   4.563  10.912  0.1185  0.1544 -0.0697
  422loPI    C3 6739  -0.122   4.258  11.164 -0.0443  0.1668 -0.0161
  422loPI   PO4 6740   0.120   4.255  10.563  0.0228 -0.1733 -0.1185
  422loPI   GL1 6741  -0.002   4.188  10.207 -0.0969 -0.1931  0.2599
  422loPI   GL2 6742   0.291   4.412  10.084  0.0358 -0.0733 -0.0977
  422loPI   C1A 6743   0.013   4.020   9.769 -0.1110 -0.0168 -0.2380
  422loPI   C2A 6744   0.100   3.966   9.368  0.0757  0.0089  0.1882
  422loPI   C3A 6745   0.239   3.836   8.943  0.0506  0.1433 -0.1464
  422loPI   C4A 6746   0.200   3.888   8.506 -0.0758 -0.0409 -0.2239
  422loPI   C5A 6747   0.375   3.869   8.124  0.2691  0.3436  0.1244
  422loPI   C6A 6748   0.348   3.849   7.723 -0.0046  0.2350  0.0879
  422loPI   C1B 6749   0.397   4.284   9.619 -0.1308  0.1499 -0.5046
  422loPI   C2B 6750   0.485   4.289   9.194 -0.3768 -0.0579 -0.0772
  422loPI   C3B 6751   0.532   4.239   8.741 -0.0656  0.2744 -0.0837
  422loPI   C4B 6752   0.495   4.302   8.379  0.0262  0.1528 -0.2039
  423loPI    C1 6753   3.118   3.134  11.162  0.1218 -0.0980  0.1683
  423loPI    C2 6754   3.177   3.507  11.295 -0.2434  0.0818 -0.1511
  423loPI    C3 6755   2.999   3.236  11.530 -0.0343  0.1235  0.0591
  423loPI   PO4 6756   3.037   3.156  10.961  0.0039 -0.0535 -0.0203
  423loPI   GL1 6757   3.146   2.980  10.514 -0.0938  0.1678 -0.0525
  423loPI   GL2 6758   3.473   3.223  10.452 -0.1095  0.0369  0.0344
  423loPI   C1A 6759   3.191   2.968  10.071  0.1439 -0.0158 -0.0300
  423loPI   C2A 6760   3.143   2.881   9.669  0.0274 -0.0996 -0.2136
  423loPI   C3A 6761   3.193   2.795   9.274 -0.0987 -0.3425  0.0607
  423loPI   C4A 6762   3.282   2.533   8.886 -0.0787 -0.0773  0.1957
  423loPI   C5A 6763   3.243   2.164   8.542 -0.0915 -0.0071  0.0465
  423loPI   C6A 6764   3.172   1.771   8.420  0.1059 -0.1103 -0.0435
  423loPI   C1B 6765   3.616   3.176  10.125 -0.1603 -0.2460  0.1820
  423loPI   C2B 6766   3.692   3.006   9.675 -0.0128 -0.1474 -0.2216
  423loPI   C3B 6767   3.632   2.997   9.332 -0.1845 -0.1358 -0.2485
  423loPI   C4B 6768   3.724   2.711   9.012 -0.0600 -0.0581 -0.0002
  424loPI    C1 6769  13.845   8.187  10.672  0.2543 -0.0961  0.1715
  424loPI    C2 6770  13.898   8.583  10.693 -0.2289 -0.0109 -0.0686
  424loPI    C3 6771  13.881   8.365  11.028 -0.2439  0.2120  0.0774
  424loPI   PO4 6772  13.961   8.031  10.441  0.0231 -0.0612 -0.1100
  424loPI   GL1 6773  14.167   7.911  10.117 -0.0845 -0.3002  0.2493
  424loPI   GL2 6774  14.315   8.140  10.013  0.0474  0.2253 -0.0084
  424loPI   C1A 6775  13.953   7.878   9.771 -0.0761  0.2474 -0.4196
  424loPI   C2A 6776  14.059   7.866   9.303 -0.2833 -0.1506 -0.0896
  424loPI   C3A 6777  14.022   7.872   8.885  0.3150  0.1040  0.2059
  424loPI   C4A 6778  13.923   7.977   8.410 -0.1039  0.1295  0.0001
  424loPI   C5A 6779  14.012   8.136   8.036 -0.1680  0.0310  0.1607
  424loPI   C6A 6780  14.025   8.507   7.718  0.0147  0.1749  0.0972
  424loPI   C1B 6781  14.286   8.324   9.743  0.2958  0.2115  0.0848
  424loPI   C2B 6782  14.162   8.349   9.285  0.2086 -0.1790  0.0726
  424loPI   C3B 6783  14.043   8.577   8.927  0.0274 -0.0266 -0.4497
  424loPI   C4B 6784  14.163   8.357   8.504 -0.1429 -0.1202  0.0423
  425loPI    C1 6785   1.900  13.036  10.736  0.0641  0.2192  0.1945
  425loPI    C2 6786   2.271  12.929  10.841  0.1399  0.3279  0.0413
  425loPI    C3 6787   1.964  12.850  11.084  0.2397  0.0797  0.0898
  425loPI   PO4 6788   1.884  13.059  10.498 -0.3720  0.2327  0.1726
  425loPI   GL1 6789   1.980  13.332  10.192  0.0948 -0.1063 -0.1901
  425loPI   GL2 6790   1.681  13.364  10.196  0.1326 -0.1634 -0.0459
  425loPI   C1A 6791   2.356  13.434  10.033 -0.2409 -0.0862 -0.0614
  425loPI   C2A 6792   2.674  13.559   9.762  0.0893 -0.1569 -0.0800
  425loPI   C3A 6793   2.576  13.616   9.304  0.2540  0.3747 -0.0381
  425loPI   C4A 6794   2.592  13.655   8.843 -0.2742  0.4041  0.1149
  425loPI   C5A 6795   2.522  13.876   8.404 -0.0588  0.1746  0.0482
  425loPI   C6A 6796   2.148  13.974   8.185 -0.1729  0.0202 -0.1569
  425loPI   C1B 6797   1.810  13.260   9.747 -0.0572 -0.1880 -0.2873
  425loPI   C2B 6798   2.032  13.023   9.394 -0.2424 -0.1470 -0.0495
  425loPI   C3B 6799   1.890  12.934   8.892 -0.1484  0.1994 -0.1682
  425loPI   C4B 6800   2.169  12.619   8.587  0.1071  0.0437 -0.0628
  426loPI    C1 6801   0.240  16.433  11.268  0.0433  0.1708 -0.1699
  426loPI    C2 6802   0.357  16.815  11.257  0.3931  0.0636 -0.3086
  426loPI    C3 6803   0.395  16.604  11.595 -0.1350  0.2472 -0.1240
  426loPI   PO4 6804   0.288  16.358  11.012  0.2187 -0.1706 -0.1457
  426loPI   GL1 6805   0.124  16.524  10.648 -0.0664 -0.1458  0.2838
  426loPI   GL2 6806   0.057  16.156  10.630 -0.1000 -0.0263 -0.1444
  426loPI   C1A 6807   0.043  16.437  10.163  0.0826 -0.0497 -0.0883
  426loPI   C2A 6808   0.066  16.437   9.725 -0.0493 -0.2221 -0.1098
  426loPI   C3A 6809   0.122  16.536   9.324  0.0598 -0.0850  0.0357
  426loPI   C4A 6810   0.258  16.441   8.862  0.2290  0.1960 -0.0558
  426loPI   C5A 6811   0.374  16.627   8.457 -0.0114 -0.0619 -0.1368
  426loPI   C6A 6812   0.630  16.792   8.085  0.2080  0.0187  0.1813
  426loPI   C1B 6813   0.143  15.947  10.183 -0.1328  0.1875  0.0479
  426loPI   C2B 6814   0.216  15.886   9.681  0.0317 -0.0492 -0.1672
  426loPI   C3B 6815   0.320  16.054   9.311 -0.0194  0.1117  0.2465
  426loPI   C4B 6816   0.373  15.916   8.946  0.0450  0.0676  0.3062
  427loPI    C1 6817  16.155   4.902  10.954 -0.1534 -0.0445  0.1099
  427loPI    C2 6818  15.902   4.620  11.082 -0.0024 -0.0509  0.4037
  427loPI    C3 6819  16.235   4.699  11.289  0.1537  0.0735  0.1118
  427loPI   PO4 6820  16.083   4.846  10.678 -0.0972  0.2316  0.2404
  427loPI   GL1 6821  16.249   4.681  10.318 -0.0904  0.1117  0.3924
  427loPI   GL2 6822  16.370   4.906  10.228  0.0201 -0.1252 -0.0021
  427loPI   C1A 6823  16.398   4.460   9.898 -0.2759  0.0383  0.0457
  427loPI   C2A 6824  16.366   4.453   9.450 -0.1731  0.1376  0.1322
  427loPI   C3A 6825  16.441   4.337   8.953 -0.0245 -0.1677 -0.2034
  427loPI   C4A 6826  16.425   4.303   8.550 -0.2729 -0.1305  0.3056
  427loPI   C5A 6827  16.575   4.123   8.191 -0.0402 -0.2222  0.0547
  427loPI   C6A 6828  16.629   3.731   7.812  0.2159 -0.3017 -0.1431
  427loPI   C1B 6829  16.482   4.946   9.804  0.2538  0.2309  0.0691
  427loPI   C2B 6830  16.500   4.933   9.463  0.2214  0.2347 -0.0263
  427loPI   C3B 6831  16.479   4.889   9.033 -0.0892 -0.1042  0.0848
  427loPI   C4B 6832  16.774   4.890   8.807 -0.1331 -0.0382 -0.1068
  428loPI    C1 6833   5.558   6.385  10.897 -0.0986  0.0933 -0.2363
  428loPI    C2 6834   5.936   6.513  10.916 -0.0040 -0.2005 -0.0578
  428loPI    C3 6835   5.720   6.478  11.251 -0.2173  0.0378 -0.1667
  428loPI   PO4 6836   5.518   6.309  10.584  0.0370 -0.1216 -0.2863
  428loPI   GL1 6837   5.437   6.361  10.179  0.2794 -0.4241  0.2397
  428loPI   GL2 6838   5.676   6.638  10.130  0.0631 -0.1259  0.1497
  428loPI   C1A 6839   5.383   6.394   9.780 -0.0606  0.2023 -0.0181
  428loPI   C2A 6840   5.651   6.240   9.433  0.0078 -0.1679  0.0789
  428loPI   C3A 6841   5.728   6.161   8.984  0.1409  0.0358  0.0586
  428loPI   C4A 6842   5.750   6.142   8.640 -0.1467 -0.2207  0.0113
  428loPI   C5A 6843   6.024   6.095   8.340 -0.3659 -0.1487  0.2795
  428loPI   C6A 6844   6.271   6.084   8.014 -0.1924 -0.2085  0.0585
  428loPI   C1B 6845   5.797   6.648   9.693 -0.0158 -0.0441 -0.1221
  428loPI   C2B 6846   5.819   6.683   9.240 -0.2224 -0.2580 -0.0026
  428loPI   C3B 6847   5.984   6.632   8.847  0.0355 -0.3940  0.2780
  428loPI   C4B 6848   5.906   6.665   8.471  0.1814  0.1059  0.0622
  429loPI    C1 6849  16.319  17.323  11.072 -0.1283 -0.1107 -0.2455
  429loPI    C2 6850  16.168  17.574  11.344  0.1101 -0.0756 -0.1433
  429loPI    C3 6851  16.346  17.235  11.461  0.1615 -0.0889 -0.2589
  429loPI   PO4 6852  16.371  17.519  10.838  0.1653  0.0470 -0.0339
  429loPI   GL1 6853  16.377  17.692  10.455 -0.0946 -0.0190 -0.0647
  429loPI   GL2 6854  16.037  17.703  10.497 -0.0682 -0.1253  0.1517
  429loPI   C1A 6855  16.605  17.887  10.241 -0.2224 -0.2124  0.0755
  429loPI   C2A 6856  16.460  18.071   9.871 -0.0876  0.2811 -0.0482
  429loPI   C3A 6857  16.523  18.149   9.405 -0.0397 -0.2512  0.2817
  429loPI   C4A 6858  16.647  18.120   8.959 -0.0378  0.0604 -0.3516
  429loPI   C5A 6859  16.529  17.966   8.581  0.1550  0.1550  0.0747
  429loPI   C6A 6860  16.713  18.071   8.094  0.3095  0.1700  0.0550
  429loPI   C1B 6861  16.164  17.606  10.032  0.2261  0.0079 -0.4083
  429loPI   C2B 6862  16.232  17.531   9.617  0.1345  0.0236  0.1510
  429loPI   C3B 6863  16.322  17.668   9.196 -0.0698  0.0300 -0.1693
  429loPI   C4B 6864  16.414  17.639   8.895  0.2855 -0.0383  0.1579
  430loPI    C1 6865   9.287  17.635  10.935 -0.0735 -0.1948 -0.2844
  430loPI    C2 6866   8.921  17.489  10.864 -0.1196 -0.2350  0.0211
  430loPI    C3 6867   9.048  17.535  11.241  0.1601 -0.1437 -0.0821
  430loPI   PO4 6868   9.377  17.567  10.778 -0.1907  0.0695 -0.2847
  430loPI   GL1 6869   9.226  17.507  10.417 -0.3308  0.3883  0.1982
  430loPI   GL2 6870   9.017  17.751  10.353  0.1799  0.1294  0.0121
  430loPI   C1A 6871   9.455  17.392  10.094 -0.1418 -0.1606 -0.3718
  430loPI   C2A 6872   9.741  17.260   9.735  0.4377 -0.2767 -0.0396
  430loPI   C3A 6873   9.735  17.249   9.270  0.0309  0.1716  0.0316
  430loPI   C4A 6874   9.665  17.216   8.868  0.1913 -0.0396 -0.2411
  430loPI   C5A 6875   9.624  17.018   8.496  0.2934 -0.2629 -0.1331
  430loPI   C6A 6876   9.463  16.719   8.215  0.1818  0.2213  0.1179
  430loPI   C1B 6877   9.031  17.902   9.932  0.2647  0.1476 -0.1249
  430loPI   C2B 6878   8.969  17.912   9.570  0.0797  0.0293  0.2454
  430loPI   C3B 6879   8.960  17.877   9.114 -0.2336 -0.2544 -0.1586
  430loPI   C4B 6880   8.981  17.986   8.660  0.1580 -0.0201  0.0479
  431loPI    C1 6881  15.898   9.434  10.758 -0.1391  0.0028 -0.0401
  431loPI    C2 6882  16.093   9.087  10.797 -0.0632  0.0454 -0.0379
  431loPI    C3 6883  15.941   9.268  11.119 -0.4377 -0.1768 -0.0834
  431loPI   PO4 6884  15.805   9.345  10.493 -0.1481 -0.1665 -0.0273
  431loPI   GL1 6885  15.912   9.353  10.031 -0.1949 -0.3406 -0.0541
  431loPI   GL2 6886  16.142   9.229   9.836  0.1596  0.0130 -0.0046
  431loPI   C1A 6887  15.616   9.499   9.683 -0.0574 -0.1898 -0.0074
  431loPI   C2A 6888  15.563   9.423   9.237 -0.0022 -0.0771 -0.0045
  431loPI   C3A 6889  15.798   9.526   8.993 -0.2243  0.0629  0.0383
  431loPI   C4A 6890  15.967   9.733   8.612  0.0145 -0.0270  0.0400
  431loPI   C5A 6891  15.948  10.043   8.290  0.1190  0.0244  0.0784
  431loPI   C6A 6892  16.101   9.916   7.867  0.0708 -0.0462 -0.2236
  431loPI   C1B 6893  16.109   9.317   9.467  0.1600 -0.1607 -0.0210
  431loPI   C2B 6894  16.248   9.297   9.007  0.1019 -0.2195 -0.2954
  431loPI   C3B 6895  16.425   9.329   8.681 -0.0676  0.4512  0.2268
  431loPI   C4B 6896  16.659   9.130   8.312  0.0240 -0.2815  0.1490
  432loPI    C1 6897   6.369  16.180  10.701 -0.0469 -0.2178  0.1174
  432loPI    C2 6898   6.397  16.260  11.092  0.1048 -0.3429  0.1331
  432loPI    C3 6899   6.093  16.039  10.955 -0.2889  0.1998  0.0958
  432loPI   PO4 6900   6.552  16.171  10.613 -0.0322 -0.0966  0.2808
  432loPI   GL1 6901   6.699  16.374  10.354 -0.1156  0.1820 -0.3040
  432loPI   GL2 6902   6.511  16.284  10.077  0.2113  0.1049 -0.1075
  432loPI   C1A 6903   6.933  16.572   9.967 -0.3132  0.0688 -0.0456
  432loPI   C2A 6904   6.922  16.794   9.588 -0.0518 -0.0199 -0.1611
  432loPI   C3A 6905   7.032  16.903   9.194  0.0564 -0.0970 -0.0176
  432loPI   C4A 6906   7.042  16.791   8.768  0.1299 -0.1439  0.0608
  432loPI   C5A 6907   6.816  16.579   8.484  0.0395  0.0363  0.1405
  432loPI   C6A 6908   6.652  16.563   8.025  0.1803 -0.0978  0.1080
  432loPI   C1B 6909   6.669  16.327   9.661 -0.2054 -0.1384  0.1895
  432loPI   C2B 6910   6.830  16.407   9.272  0.1490  0.2299  0.1774
  432loPI   C3B 6911   6.867  16.274   8.872 -0.1208 -0.1710 -0.4660
  432loPI   C4B 6912   7.030  16.150   8.496 -0.2340  0.1771  0.0880
  433loPI    C1 6913  16.798   7.526  10.493 -0.0750 -0.0315  0.2408
  433loPI    C2 6914  17.055   7.227  10.564 -0.0732 -0.1367 -0.1831
  433loPI    C3 6915  16.801   7.345  10.850  0.1653 -0.3057  0.1042
  433loPI   PO4 6916  16.923   7.726  10.361  0.2765 -0.0494 -0.0666
  433loPI   GL1 6917  16.789   7.818   9.968  0.5021  0.1555  0.0268
  433loPI   GL2 6918  16.972   8.034   9.776  0.3144 -0.3037  0.2560
  433loPI   C1A 6919  16.812   7.636   9.519  0.1407  0.1026 -0.0906
  433loPI   C2A 6920  17.012   7.627   9.165 -0.0318 -0.1905 -0.4416
  433loPI   C3A 6921  17.109   7.784   8.806 -0.0589  0.2543  0.1538
  433loPI   C4A 6922  17.117   7.888   8.271 -0.2308  0.1792 -0.0211
  433loPI   C5A 6923  17.131   7.940   7.939 -0.1666  0.1272  0.0361
  433loPI   C6A 6924  17.282   8.220   7.643  0.0853  0.0521 -0.1630
  433loPI   C1B 6925  16.866   8.091   9.301  0.1353  0.0488  0.2611
  433loPI   C2B 6926  16.702   8.108   8.906 -0.1489  0.2419  0.1120
  433loPI   C3B 6927  16.735   7.989   8.546 -0.1603 -0.2169  0.0978
  433loPI   C4B 6928  16.660   8.169   8.136  0.0402 -0.0395  0.1695
  434loPI    C1 6929   3.536  13.591  10.816 -0.1058  0.0101  0.2524
  434loPI    C2 6930   3.193  13.566  10.613 -0.0719  0.0509  0.1901
  434loPI    C3 6931   3.189  13.562  11.012 -0.1490  0.0990  0.1901
  434loPI   PO4 6932   3.680  13.776  10.567 -0.2344 -0.2255 -0.0860
  434loPI   GL1 6933   3.417  13.950  10.323  0.3315  0.0609  0.2178
  434loPI   GL2 6934   3.081  14.013  10.337  0.0922  0.2523 -0.0693
  434loPI   C1A 6935   3.428  14.000   9.876 -0.0167 -0.2083 -0.1569
  434loPI   C2A 6936   3.418  13.928   9.480  0.0252 -0.2923 -0.0683
  434loPI   C3A 6937   3.506  13.825   9.077 -0.2563  0.0389  0.0486
  434loPI   C4A 6938   3.461  13.979   8.650 -0.3097 -0.0987  0.1358
  434loPI   C5A 6939   3.528  14.273   8.340 -0.0725 -0.0331 -0.3633
  434loPI   C6A 6940   3.651  14.691   8.342 -0.0654 -0.2047  0.0919
  434loPI   C1B 6941   2.918  14.084   9.926 -0.0299  0.0027  0.1994
  434loPI   C2B 6942   2.903  14.047   9.557  0.2375  0.1126 -0.1701
  434loPI   C3B 6943   2.992  13.960   9.115 -0.2429 -0.1386  0.2065
  434loPI   C4B 6944   2.973  14.044   8.586  0.0957 -0.2079 -0.0421
  435loPI    C1 6945   1.709   6.471  10.451 -0.1633 -0.0173 -0.0497
  435loPI    C2 6946   1.516   6.787  10.299 -0.0373  0.2030  0.2390
  435loPI    C3 6947   1.352   6.577  10.597 -0.0479  0.0932  0.1565
  435loPI   PO4 6948   1.802   6.358  10.277  0.2113  0.0758 -0.1150
  435loPI   GL1 6949   1.785   6.198   9.829  0.2113  0.0328 -0.1124
  435loPI   GL2 6950   1.941   5.978   9.695 -0.0286  0.1118 -0.3118
  435loPI   C1A 6951   1.735   6.426   9.444  0.4197 -0.2528  0.2276
  435loPI   C2A 6952   2.028   6.626   8.987 -0.1723 -0.1139  0.1614
  435loPI   C3A 6953   2.020   6.898   8.696 -0.0120  0.0789 -0.1937
  435loPI   C4A 6954   1.879   6.911   8.277 -0.0136  0.0790 -0.1986
  435loPI   C5A 6955   2.066   6.800   7.940  0.1724 -0.2690  0.1319
  435loPI   C6A 6956   1.952   6.686   7.531  0.1949 -0.1590  0.1657
  435loPI   C1B 6957   1.872   5.947   9.281  0.1167 -0.1025 -0.3086
  435loPI   C2B 6958   1.907   6.107   8.951  0.0829  0.1355 -0.1223
  435loPI   C3B 6959   1.687   6.070   8.480 -0.0551 -0.1320  0.1184
  435loPI   C4B 6960   1.553   6.431   8.269  0.0106 -0.0684 -0.3160
  436loPI    C1 6961  10.882   3.558  10.720 -0.2217 -0.0385 -0.2544
  436loPI    C2 6962  10.707   3.339  11.006 -0.0598  0.1477 -0.0085
  436loPI    C3 6963  10.649   3.735  10.993 -0.0239  0.1477 -0.2041
  436loPI   PO4 6964  10.787   3.411  10.515 -0.4072 -0.1130  0.4960
  436loPI   GL1 6965  10.858   3.304  10.129  0.3479  0.0034 -0.0750
  436loPI   GL2 6966  10.600   3.447  10.065  0.2155  0.1899 -0.0875
  436loPI   C1A 6967  10.931   3.295   9.722  0.2361  0.0759 -0.0529
  436loPI   C2A 6968  10.929   3.325   9.275  0.2007  0.0890 -0.1130
  436loPI   C3A 6969  10.999   3.435   8.848 -0.1038 -0.1590  0.0839
  436loPI   C4A 6970  10.807   3.302   8.502  0.1344  0.1328 -0.0379
  436loPI   C5A 6971  10.543   3.019   8.614  0.1865 -0.0828  0.1975
  436loPI   C6A 6972  10.509   2.603   8.686  0.0524 -0.0381  0.0386
  436loPI   C1B 6973  10.718   3.781   9.823  0.1817 -0.3112  0.0061
  436loPI   C2B 6974  10.709   3.713   9.479  0.0408  0.2521 -0.0838
  436loPI   C3B 6975  10.684   3.812   9.119 -0.0563  0.2039  0.0097
  436loPI   C4B 6976  10.678   3.807   8.695 -0.2852 -0.0180  0.1492
  437loPI    C1 6977   8.688   1.666  11.052  0.0531 -0.1919 -0.1815
  437loPI    C2 6978   8.407   1.400  11.153 -0.2865  0.0976 -0.3396
  437loPI    C3 6979   8.438   1.743  11.355  0.2172 -0.0958 -0.0687
  437loPI   PO4 6980   8.691   1.644  10.831 -0.0638  0.2414 -0.0342
  437loPI   GL1 6981   8.751   1.284  10.486  0.3494 -0.2801  0.0158
  437loPI   GL2 6982   8.961   1.605  10.359 -0.1047  0.1060 -0.0758
  437loPI   C1A 6983   8.819   1.240   9.981 -0.1098 -0.3008 -0.1495
  437loPI   C2A 6984   8.827   1.218   9.584  0.0447 -0.0714  0.1577
  437loPI   C3A 6985   8.720   1.214   9.204 -0.1714 -0.1168 -0.1030
  437loPI   C4A 6986   8.842   1.299   8.801 -0.1879  0.0671  0.0050
  437loPI   C5A 6987   8.681   1.518   8.428 -0.1062  0.0190 -0.0791
  437loPI   C6A 6988   8.443   1.797   8.224  0.1057 -0.0131 -0.1395
  437loPI   C1B 6989   8.944   1.666   9.898  0.0921 -0.0664 -0.2331
  437loPI   C2B 6990   8.957   1.694   9.535  0.4397  0.0985  0.0699
  437loPI   C3B 6991   8.961   1.658   9.132 -0.1161  0.1388 -0.3258
  437loPI   C4B 6992   9.023   1.772   8.718 -0.1717  0.1217 -0.3831
  438loPI    C1 6993  12.139   6.074  10.612  0.0562  0.2555 -0.1138
  438loPI    C2 6994  11.828   5.843  10.510  0.1773  0.1180 -0.1763
  438loPI    C3 6995  11.792   6.242  10.504 -0.0906  0.1017  0.1104
  438loPI   PO4 6996  12.378   5.888  10.495 -0.1428  0.0818 -0.2922
  438loPI   GL1 6997  12.318   5.830  10.123  0.0434  0.2081  0.1374
  438loPI   GL2 6998  12.039   5.663  10.105 -0.3715  0.2971 -0.1590
  438loPI   C1A 6999  12.113   6.196   9.994 -0.0912 -0.0000  0.0423
  438loPI   C2A 7000  12.007   6.534   9.757 -0.0353  0.0049  0.0669
  438loPI   C3A 7001  11.996   6.722   9.429  0.2571  0.2744 -0.0351
  438loPI   C4A 7002  11.995   6.673   9.009 -0.1059  0.0964 -0.1885
  438loPI   C5A 7003  12.045   6.539   8.552  0.2611 -0.0558  0.0285
  438loPI   C6A 7004  12.268   6.399   8.181 -0.1810 -0.3183  0.1096
  438loPI   C1B 7005  11.979   5.846   9.644 -0.0175 -0.2680 -0.1397
  438loPI   C2B 7006  11.917   5.775   9.218  0.1902  0.0198  0.2097
  438loPI   C3B 7007  12.103   5.859   8.809 -0.0640 -0.1730  0.0351
  438loPI   C4B 7008  12.035   5.984   8.357 -0.2278  0.0152 -0.1919
  439loPI    C1 7009  15.925   0.658  10.698 -0.2236  0.0740  0.0921
  439loPI    C2 7010  16.029   0.741  11.075  0.2535 -0.0271 -0.0103
  439loPI    C3 7011  15.947   0.364  10.968  0.0060  0.0179  0.0146
  439loPI   PO4 7012  16.040   0.783  10.542  0.0641 -0.2161 -0.1320
  439loPI   GL1 7013  15.840   0.978  10.207 -0.0836  0.1386 -0.1917
  439loPI   GL2 7014  15.590   1.081  10.110  0.0314 -0.0364  0.2621
  439loPI   C1A 7015  16.189   1.027   9.873 -0.2823 -0.0166  0.1366
  439loPI   C2A 7016  16.085   1.352   9.543  0.0210  0.0900  0.1185
  439loPI   C3A 7017  15.868   1.243   9.087 -0.1844  0.0939 -0.3036
  439loPI   C4A 7018  15.698   1.317   8.722  0.0385  0.1334 -0.0514
  439loPI   C5A 7019  15.419   1.291   8.453  0.1235 -0.2038  0.2325
  439loPI   C6A 7020  15.492   1.458   8.118 -0.3230  0.0818 -0.2110
  439loPI   C1B 7021  15.707   1.009   9.599  0.0022  0.0347 -0.0169
  439loPI   C2B 7022  16.088   0.916   9.365 -0.0608  0.1876  0.1623
  439loPI   C3B 7023  16.360   0.987   9.046  0.0943 -0.0685  0.0731
  439loPI   C4B 7024  16.220   1.165   8.659  0.0476  0.1859 -0.0967
  440loPI    C1 7025   1.828  15.560  11.058 -0.0839  0.1378  0.0328
  440loPI    C2 7026   2.041  15.807  11.291 -0.0701  0.1026  0.0576
  440loPI    C3 7027   2.072  15.411  11.338  0.0764  0.0906 -0.1306
  440loPI   PO4 7028   1.895  15.647  10.771 -0.2258 -0.0759  0.2669
  440loPI   GL1 7029   1.588  15.604  10.393 -0.4116  0.1728  0.0277
  440loPI   GL2 7030   1.315  15.781  10.205 -0.2408 -0.1006 -0.0662
  440loPI   C1A 7031   1.885  15.692  10.118  0.1494 -0.1326 -0.0291
  440loPI   C2A 7032   1.885  15.638   9.674 -0.1124 -0.2550 -0.1649
  440loPI   C3A 7033   1.879  15.729   9.282 -0.1669  0.0620 -0.0362
  440loPI   C4A 7034   1.965  15.666   8.884  0.2007 -0.1796 -0.1850
  440loPI   C5A 7035   2.018  15.558   8.521 -0.2301  0.1141 -0.0721
  440loPI   C6A 7036   2.019  15.540   8.145  0.0693 -0.0159  0.3710
  440loPI   C1B 7037   1.371  15.793   9.720 -0.0570 -0.2039 -0.0633
  440loPI   C2B 7038   1.374  15.879   9.342  0.2247 -0.0143 -0.3992
  440loPI   C3B 7039   1.420  15.783   8.898 -0.0343  0.1043  0.2522
  440loPI   C4B 7040   1.551  15.750   8.467 -0.3483 -0.0977  0.5074
  441loPI    C1 7041  11.978  17.685  10.907 -0.1098  0.0437 -0.0935
  441loPI    C2 7042  11.922  17.330  11.082 -0.1215  0.0459 -0.0930
  441loPI    C3 7043  12.205  17.577  11.218  0.1639 -0.1323 -0.3478
  441loPI   PO4 7044  12.025  17.662  10.700  0.1038 -0.1085  0.1519
  441loPI   GL1 7045  12.061  17.889  10.303 -0.1181  0.0260  0.0624
  441loPI   GL2 7046  11.714  17.795  10.289  0.5607  0.4004 -0.1244
  441loPI   C1A 7047  12.119  17.873   9.886 -0.2062 -0.0653  0.0420
  441loPI   C2A 7048  12.104  17.784   9.439 -0.0910 -0.3646  0.2098
  441loPI   C3A 7049  12.238  17.803   9.039 -0.1415  0.0229 -0.0477
  441loPI   C4A 7050  12.276  17.835   8.561 -0.1175 -0.1895  0.2019
  441loPI   C5A 7051  12.629  17.719   8.394 -0.0132 -0.0609 -0.0946
  441loPI   C6A 7052  12.966  17.648   8.057 -0.2656  0.0600  0.0652
  441loPI   C1B 7053  11.595  17.726   9.863 -0.0723 -0.0927  0.1063
  441loPI   C2B 7054  11.560  17.616   9.410 -0.0037  0.3169  0.2154
  441loPI   C3B 7055  11.785  17.663   8.954  0.0628  0.0371 -0.0465
  441loPI   C4B 7056  11.775  17.515   8.460 -0.0705 -0.0965  0.2172
  442loPI    C1 7057  17.479   0.609  11.018  0.3038 -0.1207 -0.1943
  442loPI    C2 7058  17.234   0.387  11.243  0.0142  0.0863 -0.3003
  442loPI    C3 7059  17.593   0.493  11.384 -0.1442  0.1745  0.0468
  442loPI   PO4 7060  17.427   0.480  10.786 -0.0845  0.0984  0.0532
  442loPI   GL1 7061  17.210   0.620  10.485 -0.1520  0.0801 -0.1022
  442loPI   GL2 7062  17.222   0.891  10.405  0.0463 -0.1878  0.3877
  442loPI   C1A 7063  17.405   0.316  10.168  0.2520  0.1480  0.2991
  442loPI   C2A 7064  17.437   0.300   9.717  0.1809  0.3952  0.1092
  442loPI   C3A 7065  17.545   0.325   9.234 -0.1979  0.1266 -0.0637
  442loPI   C4A 7066  17.556   0.215   8.744  0.4423 -0.1899 -0.0619
  442loPI   C5A 7067  17.717   0.307   8.411 -0.0867 -0.0701  0.2533
  442loPI   C6A 7068  17.561   0.646   8.042  0.3417  0.0087 -0.0753
  442loPI   C1B 7069  17.251   0.798   9.929 -0.3554  0.0881  0.0061
  442loPI   C2B 7070  17.350   0.831   9.475 -0.3373 -0.0234  0.0271
  442loPI   C3B 7071  17.378   0.843   8.949 -0.0650 -0.1261 -0.1783
  442loPI   C4B 7072  17.436   0.709   8.557  0.2019  0.0706  0.3434
  443loPI    C1 7073   7.611  12.708  10.730  0.1113  0.1841  0.0147
  443loPI    C2 7074   7.391  12.909  10.463 -0.0322  0.1233  0.0855
  443loPI    C3 7075   7.254  12.856  10.835 -0.0515 -0.2099  0.0342
  443loPI   PO4 7076   7.666  12.507  10.579  0.1332  0.2261  0.0455
  443loPI   GL1 7077   7.675  12.531  10.181  0.1365  0.1673  0.0584
  443loPI   GL2 7078   7.813  12.914  10.075  0.0483 -0.0966  0.1451
  443loPI   C1A 7079   7.731  12.204   9.907 -0.1545  0.2028 -0.0396
  443loPI   C2A 7080   7.735  11.900   9.650 -0.0021  0.2575 -0.2494
  443loPI   C3A 7081   7.649  11.812   9.321 -0.1548 -0.2137  0.1039
  443loPI   C4A 7082   7.651  11.741   8.842 -0.0263  0.3599 -0.2545
  443loPI   C5A 7083   7.762  11.830   8.377  0.3839  0.0630 -0.1464
  443loPI   C6A 7084   8.050  12.082   8.136 -0.0826  0.0819 -0.0831
  443loPI   C1B 7085   8.087  12.782   9.765  0.0569 -0.0548  0.1337
  443loPI   C2B 7086   8.251  12.778   9.196  0.0579 -0.4270 -0.1403
  443loPI   C3B 7087   8.237  12.664   8.630  0.0463  0.0229 -0.2134
  443loPI   C4B 7088   8.053  12.549   8.265 -0.0977 -0.0005 -0.0703
  444loPI    C1 7089   1.047   9.157  10.515  0.0650  0.0264 -0.0046
  444loPI    C2 7090   0.784   9.038  10.792  0.0592 -0.1380 -0.0798
  444loPI    C3 7091   0.997   9.371  10.849 -0.1694  0.0007 -0.0210
  444loPI   PO4 7092   0.796   9.058  10.283  0.0231  0.0342 -0.0350
  444loPI   GL1 7093   0.657   9.128   9.905 -0.1227 -0.0853 -0.0771
  444loPI   GL2 7094   0.529   8.819   9.989  0.0121  0.1080  0.1744
  444loPI   C1A 7095   0.752   9.313   9.504 -0.1833  0.1084 -0.0056
  444loPI   C2A 7096   0.688   9.487   9.074  0.1045  0.0203  0.3579
  444loPI   C3A 7097   0.705   9.429   8.679  0.1906  0.1419 -0.2164
  444loPI   C4A 7098   0.618   9.582   8.346 -0.1018  0.0270 -0.0544
  444loPI   C5A 7099   0.583   9.930   8.027  0.1185  0.1472 -0.1023
  444loPI   C6A 7100   0.491  10.299   8.091 -0.2474  0.1234 -0.3213
  444loPI   C1B 7101   0.310   8.943   9.619  0.3596 -0.3918 -0.2817
  444loPI   C2B 7102   0.378   8.959   9.274  0.0889 -0.0750 -0.0280
  444loPI   C3B 7103   0.668   8.958   8.847  0.0862 -0.3145 -0.1775
  444loPI   C4B 7104   0.908   8.704   8.600 -0.1754  0.0923 -0.2892
  445loPI    C1 7105   0.139  10.140  10.964 -0.2789 -0.0519 -0.1026
  445loPI    C2 7106   0.119  10.109  11.362  0.2081 -0.2224 -0.0849
  445loPI    C3 7107   0.468  10.055  11.175  0.0230  0.0456 -0.5219
  445loPI   PO4 7108  -0.151  10.037  10.895  0.2180  0.1077  0.0184
  445loPI   GL1 7109  -0.333  10.084  10.393 -0.0031  0.0410  0.0808
  445loPI   GL2 7110  -0.078  10.096  10.387  0.2538  0.0644  0.3140
  445loPI   C1A 7111  -0.558   9.908  10.083  0.0713 -0.0006 -0.2187
  445loPI   C2A 7112  -0.689   9.879   9.711  0.2138 -0.2658  0.0816
  445loPI   C3A 7113  -0.768   9.595   9.307 -0.1917  0.1033 -0.1875
  445loPI   C4A 7114  -0.687   9.620   8.755 -0.1297 -0.0757 -0.1493
  445loPI   C5A 7115  -0.595   9.461   8.338 -0.0612 -0.1205  0.0734
  445loPI   C6A 7116  -0.818   9.383   7.933 -0.0842  0.2518 -0.0797
  445loPI   C1B 7117  -0.267  10.427  10.039  0.1536  0.0322 -0.2115
  445loPI   C2B 7118  -0.299  10.432   9.560  0.1360 -0.0356  0.2463
  445loPI   C3B 7119  -0.655  10.173   9.276 -0.0473  0.3044 -0.1502
  445loPI   C4B 7120  -0.509  10.075   8.949 -0.0409  0.2779  0.0648
  446loPI    C1 7121   2.874   4.702  11.151 -0.2362 -0.1292  0.2407
  446loPI    C2 7122   2.532   4.691  11.359 -0.4472  0.0752 -0.0867
  446loPI    C3 7123   2.640   5.026  11.168 -0.0571  0.0147  0.0190
  446loPI   PO4 7124   2.861   4.412  10.958  0.1746 -0.0859  0.1730
  446loPI   GL1 7125   2.973   4.157  10.549 -0.2982  0.0530 -0.3340
  446loPI   GL2 7126   3.019   4.490  10.446  0.2522 -0.0011 -0.2347
  446loPI   C1A 7127   3.076   4.133  10.147  0.1638 -0.0307 -0.1252
  446loPI   C2A 7128   2.910   4.298   9.789  0.0145 -0.2171  0.0887
  446loPI   C3A 7129   2.756   4.532   9.464 -0.2009 -0.2370 -0.2479
  446loPI   C4A 7130   2.676   4.508   9.050  0.2254 -0.1630  0.0621
  446loPI   C5A 7131   2.428   4.375   8.800  0.2739 -0.0538  0.1625
  446loPI   C6A 7132   2.274   4.320   8.451 -0.1071 -0.0148 -0.0719
  446loPI   C1B 7133   3.117   4.765  10.111 -0.1638 -0.0603 -0.1450
  446loPI   C2B 7134   3.137   4.786   9.660 -0.2629  0.2273  0.1384
  446loPI   C3B 7135   3.172   4.676   9.190 -0.3774  0.1426 -0.2648
  446loPI   C4B 7136   3.297   4.610   8.774 -0.0823 -0.2076 -0.0429
  447loPI    C1 7137   1.350  16.712  11.458 -0.0174  0.0362 -0.0987
  447loPI    C2 7138   1.376  17.086  11.597 -0.0331 -0.0104  0.0299
  447loPI    C3 7139   1.205  16.801  11.820 -0.4330  0.0014 -0.2514
  447loPI   PO4 7140   1.256  16.705  11.137 -0.2378  0.0534 -0.2102
  447loPI   GL1 7141   1.375  16.705  10.762 -0.0750  0.0438 -0.0625
  447loPI   GL2 7142   1.217  16.378  10.681 -0.0371  0.3130  0.0039
  447loPI   C1A 7143   1.513  16.679  10.247  0.3797  0.1275 -0.3403
  447loPI   C2A 7144   1.495  16.628   9.899 -0.0028 -0.2102  0.0407
  447loPI   C3A 7145   1.482  16.644   9.489  0.3251 -0.0234  0.0721
  447loPI   C4A 7146   1.648  16.716   9.003  0.4198 -0.1135 -0.1590
  447loPI   C5A 7147   1.707  16.581   8.609 -0.0184  0.3596  0.3503
  447loPI   C6A 7148   1.462  16.595   8.317 -0.0604 -0.1530 -0.0594
  447loPI   C1B 7149   1.180  16.264  10.229 -0.0874  0.3031  0.3113
  447loPI   C2B 7150   1.185  16.236   9.875  0.0416 -0.0027  0.1017
  447loPI   C3B 7151   1.106  16.299   9.458  0.0227  0.1637 -0.0733
  447loPI   C4B 7152   1.189  16.272   9.074  0.0142 -0.1845  0.1245
  448loPI    C1 7153   4.769  16.764  11.161  0.1930  0.0497 -0.0681
  448loPI    C2 7154   4.866  16.419  11.338  0.0937  0.0249 -0.0614
  448loPI    C3 7155   4.897  16.763  11.539  0.1484  0.0152 -0.0531
  448loPI   PO4 7156   4.930  16.727  10.928 -0.1398 -0.2367 -0.1581
  448loPI   GL1 7157   5.113  16.627  10.533 -0.1555 -0.0170 -0.2016
  448loPI   GL2 7158   5.398  16.512  10.605  0.0711  0.1594 -0.1386
  448loPI   C1A 7159   4.924  16.484  10.188 -0.2398 -0.0644 -0.1836
  448loPI   C2A 7160   4.794  16.551   9.864 -0.0439 -0.1339 -0.3217
  448loPI   C3A 7161   4.897  16.464   9.450  0.0713 -0.0518  0.2221
  448loPI   C4A 7162   5.178  16.544   9.138 -0.0805 -0.0965 -0.3827
  448loPI   C5A 7163   5.401  16.386   8.858 -0.2018  0.3166  0.0242
  448loPI   C6A 7164   5.417  16.153   8.428  0.1745 -0.2118  0.0222
  448loPI   C1B 7165   5.401  16.375  10.233 -0.2526 -0.2391 -0.2834
  448loPI   C2B 7166   5.331  16.436   9.897 -0.3888  0.0620 -0.0951
  448loPI   C3B 7167   5.394  16.375   9.539 -0.2146  0.1809  0.1010
  448loPI   C4B 7168   5.456  16.045   9.262  0.0105  0.0673  0.0428
  449loPI    C1 7169  17.771  11.292  10.812  0.1075 -0.0627  0.0919
  449loPI    C2 7170  17.372  11.305  10.846  0.0812 -0.0070 -0.2151
  449loPI    C3 7171  17.602  11.401  11.158 -0.1447  0.1135 -0.0831
  449loPI   PO4 7172  17.863  11.426  10.609 -0.1310 -0.1560 -0.3228
  449loPI   GL1 7173  18.054  11.738  10.416  0.2279 -0.3383 -0.0541
  449loPI   GL2 7174  17.866  11.601  10.139  0.2178  0.2080  0.1656
  449loPI   C1A 7175  18.201  11.990  10.119 -0.1298 -0.0475 -0.1213
  449loPI   C2A 7176  18.145  12.266   9.697  0.1726 -0.1595 -0.1310
  449loPI   C3A 7177  17.942  12.390   9.333  0.4512 -0.0443 -0.3150
  449loPI   C4A 7178  18.021  12.387   8.911 -0.1451 -0.2524  0.2101
  449loPI   C5A 7179  18.201  12.553   8.407 -0.0265  0.0429 -0.2520
  449loPI   C6A 7180  18.108  12.471   8.015 -0.2498  0.0913  0.1202
  449loPI   C1B 7181  17.693  11.350   9.811  0.1080  0.0928  0.2379
  449loPI   C2B 7182  17.652  11.361   9.400 -0.3932  0.1618  0.2813
  449loPI   C3B 7183  17.476  11.515   9.033  0.2886 -0.1295 -0.2025
  449loPI   C4B 7184  17.622  11.493   8.640 -0.0995  0.0812  0.1207
  450loPI    C1 7185  17.800  17.562  11.296 -0.1010 -0.0312 -0.0534
  450loPI    C2 7186  17.634  17.209  11.388 -0.0001 -0.0911 -0.0989
  450loPI    C3 7187  17.537  17.537  11.596 -0.0668 -0.1527 -0.0327
  450loPI   PO4 7188  17.779  17.562  11.011 -0.2017  0.0768  0.1656
  450loPI   GL1 7189  17.808  17.511  10.617  0.2204  0.3579  0.1637
  450loPI   GL2 7190  17.398  17.489  10.541  0.2995 -0.3171  0.0772
  450loPI   C1A 7191  17.824  17.339  10.222  0.0025 -0.1281  0.1814
  450loPI   C2A 7192  17.798  17.426   9.780  0.1027 -0.0799 -0.2370
  450loPI   C3A 7193  17.848  17.404   9.291 -0.2033  0.0142  0.0314
  450loPI   C4A 7194  17.851  17.407   8.797  0.1409 -0.1909  0.0030
  450loPI   C5A 7195  18.122  17.333   8.403  0.0934 -0.0718  0.1975
  450loPI   C6A 7196  18.404  17.321   7.997 -0.1105 -0.2012 -0.0115
  450loPI   C1B 7197  17.333  17.459  10.083  0.2165 -0.0609  0.1255
  450loPI   C2B 7198  17.304  17.514   9.653 -0.0457 -0.0570 -0.2662
  450loPI   C3B 7199  17.365  17.512   9.271  0.0464  0.1486  0.0516
  450loPI   C4B 7200  17.334  17.642   8.846 -0.1094 -0.2254 -0.1255
  451loPI    C1 7201   1.796  11.160  10.931 -0.0197 -0.0276  0.1108
  451loPI    C2 7202   2.193  11.156  10.982  0.0059 -0.1052 -0.0856
  451loPI    C3 7203   1.961  10.911  11.197  0.0491  0.0476  0.1392
  451loPI   PO4 7204   1.824  11.378  10.698 -0.0449  0.3124 -0.1490
  451loPI   GL1 7205   1.558  11.438  10.297 -0.1037  0.1690 -0.0649
  451loPI   GL2 7206   1.578  11.751  10.389 -0.0573  0.0637  0.1922
  451loPI   C1A 7207   1.551  11.421   9.889 -0.0523  0.0373 -0.0146
  451loPI   C2A 7208   1.481  11.509   9.474 -0.1319 -0.1985 -0.0409
  451loPI   C3A 7209   1.280  11.644   9.145  0.0801  0.0511 -0.0942
  451loPI   C4A 7210   1.075  11.673   8.834 -0.0379  0.1091  0.2666
  451loPI   C5A 7211   0.992  11.444   8.452  0.0729 -0.2629 -0.1234
  451loPI   C6A 7212   1.090  11.180   8.119 -0.0426 -0.0474 -0.0256
  451loPI   C1B 7213   1.401  11.909   9.957  0.0350 -0.0600 -0.1467
  451loPI   C2B 7214   1.236  11.980   9.574  0.0487 -0.0395  0.1061
  451loPI   C3B 7215   0.948  12.121   9.309  0.2154  0.2471  0.2089
  451loPI   C4B 7216   0.898  12.198   8.889  0.0672 -0.1902  0.1084
  452loPI    C1 7217   5.033   6.357  11.001 -0.0014  0.0055  0.1048
  452loPI    C2 7218   4.865   6.033  11.164 -0.1386  0.1887  0.3336
  452loPI    C3 7219   5.151   6.230  11.362  0.1502  0.0427  0.0689
  452loPI   PO4 7220   4.895   6.473  10.742  0.0567  0.0122 -0.1684
  452loPI   GL1 7221   4.975   6.404  10.258 -0.0693 -0.1059  0.1552
  452loPI   GL2 7222   4.589   6.362  10.370 -0.0228  0.2526  0.1045
  452loPI   C1A 7223   4.984   6.053   9.937  0.0130 -0.3053 -0.0699
  452loPI   C2A 7224   5.098   5.966   9.508  0.0043  0.1818 -0.0487
  452loPI   C3A 7225   5.213   6.113   9.159 -0.0228 -0.0662  0.3908
  452loPI   C4A 7226   5.271   6.021   8.655  0.1695  0.2177  0.0823
  452loPI   C5A 7227   5.524   5.993   8.256 -0.0124 -0.1122 -0.1381
  452loPI   C6A 7228   5.562   6.323   8.113  0.0005 -0.0485  0.2147
  452loPI   C1B 7229   4.589   6.293   9.917 -0.0090  0.0299 -0.0329
  452loPI   C2B 7230   4.628   6.266   9.385  0.2381 -0.0997 -0.0569
  452loPI   C3B 7231   4.791   6.506   9.147  0.2240  0.1039  0.4379
  452loPI   C4B 7232   4.947   6.404   8.838 -0.1846  0.2294 -0.2394
  453loPI    C1 7233  11.701   2.868  10.701  0.1300  0.0334  0.1073
  453loPI    C2 7234  11.866   2.586  10.471 -0.0257  0.1587 -0.1635
  453loPI    C3 7235  12.095   2.870  10.634  0.0733  0.1275 -0.2468
  453loPI   PO4 7236  11.461   2.926  10.553 -0.2614  0.0199 -0.1717
  453loPI   GL1 7237  11.159   2.821  10.336 -0.0018 -0.1072 -0.2019
  453loPI   GL2 7238  11.073   2.555  10.141 -0.1342 -0.1704 -0.0850
  453loPI   C1A 7239  11.288   2.909   9.901 -0.0343 -0.0089  0.1516
  453loPI   C2A 7240  11.249   3.002   9.474 -0.1100  0.1116  0.2237
  453loPI   C3A 7241  11.329   3.029   9.054 -0.2917 -0.1690  0.1070
  453loPI   C4A 7242  11.330   3.064   8.552 -0.0980  0.0891  0.1619
  453loPI   C5A 7243  11.141   3.072   8.165 -0.2336 -0.1173 -0.1551
  453loPI   C6A 7244  11.055   2.923   7.762  0.0041 -0.0066  0.0069
  453loPI   C1B 7245  11.022   2.268   9.833  0.0206 -0.1508  0.0534
  453loPI   C2B 7246  10.913   1.884   9.735  0.0376 -0.3671 -0.1754
  453loPI   C3B 7247  10.789   1.836   9.258 -0.0968  0.1649  0.0899
  453loPI   C4B 7248  10.844   1.724   8.904 -0.0819 -0.1491 -0.1361
  454loPI    C1 7249  10.379   4.604  11.395  0.0293  0.1042  0.0181
  454loPI    C2 7250  10.619   4.445  11.673 -0.0093 -0.0761 -0.0503
  454loPI    C3 7251  10.378   4.750  11.767  0.0480 -0.0731  0.0889
  454loPI   PO4 7252  10.536   4.698  11.144 -0.3671  0.2217  0.1173
  454loPI   GL1 7253  10.454   4.688  10.667 -0.0518 -0.0427  0.1570
  454loPI   GL2 7254  10.340   5.002  10.603  0.2327  0.0613  0.3856
  454loPI   C1A 7255  10.635   4.593  10.284  0.3425 -0.0362  0.1118
  454loPI   C2A 7256  10.595   4.646   9.760 -0.1424  0.3846  0.0484
  454loPI   C3A 7257  10.475   4.716   9.332 -0.1338 -0.0041  0.0297
  454loPI   C4A 7258  10.532   4.647   8.934 -0.1753 -0.0769  0.2098
  454loPI   C5A 7259  10.468   4.927   8.587 -0.0751  0.1353  0.2038
  454loPI   C6A 7260  10.515   5.418   8.538  0.2214 -0.3544 -0.1461
  454loPI   C1B 7261  10.345   5.072  10.157  0.0301  0.0620  0.1831
  454loPI   C2B 7262  10.341   5.189   9.841  0.2760 -0.0181  0.0148
  454loPI   C3B 7263  10.241   5.145   9.406  0.2270 -0.1277 -0.0634
  454loPI   C4B 7264  10.261   5.087   9.000  0.0323  0.0546 -0.1291
  455loPI    C1 7265   8.136   9.858  11.154  0.0239  0.1023 -0.2026
  455loPI    C2 7266   8.536   9.861  11.161  0.0254 -0.1504  0.2706
  455loPI    C3 7267   8.335  10.198  11.085  0.3238 -0.0600 -0.1584
  455loPI   PO4 7268   8.102   9.561  11.066  0.0923 -0.0303  0.0138
  455loPI   GL1 7269   8.352   9.518  10.670 -0.2704  0.0154  0.2184
  455loPI   GL2 7270   8.576   9.847  10.690 -0.3253  0.1496 -0.0869
  455loPI   C1A 7271   8.397   9.465  10.245 -0.2680 -0.0519 -0.2911
  455loPI   C2A 7272   8.383   9.368   9.748  0.1761 -0.0739 -0.0001
  455loPI   C3A 7273   8.445   9.474   9.368  0.2258  0.0477 -0.1221
  455loPI   C4A 7274   8.581   9.715   9.011  0.0340  0.0683 -0.0839
  455loPI   C5A 7275   8.617   9.899   8.570  0.1045 -0.0762  0.0331
  455loPI   C6A 7276   8.854  10.164   8.385 -0.0341 -0.1955  0.1246
  455loPI   C1B 7277   8.786   9.849  10.283 -0.0328 -0.0522  0.0370
  455loPI   C2B 7278   8.693   9.975   9.827  0.0496  0.1781  0.1077
  455loPI   C3B 7279   8.711  10.067   9.403 -0.4530 -0.0309  0.3672
  455loPI   C4B 7280   8.789  10.210   8.974 -0.2352  0.0963 -0.1220
  456loPI    C1 7281   6.484  14.732  10.813  0.1264 -0.2832  0.0010
  456loPI    C2 7282   6.722  14.530  11.063 -0.0663 -0.0993  0.3419
  456loPI    C3 7283   6.590  14.894  11.163  0.1083  0.1160 -0.1727
  456loPI   PO4 7284   6.637  14.768  10.506  0.5313 -0.0544 -0.4046
  456loPI   GL1 7285   6.733  14.615  10.206 -0.1404  0.1510  0.0837
  456loPI   GL2 7286   6.999  14.484  10.107  0.2351  0.1240  0.1577
  456loPI   C1A 7287   6.470  14.472   9.905  0.1218 -0.0089 -0.2157
  456loPI   C2A 7288   6.474  14.109   9.702  0.0920 -0.2345  0.2280
  456loPI   C3A 7289   6.395  14.122   9.256 -0.1549 -0.0141  0.1966
  456loPI   C4A 7290   6.352  13.815   8.967  0.0822  0.2145  0.3390
  456loPI   C5A 7291   6.586  13.619   8.699 -0.0270  0.0225 -0.2703
  456loPI   C6A 7292   6.754  13.302   8.594 -0.1796  0.0518  0.0969
  456loPI   C1B 7293   6.924  14.438   9.680 -0.3036 -0.1790 -0.1280
  456loPI   C2B 7294   6.646  14.534   9.386 -0.1213 -0.1995  0.1895
  456loPI   C3B 7295   6.556  14.454   8.952  0.2971 -0.2006  0.2211
  456loPI   C4B 7296   6.485  14.541   8.463  0.2867 -0.0706  0.2000
  457loPI    C1 7297   2.256   2.624  10.489  0.0162 -0.0512 -0.3078
  457loPI    C2 7298   2.263   2.224  10.483  0.1151 -0.0528 -0.1423
  457loPI    C3 7299   2.524   2.426  10.710 -0.1747  0.0966  0.0638
  457loPI   PO4 7300   2.037   2.674  10.464  0.2257  0.0925 -0.2897
  457loPI   GL1 7301   1.986   2.493  10.079  0.1159  0.3768 -0.0813
  457loPI   GL2 7302   1.880   2.190  10.197  0.0271  0.0857 -0.2019
  457loPI   C1A 7303   1.839   2.582   9.616 -0.0917 -0.0520  0.0886
  457loPI   C2A 7304   1.867   2.581   9.268  0.3006 -0.2453  0.3395
  457loPI   C3A 7305   1.928   2.635   8.790 -0.3223 -0.2984 -0.0060
  457loPI   C4A 7306   1.919   2.707   8.377  0.2664 -0.2315  0.2572
  457loPI   C5A 7307   2.065   3.016   8.043  0.0311  0.0204  0.2791
  457loPI   C6A 7308   2.267   2.907   7.728  0.0666  0.0194 -0.3138
  457loPI   C1B 7309   1.965   2.104   9.786 -0.1450  0.0890 -0.1170
  457loPI   C2B 7310   2.043   2.083   9.336  0.1420  0.1724 -0.0129
  457loPI   C3B 7311   2.021   2.080   8.870 -0.0554  0.0569  0.0399
  457loPI   C4B 7312   2.117   1.958   8.472 -0.0146 -0.3926  0.0443
  458loPI    C1 7313   3.356   1.349  10.921  0.1230  0.1338  0.0062
  458loPI    C2 7314   3.183   1.287  11.276 -0.1422  0.1821 -0.1123
  458loPI    C3 7315   3.297   0.976  11.053  0.2061  0.1531  0.0991
  458loPI   PO4 7316   3.188   1.500  10.812 -0.0242  0.2693  0.0515
  458loPI   GL1 7317   2.839   1.458  10.586 -0.0505  0.0027  0.0006
  458loPI   GL2 7318   2.511   1.287  10.535 -0.0481  0.0793  0.0908
  458loPI   C1A 7319   2.902   1.266  10.161 -0.0093 -0.0793  0.0823
  458loPI   C2A 7320   2.928   1.021   9.806  0.1125  0.0978 -0.1351
  458loPI   C3A 7321   2.959   1.025   9.375  0.0142  0.1528  0.1497
  458loPI   C4A 7322   2.976   1.047   8.917  0.0863 -0.1051 -0.1595
  458loPI   C5A 7323   2.953   0.945   8.554 -0.1980  0.0104 -0.0655
  458loPI   C6A 7324   2.948   0.810   8.129  0.0282 -0.3612  0.0791
  458loPI   C1B 7325   2.330   1.244  10.107 -0.0870  0.0608 -0.0495
  458loPI   C2B 7326   2.368   1.145   9.686 -0.2365  0.3313  0.2507
  458loPI   C3B 7327   2.477   1.135   9.261 -0.1943  0.0935 -0.1499
  458loPI   C4B 7328   2.477   1.064   8.782  0.0531  0.0514  0.3399
  459loPI    C1 7329  15.917  12.364  11.072  0.0090  0.0193 -0.1563
  459loPI    C2 7330  16.107  12.055  11.240 -0.0519 -0.0804 -0.2700
  459loPI    C3 7331  16.199  12.428  11.349 -0.0932 -0.1432 -0.0124
  459loPI   PO4 7332  15.864  12.298  10.769  0.1099  0.0565  0.1204
  459loPI   GL1 7333  16.110  12.179  10.422  0.2763 -0.0198  0.4431
  459loPI   GL2 7334  16.111  11.940  10.295 -0.2604 -0.0515  0.0454
  459loPI   C1A 7335  16.215  12.573  10.234  0.1875  0.4152 -0.1211
  459loPI   C2A 7336  16.306  12.853   9.955  0.2592  0.2230 -0.0200
  459loPI   C3A 7337  16.613  12.827   9.633  0.2524  0.1659 -0.4321
  459loPI   C4A 7338  16.654  12.947   9.182  0.2355 -0.0780  0.0180
  459loPI   C5A 7339  16.314  12.939   8.840  0.0221 -0.0919  0.2913
  459loPI   C6A 7340  16.032  12.743   8.594  0.2856 -0.3764  0.1709
  459loPI   C1B 7341  16.232  12.152   9.917  0.2863 -0.0292 -0.1681
  459loPI   C2B 7342  16.137  12.422   9.637 -0.3351  0.0276 -0.3030
  459loPI   C3B 7343  16.377  12.545   9.266  0.3504 -0.1158 -0.0734
  459loPI   C4B 7344  16.559  12.536   8.823  0.1736 -0.3038 -0.0391
  460loPI    C1 7345  13.108  12.834  11.199  0.1810 -0.2032  0.0126
  460loPI    C2 7346  13.249  12.555  11.449  0.0597 -0.1798  0.1081
  460loPI    C3 7347  12.888  12.715  11.512  0.1648  0.0627  0.1047
  460loPI   PO4 7348  13.347  12.942  11.095  0.2299 -0.4190 -0.1522
  460loPI   GL1 7349  13.445  13.164  10.726 -0.2184 -0.2441 -0.3002
  460loPI   GL2 7350  13.221  13.141  10.555  0.0417  0.2321 -0.1825
  460loPI   C1A 7351  13.538  13.376  10.316 -0.1438 -0.0380  0.2641
  460loPI   C2A 7352  13.475  13.340   9.889 -0.1685  0.1733  0.0416
  460loPI   C3A 7353  13.582  13.398   9.427 -0.0898 -0.0490 -0.3196
  460loPI   C4A 7354  13.616  13.342   8.978  0.0916 -0.1094  0.1674
  460loPI   C5A 7355  13.773  13.627   8.674 -0.3226  0.2441  0.2148
  460loPI   C6A 7356  13.935  13.954   8.365 -0.0397  0.0145  0.1791
  460loPI   C1B 7357  13.224  12.923  10.047 -0.0314 -0.1127 -0.2730
  460loPI   C2B 7358  13.223  12.984   9.570  0.0306  0.2619 -0.3307
  460loPI   C3B 7359  13.317  12.968   9.079 -0.0597 -0.1031  0.0380
  460loPI   C4B 7360  13.501  12.781   8.683 -0.1372 -0.2872  0.2946
  461loPI    C1 7361   2.925  14.482  11.003  0.0509  0.0650  0.0150
  461loPI    C2 7362   2.873  14.791  10.754 -0.0099 -0.0578 -0.1260
  461loPI    C3 7363   3.196  14.776  10.989  0.1086  0.0009 -0.2839
  461loPI   PO4 7364   2.782  14.342  11.119  0.1457 -0.0339 -0.0815
  461loPI   GL1 7365   2.553  14.197  10.703 -0.0119 -0.1367 -0.0049
  461loPI   GL2 7366   2.467  14.541  10.650 -0.1308 -0.2980 -0.1438
  461loPI   C1A 7367   2.892  14.476  10.415  0.1902  0.0687 -0.1636
  461loPI   C2A 7368   2.815  14.567  10.048 -0.0867  0.2127  0.1359
  461loPI   C3A 7369   2.743  14.571   9.618  0.1734 -0.2173 -0.0112
  461loPI   C4A 7370   2.781  14.477   9.137  0.0577  0.1081 -0.0261
  461loPI   C5A 7371   2.745  14.698   8.731 -0.0529  0.2253  0.1139
  461loPI   C6A 7372   2.843  14.973   8.395  0.2010  0.3173 -0.3294
  461loPI   C1B 7373   2.403  14.583  10.272  0.1621  0.0365  0.0566
  461loPI   C2B 7374   2.282  14.607   9.845 -0.0774  0.0351 -0.2980
  461loPI   C3B 7375   2.197  14.727   9.489 -0.2164 -0.2594 -0.0397
  461loPI   C4B 7376   2.311  14.588   9.081  0.0317  0.2460  0.0039
  462loPI    C1 7377  12.113  13.699  11.082  0.1408  0.0138 -0.3211
  462loPI    C2 7378  12.200  13.312  11.132 -0.1887 -0.0166  0.0706
  462loPI    C3 7379  12.483  13.589  11.186  0.0279 -0.1951 -0.1304
  462loPI   PO4 7380  11.977  13.741  10.840  0.0412 -0.2569  0.0245
  462loPI   GL1 7381  11.877  13.762  10.495  0.4048 -0.0003  0.0935
  462loPI   GL2 7382  11.710  13.526  10.297 -0.0496  0.2151  0.1521
  462loPI   C1A 7383  12.144  13.736  10.110 -0.3122 -0.2784 -0.2593
  462loPI   C2A 7384  12.163  13.888   9.689  0.1870  0.1722  0.2031
  462loPI   C3A 7385  12.184  13.916   9.200  0.1390  0.2127  0.1987
  462loPI   C4A 7386  12.532  13.864   8.959 -0.2972  0.1582 -0.0390
  462loPI   C5A 7387  12.824  13.653   8.828 -0.3645 -0.3112  0.4163
  462loPI   C6A 7388  13.305  13.681   8.774 -0.6079 -0.0619 -0.1708
  462loPI   C1B 7389  11.442  13.644   9.974 -0.1607  0.3766  0.0879
  462loPI   C2B 7390  11.364  13.380   9.680  0.0777  0.0110  0.0346
  462loPI   C3B 7391  11.439  13.365   9.260 -0.1096 -0.1950 -0.0119
  462loPI   C4B 7392  11.405  13.593   8.901 -0.0709 -0.1361  0.1689
  463loPI    C1 7393   0.823   6.404  10.400  0.0726 -0.1463  0.1008
  463loPI    C2 7394   0.944   6.398  10.781  0.2194 -0.0154  0.0571
  463loPI    C3 7395   0.630   6.178  10.668  0.0273  0.1274  0.3028
  463loPI   PO4 7396   0.964   6.683  10.223  0.0253 -0.1182 -0.0677
  463loPI   GL1 7397   1.047   6.928   9.811 -0.0019 -0.0509 -0.0786
  463loPI   GL2 7398   1.331   6.765   9.802  0.1404  0.1521 -0.0403
  463loPI   C1A 7399   1.046   6.984   9.334 -0.1538  0.1037 -0.1284
  463loPI   C2A 7400   1.046   7.090   8.820 -0.1696 -0.0831  0.1707
  463loPI   C3A 7401   0.832   7.283   8.376  0.1303  0.2751  0.1985
  463loPI   C4A 7402   0.664   7.128   7.910  0.1264 -0.1222 -0.3351
  463loPI   C5A 7403   0.735   6.833   7.489  0.1016 -0.1768  0.0944
  463loPI   C6A 7404   0.831   6.412   7.518 -0.1363  0.0985  0.1758
  463loPI   C1B 7405   1.223   6.505   9.553  0.3648  0.1239  0.0849
  463loPI   C2B 7406   1.083   6.519   9.131  0.0471  0.1055 -0.3800
  463loPI   C3B 7407   1.146   6.587   8.671 -0.0926 -0.2311 -0.0547
  463loPI   C4B 7408   1.055   6.304   8.282  0.1009 -0.3015  0.1731
  464loPI    C1 7409   9.010   7.519  11.013 -0.1349 -0.3099  0.1851
  464loPI    C2 7410   9.364   7.502  10.828 -0.3202 -0.1054 -0.2007
  464loPI    C3 7411   9.347   7.574  11.221  0.0569  0.1256 -0.2213
  464loPI   PO4 7412   8.851   7.601  10.789  0.0390 -0.1570  0.3018
  464loPI   GL1 7413   8.842   7.692  10.347 -0.0378  0.1321  0.1640
  464loPI   GL2 7414   9.068   7.863  10.450 -0.1199 -0.2332  0.1991
  464loPI   C1A 7415   8.785   7.697   9.965  0.1812 -0.2796 -0.1517
  464loPI   C2A 7416   8.941   7.709   9.515  0.2497 -0.0387 -0.3364
  464loPI   C3A 7417   9.051   7.741   9.077  0.1470  0.0702 -0.0153
  464loPI   C4A 7418   8.986   7.865   8.646  0.1119 -0.0056 -0.0717
  464loPI   C5A 7419   8.943   8.035   8.260 -0.2530  0.0611 -0.0421
  464loPI   C6A 7420   8.657   8.059   7.887  0.1042  0.2863  0.1120
  464loPI   C1B 7421   9.080   8.083  10.111  0.1960 -0.0862 -0.1002
  464loPI   C2B 7422   9.169   8.221   9.714  0.1517  0.0187 -0.0717
  464loPI   C3B 7423   9.220   8.291   9.386  0.1571  0.2066  0.2341
  464loPI   C4B 7424   9.318   8.183   8.973  0.0573  0.2560 -0.2832
  465loPI    C1 7425   8.908   5.886  10.930  0.0804 -0.0448  0.1083
  465loPI    C2 7426   8.773   6.118  11.227  0.1196 -0.1700  0.2248
  465loPI    C3 7427   8.770   5.720  11.266  0.2330 -0.1838  0.1036
  465loPI   PO4 7428   8.829   5.938  10.756  0.0779  0.2503 -0.2672
  465loPI   GL1 7429   8.655   5.770  10.303  0.1625  0.1798 -0.0492
  465loPI   GL2 7430   8.733   6.132  10.289 -0.1094  0.0275 -0.0687
  465loPI   C1A 7431   8.678   5.928   9.827 -0.0690 -0.3103  0.1821
  465loPI   C2A 7432   8.632   5.930   9.290 -0.3451  0.1295  0.3387
  465loPI   C3A 7433   8.444   5.860   8.828 -0.3229  0.1581  0.0880
  465loPI   C4A 7434   8.583   5.999   8.413  0.4029 -0.2074  0.2541
  465loPI   C5A 7435   8.801   6.202   8.166 -0.0351  0.1360  0.0766
  465loPI   C6A 7436   9.024   6.629   8.087  0.0242  0.0446  0.2551
  465loPI   C1B 7437   9.108   6.280  10.019 -0.2235  0.0991  0.0709
  465loPI   C2B 7438   9.239   6.460   9.654 -0.1380  0.0759  0.1390
  465loPI   C3B 7439   9.310   6.405   9.232 -0.1424 -0.0661  0.0867
  465loPI   C4B 7440   9.358   6.344   8.808  0.1271  0.1488 -0.0003
  466loPI    C1 7441  12.687  10.432  10.952  0.2315  0.1360  0.0363
  466loPI    C2 7442  13.070  10.533  11.008  0.2994  0.0080 -0.1836
  466loPI    C3 7443  12.934  10.181  11.143  0.2974 -0.0122 -0.2382
  466loPI   PO4 7444  12.687  10.465  10.678  0.1955  0.0468 -0.3960
  466loPI   GL1 7445  12.378  10.462  10.365 -0.0171 -0.0959 -0.1401
  466loPI   GL2 7446  12.502  10.157  10.244  0.2321 -0.1118 -0.5030
  466loPI   C1A 7447  12.300  10.720  10.038  0.1291 -0.1893 -0.4208
  466loPI   C2A 7448  12.156  10.703   9.637 -0.0109 -0.1797 -0.0569
  466loPI   C3A 7449  12.232  10.829   9.180  0.1849 -0.0890 -0.0632
  466loPI   C4A 7450  12.146  10.696   8.778 -0.1073 -0.3665  0.0017
  466loPI   C5A 7451  12.379  10.742   8.553 -0.0028  0.0992 -0.0346
  466loPI   C6A 7452  12.298  10.967   8.243  0.1332 -0.4833 -0.1370
  466loPI   C1B 7453  12.359  10.063   9.903 -0.1043  0.1098 -0.4055
  466loPI   C2B 7454  12.326   9.888   9.523  0.0849  0.0450  0.0400
  466loPI   C3B 7455  12.208   9.963   9.116 -0.0290  0.2413  0.1331
  466loPI   C4B 7456  12.074   9.598   9.039  0.1583  0.0885  0.0745
  467loPI    C1 7457   6.281   3.722  11.272 -0.0624  0.1481  0.1109
  467loPI    C2 7458   6.555   3.994  11.377 -0.1191  0.2060  0.1097
  467loPI    C3 7459   6.212   3.967  11.581 -0.1306  0.1619  0.0847
  467loPI   PO4 7460   6.301   3.596  11.068  0.2936  0.0302  0.1753
  467loPI   GL1 7461   6.274   3.592  10.703 -0.2305  0.1634  0.0908
  467loPI   GL2 7462   6.604   3.535  10.633 -0.0412 -0.1394 -0.0350
  467loPI   C1A 7463   6.393   3.889  10.369 -0.0274  0.3847 -0.0598
  467loPI   C2A 7464   6.542   4.190  10.096 -0.3568  0.0396 -0.3324
  467loPI   C3A 7465   6.463   4.334   9.624 -0.1160  0.1080 -0.1071
  467loPI   C4A 7466   6.347   4.344   9.187 -0.2842 -0.3950 -0.0779
  467loPI   C5A 7467   6.571   4.404   8.676  0.0965 -0.2593 -0.0307
  467loPI   C6A 7468   6.950   4.319   8.477 -0.1446 -0.0874  0.0998
  467loPI   C1B 7469   6.611   3.428  10.204 -0.0232 -0.1184 -0.1010
  467loPI   C2B 7470   6.736   3.348   9.786  0.1500  0.1485 -0.1934
  467loPI   C3B 7471   6.617   3.394   9.252 -0.2211 -0.0016  0.2182
  467loPI   C4B 7472   6.574   3.374   8.803  0.2080  0.1395 -0.0056
  468loPI    C1 7473  13.495   8.907  10.588 -0.0800  0.1238  0.0395
  468loPI    C2 7474  13.192   9.160  10.526 -0.0062  0.2187  0.0619
  468loPI    C3 7475  13.166   8.885  10.814 -0.0862  0.2014  0.0387
  468loPI   PO4 7476  13.552   8.807  10.336  0.0568 -0.1602  0.1988
  468loPI   GL1 7477  13.500   8.764   9.941  0.1902 -0.0122 -0.1101
  468loPI   GL2 7478  13.331   9.102  10.028  0.2207 -0.0314  0.0777
  468loPI   C1A 7479  13.390   8.644   9.587 -0.2942 -0.0139  0.0050
  468loPI   C2A 7480  13.357   8.516   9.139  0.0421 -0.0119  0.0660
  468loPI   C3A 7481  13.198   8.670   8.753  0.0058  0.1792  0.0991
  468loPI   C4A 7482  12.857   8.626   8.475 -0.0113  0.1522 -0.2559
  468loPI   C5A 7483  12.422   8.651   8.424  0.0181  0.3003 -0.1680
  468loPI   C6A 7484  12.117   8.388   8.411  0.0409 -0.0902 -0.1345
  468loPI   C1B 7485  13.476   9.144   9.569  0.4138 -0.0386 -0.3683
  468loPI   C2B 7486  13.361   9.124   9.256 -0.2288  0.1612 -0.0242
  468loPI   C3B 7487  13.222   9.194   8.860 -0.0353  0.4309  0.3066
  468loPI   C4B 7488  13.292   9.368   8.504  0.1445 -0.0543 -0.1012
  469loPI    C1 7489  11.900  12.609  10.709  0.1102 -0.3553  0.1445
  469loPI    C2 7490  11.913  12.876  11.006  0.0984 -0.2034  0.0097
  469loPI    C3 7491  11.756  12.514  11.070  0.1876 -0.2072  0.2151
  469loPI   PO4 7492  11.882  12.793  10.479  0.0556  0.0305  0.0757
  469loPI   GL1 7493  12.307  12.759  10.130  0.0720  0.1440 -0.0462
  469loPI   GL2 7494  12.478  12.503  10.016  0.0156  0.1033  0.1990
  469loPI   C1A 7495  11.964  12.603   9.800  0.1957 -0.0779  0.0379
  469loPI   C2A 7496  11.859  12.485   9.433 -0.1280  0.0385  0.0998
  469loPI   C3A 7497  11.961  12.504   9.012  0.1226 -0.1187 -0.0092
  469loPI   C4A 7498  12.056  12.469   8.675  0.1277 -0.3133  0.1297
  469loPI   C5A 7499  11.933  12.263   8.306 -0.2078 -0.0218  0.1320
  469loPI   C6A 7500  11.749  12.109   7.831 -0.1560  0.0598 -0.0564
  469loPI   C1B 7501  12.395  12.575   9.557 -0.3183 -0.1956 -0.0524
  469loPI   C2B 7502  12.458  12.646   9.103 -0.1651 -0.1773  0.0564
  469loPI   C3B 7503  12.535  12.511   8.645 -0.3204  0.0649  0.0019
  469loPI   C4B 7504  12.724  12.393   8.311 -0.3188 -0.2057  0.1962
  470loPI    C1 7505   2.104   4.124  10.387 -0.0042 -0.0653  0.0850
  470loPI    C2 7506   2.105   4.137  10.787  0.2363 -0.0038  0.0838
  470loPI    C3 7507   2.451   4.152  10.585  0.1173 -0.0504 -0.1264
  470loPI   PO4 7508   2.043   4.311  10.277  0.1026 -0.0082 -0.1276
  470loPI   GL1 7509   1.679   4.425   9.987 -0.2570 -0.1648 -0.0741
  470loPI   GL2 7510   1.303   4.470  10.080 -0.0041 -0.3010 -0.0935
  470loPI   C1A 7511   1.948   4.494   9.584  0.0179  0.1646 -0.3708
  470loPI   C2A 7512   1.890   4.494   9.182 -0.0803 -0.0518  0.0135
  470loPI   C3A 7513   1.929   4.545   8.712  0.0360  0.2310  0.4930
  470loPI   C4A 7514   1.902   4.528   8.208 -0.0496 -0.1715 -0.0274
  470loPI   C5A 7515   2.047   4.295   7.817  0.0216 -0.0822 -0.1069
  470loPI   C6A 7516   2.125   3.874   7.643  0.3624 -0.1352  0.1653
  470loPI   C1B 7517   1.325   4.609   9.720  0.2412  0.0874  0.3470
  470loPI   C2B 7518   1.367   4.579   9.218  0.2885 -0.2304  0.0750
  470loPI   C3B 7519   1.378   4.537   8.818  0.0390 -0.0579 -0.1245
  470loPI   C4B 7520   1.398   4.599   8.335 -0.1160  0.2037 -0.1346
  471loPI    C1 7521  12.596   2.744  10.702  0.0984  0.1673  0.0422
  471loPI    C2 7522  12.515   3.128  10.783 -0.2064  0.0678  0.2273
  471loPI    C3 7523  12.377   2.839  11.023 -0.1040 -0.1681  0.0083
  471loPI   PO4 7524  12.814   2.742  10.586 -0.0706 -0.1630 -0.0681
  471loPI   GL1 7525  12.867   2.665  10.163  0.1565  0.1548 -0.1331
  471loPI   GL2 7526  12.813   2.377  10.215  0.2091 -0.3147  0.2034
  471loPI   C1A 7527  12.942   2.708   9.705  0.1246  0.0362  0.0207
  471loPI   C2A 7528  12.986   2.753   9.289  0.1668 -0.1748 -0.2666
  471loPI   C3A 7529  12.936   2.777   8.898 -0.1367 -0.0852 -0.2870
  471loPI   C4A 7530  12.817   2.892   8.564  0.1768  0.0678  0.3197
  471loPI   C5A 7531  13.033   2.757   8.272  0.0224  0.1063  0.2335
  471loPI   C6A 7532  13.305   2.701   7.936 -0.0531  0.1493  0.1993
  471loPI   C1B 7533  12.859   2.205   9.855 -0.0091 -0.0528 -0.1433
  471loPI   C2B 7534  12.917   2.302   9.418 -0.1563  0.2828  0.0164
  471loPI   C3B 7535  12.899   2.177   9.102 -0.1324  0.2745 -0.1134
  471loPI   C4B 7536  12.890   2.315   8.658  0.0371 -0.1301 -0.3051
  472loPI    C1 7537  14.747   7.668  10.563  0.0233  0.0201  0.1281
  472loPI    C2 7538  14.784   7.976  10.815 -0.0422  0.2186 -0.1006
  472loPI    C3 7539  14.614   7.636  10.939  0.3462  0.1465  0.2563
  472loPI   PO4 7540  14.631   7.835  10.319  0.1375 -0.0452 -0.1574
  472loPI   GL1 7541  14.717   7.883   9.825  0.2777  0.1949  0.0460
  472loPI   GL2 7542  14.818   7.559   9.651  0.0012  0.1113 -0.3184
  472loPI   C1A 7543  14.550   7.942   9.486 -0.0292 -0.0605  0.0119
  472loPI   C2A 7544  14.506   7.980   9.130  0.1368 -0.3283 -0.1501
  472loPI   C3A 7545  14.480   8.002   8.762 -0.2405  0.1023  0.2474
  472loPI   C4A 7546  14.593   7.971   8.305  0.2067 -0.0485 -0.1584
  472loPI   C5A 7547  14.647   7.728   7.953  0.0141 -0.1084  0.2189
  472loPI   C6A 7548  15.053   7.732   7.784  0.1981  0.0711  0.0933
  472loPI   C1B 7549  14.968   7.544   9.229 -0.0427  0.1292 -0.2176
  472loPI   C2B 7550  14.853   7.659   8.772 -0.1935  0.0897 -0.0791
  472loPI   C3B 7551  15.033   7.745   8.357 -0.1120 -0.1310  0.1499
  472loPI   C4B 7552  15.036   8.113   8.084  0.0610  0.1431  0.1690
  473loPI    C1 7553  17.048  18.000  11.344  0.2028 -0.0692 -0.0311
  473loPI    C2 7554  16.841  18.014  11.686  0.0772 -0.1104 -0.1051
  473loPI    C3 7555  17.087  17.707  11.613  0.0388 -0.1450 -0.0889
  473loPI   PO4 7556  16.831  18.150  11.101  0.2629  0.1737 -0.0742
  473loPI   GL1 7557  16.712  18.238  10.703 -0.2023 -0.1488 -0.1360
  473loPI   GL2 7558  17.039  18.207  10.660  0.3157 -0.2497 -0.1353
  473loPI   C1A 7559  16.938  18.313  10.204  0.0853 -0.1074 -0.2738
  473loPI   C2A 7560  16.910  18.437   9.755 -0.2416  0.0157 -0.0619
  473loPI   C3A 7561  17.086  18.474   9.372  0.0595 -0.0137 -0.2332
  473loPI   C4A 7562  16.961  18.492   8.921  0.1760 -0.0934  0.1093
  473loPI   C5A 7563  16.840  18.554   8.462 -0.3108 -0.4237 -0.1153
  473loPI   C6A 7564  16.629  18.529   8.111  0.0492 -0.1835 -0.0173
  473loPI   C1B 7565  17.202  17.915  10.371  0.3517  0.2083 -0.2372
  473loPI   C2B 7566  17.060  17.881   9.953 -0.2918  0.0029  0.1210
  473loPI   C3B 7567  17.162  18.000   9.500  0.1474  0.2135 -0.1939
  473loPI   C4B 7568  17.203  18.083   9.078  0.1362  0.1197 -0.5183
  474loPI    C1 7569   6.495   0.480  11.301 -0.0989  0.0266 -0.1933
  474loPI    C2 7570   6.485   0.143  11.515  0.1025  0.0625 -0.1254
  474loPI    C3 7571   6.270   0.459  11.631 -0.2117 -0.0910 -0.2768
  474loPI   PO4 7572   6.391   0.580  11.021  0.0271 -0.0666  0.1461
  474loPI   GL1 7573   6.514   0.608  10.590  0.1269 -0.1612  0.1171
  474loPI   GL2 7574   6.522   0.323  10.606 -0.0427 -0.1013  0.1716
  474loPI   C1A 7575   6.384   0.909  10.276  0.1877  0.3221 -0.2511
  474loPI   C2A 7576   6.034   0.942  10.053  0.2015 -0.0388  0.0647
  474loPI   C3A 7577   5.919   1.022   9.617  0.3285 -0.0973  0.0103
  474loPI   C4A 7578   5.789   1.087   9.255  0.4216 -0.0949  0.1901
  474loPI   C5A 7579   5.667   0.922   8.889 -0.1688 -0.1140 -0.0797
  474loPI   C6A 7580   5.436   0.711   8.517 -0.1560  0.1522  0.0961
  474loPI   C1B 7581   6.693   0.245  10.297 -0.0879 -0.1265  0.2056
  474loPI   C2B 7582   6.789   0.100   9.918  0.1543 -0.1954 -0.1532
  474loPI   C3B 7583   6.797   0.153   9.597  0.0921 -0.2053 -0.1175
  474loPI   C4B 7584   6.765   0.135   9.188 -0.3061  0.2018 -0.1320
  475loPI    C1 7585  14.942  15.950  11.206  0.0485 -0.0543  0.0795
  475loPI    C2 7586  15.051  16.250  11.447 -0.0664  0.1284 -0.0926
  475loPI    C3 7587  14.869  15.927  11.598  0.2446  0.0500  0.1232
  475loPI   PO4 7588  14.864  16.056  10.954 -0.0485 -0.0631  0.1102
  475loPI   GL1 7589  14.865  15.857  10.570 -0.1004 -0.1190 -0.0784
  475loPI   GL2 7590  15.191  16.013  10.540 -0.1310 -0.1340  0.1807
  475loPI   C1A 7591  14.763  15.584  10.211 -0.3190  0.1015 -0.5088
  475loPI   C2A 7592  14.688  15.534   9.832 -0.0608  0.2438  0.0519
  475loPI   C3A 7593  14.691  15.514   9.422  0.2458 -0.1280  0.2069
  475loPI   C4A 7594  14.791  15.629   8.989  0.1673 -0.1289 -0.0208
  475loPI   C5A 7595  14.836  15.603   8.571 -0.2772 -0.0364  0.2027
  475loPI   C6A 7596  14.631  15.550   8.118  0.0042 -0.1021  0.0213
  475loPI   C1B 7597  15.351  15.945  10.140 -0.0965 -0.0018 -0.2062
  475loPI   C2B 7598  15.484  15.940   9.728  0.1130  0.1421  0.1595
  475loPI   C3B 7599  15.573  15.818   9.276 -0.0286  0.2060  0.1578
  475loPI   C4B 7600  15.651  15.877   8.868 -0.0607 -0.0926 -0.2048
  476loPI    C1 7601   1.966   3.317  10.945 -0.2451 -0.1634 -0.0474
  476loPI    C2 7602   2.123   3.201  11.295  0.0071 -0.1452 -0.1518
  476loPI    C3 7603   1.859   3.502  11.283 -0.0427 -0.1807  0.0277
  476loPI   PO4 7604   2.177   3.307  10.767 -0.1298 -0.0993 -0.0742
  476loPI   GL1 7605   2.355   3.176  10.306 -0.2069  0.0162 -0.2776
  476loPI   GL2 7606   2.299   2.931  10.112 -0.3522  0.4330  0.1571
  476loPI   C1A 7607   2.726   3.131  10.026 -0.1976 -0.2427 -0.1219
  476loPI   C2A 7608   2.814   3.239   9.652  0.3307  0.0870  0.2657
  476loPI   C3A 7609   2.791   3.026   9.176 -0.0231 -0.0949 -0.0161
  476loPI   C4A 7610   2.949   2.881   8.750  0.1064 -0.2233 -0.1890
  476loPI   C5A 7611   2.946   2.890   8.229 -0.1836  0.1896 -0.3337
  476loPI   C6A 7612   2.973   2.658   7.833 -0.3029  0.0066  0.2205
  476loPI   C1B 7613   2.408   2.869   9.678 -0.1838 -0.0241 -0.0552
  476loPI   C2B 7614   2.320   2.873   9.271  0.1343 -0.1162  0.0183
  476loPI   C3B 7615   2.398   2.849   8.816 -0.0256  0.1350  0.3301
  476loPI   C4B 7616   2.410   2.831   8.309  0.2767 -0.1188 -0.0646
  477loPI    C1 7617   2.136  16.261  11.072 -0.0097  0.0901  0.0391
  477loPI    C2 7618   2.516  16.342  11.168  0.0172 -0.0143  0.0225
  477loPI    C3 7619   2.262  16.211  11.448 -0.0611  0.2501  0.0785
  477loPI   PO4 7620   2.144  16.051  10.814 -0.0643 -0.2213  0.1616
  477loPI   GL1 7621   2.143  16.006  10.407 -0.0301  0.0030  0.0139
  477loPI   GL2 7622   2.265  15.714  10.435 -0.0907  0.2086  0.0580
  477loPI   C1A 7623   2.153  16.096   9.954  0.0757  0.1450 -0.0541
  477loPI   C2A 7624   2.237  16.091   9.519 -0.1086 -0.1180 -0.2134
  477loPI   C3A 7625   2.233  16.030   9.081  0.0784 -0.4482  0.2430
  477loPI   C4A 7626   2.298  16.051   8.655  0.0048  0.0779 -0.2340
  477loPI   C5A 7627   2.279  15.933   8.345 -0.0902  0.1130 -0.1171
  477loPI   C6A 7628   2.319  16.054   7.924  0.3290  0.0513 -0.1623
  477loPI   C1B 7629   2.392  15.659   9.970  0.0791  0.2373 -0.2267
  477loPI   C2B 7630   2.375  15.535   9.561 -0.0907 -0.2698  0.0817
  477loPI   C3B 7631   2.406  15.576   9.177  0.1417 -0.2693  0.0970
  477loPI   C4B 7632   2.463  15.468   8.740  0.2248  0.2285 -0.1662
  478loPI    C1 7633  12.871  14.403  11.006 -0.1357  0.1014  0.4380
  478loPI    C2 7634  12.581  14.489  10.745  0.0377 -0.0545  0.1898
  478loPI    C3 7635  12.756  14.782  10.953 -0.0177  0.0860  0.0404
  478loPI   PO4 7636  12.997  14.145  10.829 -0.4455  0.4041 -0.0032
  478loPI   GL1 7637  12.767  13.845  10.640  0.0888 -0.0777  0.0126
  478loPI   GL2 7638  13.090  13.676  10.556 -0.1687  0.3580  0.1747
  478loPI   C1A 7639  12.638  13.698  10.284  0.1079  0.1025 -0.2097
  478loPI   C2A 7640  12.578  13.497   9.797 -0.1192 -0.0190  0.1076
  478loPI   C3A 7641  12.540  13.527   9.350 -0.0253 -0.2737  0.0979
  478loPI   C4A 7642  12.380  13.434   8.985  0.1002  0.0002  0.0847
  478loPI   C5A 7643  12.128  13.739   8.629  0.0375  0.1365  0.0384
  478loPI   C6A 7644  12.180  13.955   8.267  0.1719  0.3170 -0.4796
  478loPI   C1B 7645  13.364  13.798  10.259  0.0116 -0.2970 -0.1937
  478loPI   C2B 7646  13.671  14.039   9.989  0.2082 -0.0394 -0.1098
  478loPI   C3B 7647  13.920  13.892   9.658  0.0718  0.3382 -0.1178
  478loPI   C4B 7648  13.895  13.787   9.163  0.1011  0.1753 -0.1254
  479loPI    C1 7649   8.728  16.958  10.905  0.0787  0.0245 -0.0224
  479loPI    C2 7650   8.901  16.644  11.081 -0.0690 -0.1025 -0.1011
  479loPI    C3 7651   8.833  16.978  11.291 -0.2150 -0.2406  0.0752
  479loPI   PO4 7652   8.565  16.842  10.682  0.0847 -0.0799  0.1408
  479loPI   GL1 7653   8.214  16.738  10.313 -0.1325  0.1686  0.3603
  479loPI   GL2 7654   8.215  16.470  10.542  0.4272 -0.0757  0.2714
  479loPI   C1A 7655   8.325  16.846   9.987 -0.1184 -0.1092  0.0167
  479loPI   C2A 7656   8.424  16.674   9.620 -0.0711 -0.1540 -0.0770
  479loPI   C3A 7657   8.352  16.752   9.143  0.2210  0.0244 -0.1397
  479loPI   C4A 7658   8.236  16.895   8.757  0.3980 -0.2410 -0.0207
  479loPI   C5A 7659   8.304  17.006   8.267  0.2393  0.1624 -0.3701
  479loPI   C6A 7660   8.683  16.961   8.024 -0.0462  0.2778  0.0270
  479loPI   C1B 7661   8.253  16.295  10.107 -0.3349  0.1304 -0.0749
  479loPI   C2B 7662   8.341  16.221   9.608 -0.0569 -0.1573  0.1406
  479loPI   C3B 7663   8.226  16.226   9.208 -0.1211 -0.1118 -0.0610
  479loPI   C4B 7664   8.084  16.226   8.827 -0.0568 -0.0099  0.2275
  480loPI    C1 7665   9.390  13.052  10.927 -0.0197  0.0270 -0.1653
  480loPI    C2 7666   9.585  12.771  11.135  0.1686  0.0664 -0.2861
  480loPI    C3 7667   9.346  13.030  11.324 -0.0362 -0.1966 -0.1783
  480loPI   PO4 7668   9.521  13.151  10.649  0.0271 -0.3872  0.3025
  480loPI   GL1 7669   9.497  13.274  10.255 -0.2566  0.3300  0.0618
  480loPI   GL2 7670   9.342  13.599  10.142  0.2258  0.3736 -0.4502
  480loPI   C1A 7671   9.761  13.326   9.875 -0.1580  0.0676  0.2825
  480loPI   C2A 7672   9.920  13.432   9.475  0.0355  0.3055 -0.0319
  480loPI   C3A 7673   9.957  13.395   9.032 -0.1742  0.1105 -0.1674
  480loPI   C4A 7674  10.066  13.302   8.613 -0.2318  0.1016  0.1329
  480loPI   C5A 7675  10.143  13.449   8.233  0.0995  0.3318  0.2113
  480loPI   C6A 7676   9.912  13.510   7.846  0.0882 -0.0825 -0.4442
  480loPI   C1B 7677   9.189  13.357   9.769  0.0599 -0.0851  0.0746
  480loPI   C2B 7678   8.933  13.350   9.407 -0.0832 -0.2036  0.3724
  480loPI   C3B 7679   8.801  13.445   9.012  0.0995 -0.1641  0.0285
  480loPI   C4B 7680   8.827  13.724   8.671 -0.1382 -0.0015 -0.0564
  481loPI    C1 7681   0.595   9.464  10.551  0.0929 -0.2378  0.0225
  481loPI    C2 7682   0.739   9.825  10.645 -0.2441 -0.0403 -0.2006
  481loPI    C3 7683   0.542   9.611  10.920 -0.0615 -0.0471 -0.0738
  481loPI   PO4 7684   0.513   9.487  10.341  0.0813 -0.1431 -0.1094
  481loPI   GL1 7685   0.192   9.691  10.128 -0.2657 -0.0097  0.0584
  481loPI   GL2 7686  -0.125   9.639  10.060  0.1049  0.1787  0.1417
  481loPI   C1A 7687   0.324   9.554   9.652  0.3640 -0.2426  0.3490
  481loPI   C2A 7688   0.204   9.490   9.195  0.1377 -0.1602  0.0733
  481loPI   C3A 7689   0.272   9.753   8.823  0.0140 -0.2265 -0.3134
  481loPI   C4A 7690   0.229   9.877   8.395  0.0977 -0.0014 -0.2104
  481loPI   C5A 7691  -0.001  10.012   8.012  0.1268  0.2726 -0.1520
  481loPI   C6A 7692  -0.249  10.270   8.055 -0.0932 -0.2245 -0.0938
  481loPI   C1B 7693  -0.128   9.893   9.732  0.1045  0.2368 -0.0035
  481loPI   C2B 7694  -0.132   9.889   9.263  0.2657  0.0730  0.0156
  481loPI   C3B 7695   0.024  10.170   8.984 -0.1139  0.1505 -0.0190
  481loPI   C4B 7696  -0.124  10.584   9.003 -0.1341  0.0712  0.1849
  482loPI    C1 7697  14.495  11.746  11.049  0.0231 -0.0920  0.2431
  482loPI    C2 7698  14.536  12.111  11.207  0.1072  0.0311 -0.0551
  482loPI    C3 7699  14.774  11.813  11.328 -0.0095  0.0546  0.2411
  482loPI   PO4 7700  14.509  11.771  10.834  0.3296 -0.1993  0.2398
  482loPI   GL1 7701  14.617  11.727  10.470  0.0140  0.2019  0.0521
  482loPI   GL2 7702  14.939  11.867  10.533 -0.0961 -0.0311 -0.1952
  482loPI   C1A 7703  14.518  12.020  10.105  0.1710 -0.2329 -0.4938
  482loPI   C2A 7704  14.200  12.015   9.830 -0.1355 -0.0931 -0.0858
  482loPI   C3A 7705  14.125  11.989   9.351  0.2544 -0.0733  0.1596
  482loPI   C4A 7706  14.124  11.948   8.921 -0.0488  0.1669  0.0026
  482loPI   C5A 7707  14.033  11.555   8.658  0.0945  0.1371  0.1007
  482loPI   C6A 7708  14.042  11.257   8.340 -0.3878 -0.0839  0.1522
  482loPI   C1B 7709  14.925  11.774  10.013 -0.0318  0.0590 -0.2023
  482loPI   C2B 7710  14.680  11.833   9.640  0.0548 -0.2095  0.0559
  482loPI   C3B 7711  14.489  11.631   9.225  0.1035  0.1578 -0.0479
  482loPI   C4B 7712  14.030  11.537   9.158 -0.3066 -0.0102  0.1484
  483loPI    C1 7713  12.081   8.405  10.978  0.0637 -0.1460 -0.1771
  483loPI    C2 7714  12.098   8.482  11.370 -0.1414 -0.0092 -0.1934
  483loPI    C3 7715  12.435   8.443  11.158 -0.0305  0.0054 -0.0211
  483loPI   PO4 7716  11.855   8.251  11.006  0.0720 -0.2151 -0.0429
  483loPI   GL1 7717  11.678   7.965  10.587  0.0965  0.0590 -0.0202
  483loPI   GL2 7718  11.874   8.175  10.522 -0.0242  0.0329  0.0134
  483loPI   C1A 7719  11.639   7.854  10.159  0.3131  0.0544 -0.2959
  483loPI   C2A 7720  11.608   7.852   9.733  0.0398 -0.1724  0.0507
  483loPI   C3A 7721  11.620   7.866   9.339  0.1603  0.3366  0.3656
  483loPI   C4A 7722  11.550   7.956   8.932  0.0722  0.2778  0.0310
  483loPI   C5A 7723  11.548   8.021   8.535  0.0348 -0.1322  0.0831
  483loPI   C6A 7724  11.610   7.929   8.158 -0.0601 -0.0958 -0.2641
  483loPI   C1B 7725  11.923   8.262  10.059 -0.1098  0.1001 -0.0699
  483loPI   C2B 7726  11.858   8.385   9.568  0.2565 -0.1289 -0.1771
  483loPI   C3B 7727  11.846   8.343   9.181 -0.1746 -0.1101 -0.1133
  483loPI   C4B 7728  11.812   8.400   8.770 -0.1600 -0.1192 -0.2107
  484loPI    C1 7729   5.329   5.223  10.462  0.0704 -0.1028  0.0387
  484loPI    C2 7730   5.314   4.835  10.369  0.2347 -0.0961 -0.0197
  484loPI    C3 7731   5.418   4.948  10.738  0.0716 -0.1099  0.0312
  484loPI   PO4 7732   5.060   5.327  10.438 -0.1299  0.0349  0.2991
  484loPI   GL1 7733   4.711   5.241  10.160  0.0654  0.1035  0.3239
  484loPI   GL2 7734   5.003   5.093  10.044  0.0241 -0.1670  0.0915
  484loPI   C1A 7735   4.607   5.260   9.681 -0.2073 -0.2066  0.2458
  484loPI   C2A 7736   4.559   5.202   9.238  0.0426  0.1555 -0.0766
  484loPI   C3A 7737   4.653   5.268   8.875  0.0617 -0.0908  0.0579
  484loPI   C4A 7738   4.577   5.179   8.430 -0.2533 -0.2104 -0.2469
  484loPI   C5A 7739   4.482   4.802   8.056 -0.2084 -0.1222 -0.0231
  484loPI   C6A 7740   4.434   4.404   8.039 -0.1270 -0.1800  0.0145
  484loPI   C1B 7741   5.043   5.028   9.619  0.0827  0.2176 -0.0659
  484loPI   C2B 7742   5.003   4.952   9.166 -0.0526  0.1953  0.0032
  484loPI   C3B 7743   4.998   4.978   8.712 -0.0034 -0.3232 -0.4438
  484loPI   C4B 7744   5.107   4.938   8.315 -0.0123 -0.1322  0.1310
  485loPI    C1 7745   9.814  11.927  10.858  0.0839 -0.0450  0.0270
  485loPI    C2 7746  10.043  11.752  10.580 -0.2236 -0.1444 -0.1690
  485loPI    C3 7747   9.777  11.535  10.785 -0.0298 -0.0631  0.1769
  485loPI   PO4 7748   9.832  12.209  10.695  0.0995 -0.3481  0.2661
  485loPI   GL1 7749   9.972  12.287  10.312  0.1503 -0.5219  0.2478
  485loPI   GL2 7750  10.311  12.414  10.191 -0.0232 -0.1513 -0.0785
  485loPI   C1A 7751   9.886  12.414   9.885  0.0610  0.2540  0.1559
  485loPI   C2A 7752   9.914  12.544   9.550 -0.0876  0.2504  0.2509
  485loPI   C3A 7753   9.935  12.411   9.178 -0.0071  0.1167 -0.1265
  485loPI   C4A 7754   9.794  12.447   8.808 -0.3563  0.0874 -0.2992
  485loPI   C5A 7755   9.639  12.583   8.372  0.0300 -0.1297 -0.2242
  485loPI   C6A 7756   9.339  12.387   8.207  0.0011 -0.4113  0.0393
  485loPI   C1B 7757  10.376  12.396   9.773  0.1673  0.0597  0.1109
  485loPI   C2B 7758  10.426  12.514   9.323  0.0471 -0.0513  0.0863
  485loPI   C3B 7759  10.426  12.504   8.885 -0.1017  0.1024  0.1454
  485loPI   C4B 7760  10.666  12.701   8.530 -0.0393  0.2514  0.2182
  486loPI    C1 7761  12.082   7.697  10.939  0.1494 -0.0527  0.2399
  486loPI    C2 7762  11.876   7.811  11.262  0.0411 -0.0331  0.1647
  486loPI    C3 7763  11.687   7.634  10.957  0.1556 -0.1227  0.1447
  486loPI   PO4 7764  12.172   7.863  10.831  0.3888 -0.1506  0.1627
  486loPI   GL1 7765  12.116   7.768  10.397  0.1514  0.0732  0.1006
  486loPI   GL2 7766  12.408   7.866  10.394 -0.1236  0.2201  0.0799
  486loPI   C1A 7767  12.135   7.799   9.966  0.1268  0.0930 -0.0067
  486loPI   C2A 7768  12.208   7.957   9.600  0.0898 -0.0064  0.1501
  486loPI   C3A 7769  12.142   7.940   9.186  0.1446 -0.0272 -0.1129
  486loPI   C4A 7770  12.087   7.983   8.795  0.2281 -0.0981 -0.0721
  486loPI   C5A 7771  12.163   7.881   8.269 -0.1475  0.1147 -0.0858
  486loPI   C6A 7772  11.972   7.713   7.877  0.0104  0.1053 -0.1106
  486loPI   C1B 7773  12.625   7.871   9.996 -0.0157 -0.1655 -0.1259
  486loPI   C2B 7774  12.712   7.971   9.507  0.0004  0.3228  0.0499
  486loPI   C3B 7775  12.634   8.020   9.035  0.3808 -0.2388  0.1883
  486loPI   C4B 7776  12.581   8.195   8.604 -0.2115  0.0487 -0.0177
  487loPI    C1 7777  15.005   1.491  10.939 -0.0215  0.0460  0.1145
  487loPI    C2 7778  15.330   1.259  10.915 -0.0495 -0.0090  0.2549
  487loPI    C3 7779  15.337   1.591  11.138 -0.0324  0.0882  0.1112
  487loPI   PO4 7780  14.848   1.406  10.772 -0.2552  0.2727 -0.2007
  487loPI   GL1 7781  14.737   1.645  10.426 -0.2618 -0.1396  0.1274
  487loPI   GL2 7782  14.936   1.967  10.364  0.2322  0.1465  0.0761
  487loPI   C1A 7783  14.874   1.709   9.947 -0.1421  0.0595 -0.2047
  487loPI   C2A 7784  14.908   1.544   9.601 -0.1781  0.1722 -0.2674
  487loPI   C3A 7785  15.002   1.386   9.207 -0.0069  0.3517  0.4094
  487loPI   C4A 7786  14.993   1.338   8.845  0.0928  0.0457  0.0998
  487loPI   C5A 7787  14.850   1.323   8.362 -0.1465 -0.0387  0.1419
  487loPI   C6A 7788  15.116   1.106   8.039 -0.0617 -0.5018  0.2610
  487loPI   C1B 7789  15.002   2.197   9.915  0.1588  0.0534 -0.0585
  487loPI   C2B 7790  14.958   2.023   9.560 -0.1003 -0.2786  0.1634
  487loPI   C3B 7791  15.006   1.873   9.113  0.0328 -0.1697 -0.1657
  487loPI   C4B 7792  15.113   1.751   8.683  0.0211 -0.2324  0.0142
  488loPI    C1 7793   9.185   9.405  11.087 -0.3108 -0.0629  0.0655
  488loPI    C2 7794   8.971   9.720  10.965 -0.1584 -0.0163 -0.0860
  488loPI    C3 7795   8.895   9.551  11.319 -0.2355  0.1962  0.0003
  488loPI   PO4 7796   9.215   9.213  10.874 -0.2058 -0.0668 -0.0869
  488loPI   GL1 7797   9.330   9.032  10.522 -0.1851  0.1031  0.2085
  488loPI   GL2 7798   9.417   9.323  10.378 -0.1559  0.0484 -0.0404
  488loPI   C1A 7799   9.148   8.957  10.185 -0.2038 -0.1560  0.0307
  488loPI   C2A 7800   9.171   9.087   9.772  0.2504  0.2071  0.0144
  488loPI   C3A 7801   9.224   9.214   9.370 -0.2082 -0.2157  0.2374
  488loPI   C4A 7802   9.268   9.173   8.989  0.0299  0.1182  0.1864
  488loPI   C5A 7803   9.273   9.159   8.528 -0.1218 -0.0700 -0.0943
  488loPI   C6A 7804   9.519   9.037   8.132  0.0654 -0.0412 -0.0863
  488loPI   C1B 7805   9.438   9.436  10.023  0.2974  0.1883 -0.1860
  488loPI   C2B 7806   9.439   9.615   9.644 -0.0283  0.2364 -0.2722
  488loPI   C3B 7807   9.511   9.766   9.222  0.0252  0.0431 -0.1308
  488loPI   C4B 7808   9.572   9.727   8.797  0.1291  0.0248 -0.1414
  489loPI    C1 7809   2.669  15.815  11.469  0.0094  0.0988  0.1167
  489loPI    C2 7810   2.347  15.714  11.684  0.0392 -0.1556  0.0457
  489loPI    C3 7811   2.703  15.552  11.768  0.0654 -0.2006 -0.1472
  489loPI   PO4 7812   2.543  15.856  11.215 -0.2845  0.1038  0.0088
  489loPI   GL1 7813   2.638  15.975  10.722 -0.0830 -0.3110 -0.1388
  489loPI   GL2 7814   2.744  15.624  10.647  0.2274  0.1564  0.1365
  489loPI   C1A 7815   2.666  15.910  10.253  0.1973 -0.0261 -0.0582
  489loPI   C2A 7816   2.763  15.930   9.792  0.1427 -0.0698 -0.1541
  489loPI   C3A 7817   2.746  15.945   9.329 -0.0957 -0.0061 -0.1228
  489loPI   C4A 7818   2.724  15.837   8.894 -0.0286  0.0411 -0.2994
  489loPI   C5A 7819   2.769  15.905   8.541  0.0914 -0.2379  0.1981
  489loPI   C6A 7820   2.599  16.309   8.342 -0.2446  0.2447  0.1522
  489loPI   C1B 7821   2.924  15.433  10.313  0.0813 -0.0836  0.0563
  489loPI   C2B 7822   3.016  15.503   9.930  0.0418 -0.2623 -0.2507
  489loPI   C3B 7823   2.883  15.486   9.555  0.0049  0.1906 -0.0824
  489loPI   C4B 7824   2.874  15.418   9.101 -0.0386 -0.1386  0.0518
  490loPI    C1 7825   1.050   7.679  10.311  0.1528  0.0646  0.0730
  490loPI    C2 7826   0.898   7.880  10.622  0.0258  0.3090 -0.1433
  490loPI    C3 7827   0.953   7.485  10.647 -0.0477  0.3159  0.1639
  490loPI   PO4 7828   1.176   7.890  10.127 -0.0653 -0.0381  0.3226
  490loPI   GL1 7829   1.482   7.881   9.837 -0.3975  0.1153  0.1084
  490loPI   GL2 7830   1.218   7.810   9.623 -0.0097 -0.1018 -0.3327
  490loPI   C1A 7831   1.614   8.194   9.644  0.3208  0.1265  0.1719
  490loPI   C2A 7832   1.800   8.220   9.349 -0.1878 -0.2275 -0.4638
  490loPI   C3A 7833   1.860   8.276   8.957  0.0102  0.2768 -0.0768
  490loPI   C4A 7834   1.715   8.154   8.622  0.3054  0.3438  0.0595
  490loPI   C5A 7835   1.365   7.898   8.356 -0.1056  0.0484 -0.0383
  490loPI   C6A 7836   0.928   7.812   8.410 -0.0167  0.0762 -0.0266
  490loPI   C1B 7837   1.389   7.850   9.242 -0.3399 -0.1807  0.1361
  490loPI   C2B 7838   1.502   7.788   8.840  0.2339 -0.0413 -0.1077
  490loPI   C3B 7839   1.727   7.547   8.517 -0.2492  0.0506  0.0268
  490loPI   C4B 7840   1.741   7.353   8.088  0.2533 -0.0446  0.0316
  491loPI    C1 7841   8.102   5.509  11.048  0.2572 -0.1309  0.1411
  491loPI    C2 7842   8.370   5.266  11.219  0.3843  0.0464  0.1963
  491loPI    C3 7843   8.302   5.629  11.373  0.3717  0.1399 -0.0261
  491loPI   PO4 7844   8.112   5.423  10.825 -0.1493  0.1113 -0.0027
  491loPI   GL1 7845   7.930   5.516  10.489 -0.1077  0.0118 -0.0889
  491loPI   GL2 7846   7.721   5.239  10.480 -0.1637 -0.0320 -0.1108
  491loPI   C1A 7847   7.799   5.523  10.051  0.0415 -0.1266 -0.1631
  491loPI   C2A 7848   7.723   5.532   9.583  0.2648 -0.0892 -0.3698
  491loPI   C3A 7849   7.767   5.404   9.150  0.0646 -0.2230  0.1530
  491loPI   C4A 7850   7.899   5.365   8.679  0.0365  0.0908 -0.1637
  491loPI   C5A 7851   8.013   5.268   8.255 -0.1310 -0.0828 -0.1546
  491loPI   C6A 7852   7.953   5.109   7.911 -0.0491  0.1071  0.0266
  491loPI   C1B 7853   7.615   5.057  10.070  0.1688 -0.0595  0.3929
  491loPI   C2B 7854   7.593   4.933   9.639 -0.0194 -0.2359  0.0654
  491loPI   C3B 7855   7.467   5.003   9.265 -0.3426  0.2013 -0.2417
  491loPI   C4B 7856   7.420   5.035   8.792 -0.1404 -0.1382  0.0478
  492loPI    C1 7857   6.791  12.108  10.706 -0.0442 -0.1335 -0.0438
  492loPI    C2 7858   6.421  11.955  10.698 -0.1086  0.0127  0.0892
  492loPI    C3 7859   6.621  11.977  11.044 -0.0083  0.0125  0.0316
  492loPI   PO4 7860   6.861  12.039  10.464 -0.1151  0.0682 -0.3039
  492loPI   GL1 7861   6.536  12.048  10.226  0.2919 -0.0006 -0.0698
  492loPI   GL2 7862   6.269  11.857  10.067  0.1346 -0.1210  0.2986
  492loPI   C1A 7863   6.380  12.335   9.923  0.1577  0.0411 -0.0368
  492loPI   C2A 7864   6.119  12.105   9.536 -0.1080  0.1908 -0.1608
  492loPI   C3A 7865   6.212  12.110   9.119 -0.1987 -0.1062 -0.1027
  492loPI   C4A 7866   6.298  12.056   8.688 -0.0840 -0.0461  0.1453
  492loPI   C5A 7867   6.341  12.026   8.242  0.0289 -0.1585  0.0263
  492loPI   C6A 7868   6.049  12.358   7.942  0.1319  0.1714  0.0728
  492loPI   C1B 7869   6.247  11.611   9.780  0.2997 -0.2026  0.2920
  492loPI   C2B 7870   6.256  11.609   9.307  0.2166 -0.0712 -0.1144
  492loPI   C3B 7871   6.345  11.480   8.875  0.0187  0.3032 -0.0471
  492loPI   C4B 7872   6.622  11.726   8.520  0.1013  0.1032  0.3116
  493loPI    C1 7873  13.270   2.229  11.014  0.2347 -0.0747 -0.0819
  493loPI    C2 7874  13.458   2.574  10.938 -0.0653  0.1741  0.2680
  493loPI    C3 7875  13.059   2.567  10.977 -0.0647 -0.2183  0.2449
  493loPI   PO4 7876  13.311   2.099  10.901 -0.0656 -0.0591  0.1248
  493loPI   GL1 7877  13.667   2.117  10.734 -0.0749 -0.2127  0.2755
  493loPI   GL2 7878  13.910   2.274  10.563 -0.0819  0.0551  0.2003
  493loPI   C1A 7879  13.612   2.017  10.263  0.0350  0.0265  0.1592
  493loPI   C2A 7880  13.667   2.079   9.765  0.0161 -0.3388 -0.1038
  493loPI   C3A 7881  13.656   2.060   9.309  0.0277 -0.0662 -0.0298
  493loPI   C4A 7882  13.722   2.078   8.968 -0.1301 -0.2501 -0.0956
  493loPI   C5A 7883  13.834   1.957   8.572  0.1399  0.1095  0.0741
  493loPI   C6A 7884  13.690   2.109   8.107 -0.3888  0.0841  0.2543
  493loPI   C1B 7885  14.074   2.201  10.072 -0.0716  0.1023 -0.0003
  493loPI   C2B 7886  14.089   2.292   9.562 -0.1992  0.0933 -0.1556
  493loPI   C3B 7887  14.156   2.299   9.178  0.0368 -0.0789  0.1058
  493loPI   C4B 7888  14.248   2.147   8.790  0.2806 -0.0783  0.0661
  494loPI    C1 7889   1.221  14.211  11.025  0.0024 -0.0695  0.1063
  494loPI    C2 7890   1.548  14.354  11.205 -0.0058  0.0514  0.0260
  494loPI    C3 7891   1.215  14.290  11.417  0.0636 -0.0543  0.1042
  494loPI   PO4 7892   1.242  14.348  10.684  0.3908 -0.2451 -0.1141
  494loPI   GL1 7893   0.952  14.450  10.355  0.1032  0.0585 -0.0030
  494loPI   GL2 7894   0.729  14.676  10.275  0.0296  0.0823 -0.4498
  494loPI   C1A 7895   1.165  14.489   9.931  0.1602  0.2006  0.0289
  494loPI   C2A 7896   1.344  14.452   9.550  0.0896  0.1303  0.1546
  494loPI   C3A 7897   1.351  14.375   9.137  0.0228  0.2278 -0.1142
  494loPI   C4A 7898   1.496  14.329   8.677 -0.0326  0.3047  0.1288
  494loPI   C5A 7899   1.518  14.270   8.291  0.2855  0.1945 -0.1923
  494loPI   C6A 7900   1.484  14.108   7.722  0.0852  0.0045  0.0464
  494loPI   C1B 7901   0.711  14.932   9.913 -0.0028 -0.0026 -0.1299
  494loPI   C2B 7902   0.684  14.984   9.512  0.3234 -0.2222  0.1523
  494loPI   C3B 7903   0.787  15.031   9.108 -0.0059  0.4179 -0.1140
  494loPI   C4B 7904   0.900  15.059   8.584 -0.0306  0.1326 -0.0739
  495loPI    C1 7905  15.551  10.381  10.801 -0.0947 -0.0839  0.0023
  495loPI    C2 7906  15.473  10.153  11.120 -0.1463  0.2056  0.2002
  495loPI    C3 7907  15.832  10.325  11.080 -0.0752  0.0157  0.0030
  495loPI   PO4 7908  15.523  10.334  10.646  0.0852  0.1146  0.0991
  495loPI   GL1 7909  15.328  10.600  10.276 -0.0434 -0.1903  0.1193
  495loPI   GL2 7910  15.656  10.664  10.279  0.3146  0.0797 -0.1105
  495loPI   C1A 7911  15.096  10.860   9.895  0.2113 -0.2637 -0.0312
  495loPI   C2A 7912  15.219  11.121   9.507  0.0555  0.4439  0.0339
  495loPI   C3A 7913  15.384  11.385   9.089  0.0942  0.1318  0.1877
  495loPI   C4A 7914  15.675  11.476   8.754  0.2719  0.2055  0.2762
  495loPI   C5A 7915  15.917  11.648   8.280  0.1145  0.1363  0.1262
  495loPI   C6A 7916  16.093  11.955   7.941 -0.0432 -0.1397  0.0915
  495loPI   C1B 7917  15.583  10.486   9.847 -0.0959 -0.1092 -0.0007
  495loPI   C2B 7918  15.378  10.495   9.529  0.0828 -0.0703 -0.3016
  495loPI   C3B 7919  15.618  10.528   9.174 -0.2741  0.3669  0.2949
  495loPI   C4B 7920  15.747  10.604   8.825 -0.1733 -0.2995  0.0378
  496loPI    C1 7921   4.518   1.984  11.057  0.1157  0.0298  0.0326
  496loPI    C2 7922   4.811   1.784  10.873  0.1518  0.0731  0.0427
  496loPI    C3 7923   4.880   1.963  11.223  0.0775 -0.0267  0.1089
  496loPI   PO4 7924   4.387   2.073  10.836  0.0327 -0.0217  0.0488
  496loPI   GL1 7925   4.468   1.966  10.463 -0.1871 -0.0586 -0.0586
  496loPI   GL2 7926   4.638   1.734  10.420 -0.1170 -0.0850 -0.1147
  496loPI   C1A 7927   4.321   1.925   9.955  0.1188 -0.0656 -0.0085
  496loPI   C2A 7928   4.223   1.984   9.564 -0.0880  0.0925 -0.0402
  496loPI   C3A 7929   4.161   1.809   9.222  0.1727  0.2081  0.1992
  496loPI   C4A 7930   4.223   1.959   8.824 -0.2353 -0.1531  0.3139
  496loPI   C5A 7931   4.085   2.238   8.471 -0.0756  0.0272 -0.1860
  496loPI   C6A 7932   3.977   2.413   8.047  0.1209 -0.0970 -0.1935
  496loPI   C1B 7933   4.682   1.600  10.056  0.1031  0.1082  0.0790
  496loPI   C2B 7934   4.502   1.563   9.610  0.0842 -0.0006 -0.0917
  496loPI   C3B 7935   4.312   1.353   9.185  0.2144 -0.0833 -0.2346
  496loPI   C4B 7936   4.046   1.229   8.873  0.0097 -0.0941 -0.1465
  497loPI    C1 7937  10.313   9.824  11.030  0.3620  0.0009 -0.0138
  497loPI    C2 7938  10.094   9.492  11.079  0.3094  0.0074 -0.1970
  497loPI    C3 7939  10.297   9.646  11.388  0.1069 -0.0349 -0.0413
  497loPI   PO4 7940  10.169   9.994  10.963 -0.1405 -0.1601 -0.0112
  497loPI   GL1 7941  10.040  10.137  10.616 -0.0328 -0.0788  0.0558
  497loPI   GL2 7942   9.717  10.197  10.743 -0.1204 -0.0896 -0.1182
  497loPI   C1A 7943  10.190   9.947  10.159 -0.0487  0.1214  0.0011
  497loPI   C2A 7944  10.250  10.103   9.782  0.1887 -0.1450 -0.3832
  497loPI   C3A 7945  10.320  10.119   9.401 -0.2855  0.0435  0.0558
  497loPI   C4A 7946  10.271  10.232   8.910  0.1607  0.0961 -0.1629
  497loPI   C5A 7947  10.124  10.253   8.402 -0.3483  0.0128  0.1567
  497loPI   C6A 7948  10.048  10.294   7.996 -0.2841  0.0754  0.1404
  497loPI   C1B 7949   9.651  10.367  10.380  0.2238 -0.2443  0.1195
  497loPI   C2B 7950   9.513  10.453   9.988 -0.2096  0.0874  0.1282
  497loPI   C3B 7951   9.480  10.640   9.567 -0.1969 -0.1712  0.0248
  497loPI   C4B 7952   9.560  10.637   9.149  0.0759  0.0629 -0.0152
  498loPI    C1 7953   1.883  10.143  10.893  0.1518 -0.1415  0.3143
  498loPI    C2 7954   1.903  10.010  11.269  0.4093 -0.0399  0.3391
  498loPI    C3 7955   1.982  10.393  11.189 -0.0829  0.0471  0.2365
  498loPI   PO4 7956   2.010  10.070  10.706  0.2827  0.1325  0.2289
  498loPI   GL1 7957   1.964  10.094  10.275  0.1066 -0.0805 -0.1286
  498loPI   GL2 7958   1.723  10.045  10.082  0.0199 -0.0333  0.1798
  498loPI   C1A 7959   2.288  10.144   9.963 -0.0832  0.1341 -0.0052
  498loPI   C2A 7960   2.364  10.211   9.565 -0.2273  0.0689 -0.1552
  498loPI   C3A 7961   2.444  10.273   9.070 -0.0373 -0.2034 -0.2136
  498loPI   C4A 7962   2.319  10.544   8.714  0.1014  0.0618 -0.2135
  498loPI   C5A 7963   2.289  10.497   8.283  0.1155  0.0578 -0.1411
  498loPI   C6A 7964   2.340  10.635   7.928  0.0342  0.5048 -0.2932
  498loPI   C1B 7965   1.803  10.014   9.692  0.0387  0.0905  0.0850
  498loPI   C2B 7966   1.881  10.063   9.286  0.0573 -0.0068  0.1075
  498loPI   C3B 7967   1.906  10.137   8.864  0.1140 -0.2713 -0.3529
  498loPI   C4B 7968   1.886  10.384   8.503 -0.0167  0.1029 -0.0870
  499loPI    C1 7969   5.623  16.813  11.090  0.1359 -0.0475  0.0613
  499loPI    C2 7970   5.296  16.597  11.169 -0.0703  0.1843 -0.1388
  499loPI    C3 7971   5.350  16.952  11.347  0.0737  0.1475 -0.1070
  499loPI   PO4 7972   5.608  16.869  10.886  0.1620 -0.1576  0.1007
  499loPI   GL1 7973   5.785  16.838  10.401 -0.1939  0.2499 -0.0663
  499loPI   GL2 7974   5.768  17.171  10.360  0.1920 -0.0689  0.2423
  499loPI   C1A 7975   5.784  16.723   9.960  0.0377 -0.0723  0.1336
  499loPI   C2A 7976   5.857  16.603   9.536  0.2305  0.2929  0.2649
  499loPI   C3A 7977   5.781  16.485   9.181  0.0147 -0.1485  0.1781
  499loPI   C4A 7978   5.895  16.242   8.812 -0.0290 -0.1267 -0.3353
  499loPI   C5A 7979   5.966  16.198   8.394 -0.0219 -0.2804 -0.1164
  499loPI   C6A 7980   6.221  16.276   7.991  0.0658 -0.0320 -0.0625
  499loPI   C1B 7981   5.876  17.172   9.985 -0.0201  0.0261 -0.5793
  499loPI   C2B 7982   5.889  17.118   9.512 -0.0648 -0.3518  0.2172
  499loPI   C3B 7983   6.037  17.094   9.141 -0.1522  0.3553  0.2759
  499loPI   C4B 7984   5.980  16.745   8.841  0.3756  0.3913 -0.0565
  500loPI    C1 7985   1.482  12.760  10.888  0.0531 -0.0610 -0.0070
  500loPI    C2 7986   1.672  12.423  10.991 -0.0389  0.0006  0.3794
  500loPI    C3 7987   1.500  12.650  11.272 -0.1195  0.2871  0.1048
  500loPI   PO4 7988   1.440  12.702  10.621 -0.1809 -0.0807 -0.0338
  500loPI   GL1 7989   1.428  12.877  10.245  0.1891  0.0768 -0.0539
  500loPI   GL2 7990   1.671  12.724  10.084 -0.1449  0.0475 -0.1400
  500loPI   C1A 7991   1.281  13.097   9.933  0.0512 -0.0897  0.1509
  500loPI   C2A 7992   1.058  12.995   9.549  0.2315  0.0614  0.0992
  500loPI   C3A 7993   1.006  13.228   9.133  0.0486  0.0639  0.4202
  500loPI   C4A 7994   1.177  13.402   8.826  0.0149  0.0047  0.0870
  500loPI   C5A 7995   1.227  13.591   8.463  0.2688  0.0649  0.0035
  500loPI   C6A 7996   1.510  13.698   8.068 -0.3744 -0.1037  0.1098
  500loPI   C1B 7997   1.576  12.787   9.755  0.1649 -0.2354  0.0916
  500loPI   C2B 7998   1.543  12.894   9.428  0.2384 -0.2558  0.2030
  500loPI   C3B 7999   1.388  12.949   8.981 -0.0144  0.2797 -0.0962
  500loPI   C4B 8000   1.026  12.958   8.714 -0.0356 -0.0879  0.3160
  501loPI    C1 8001  15.266   8.502  10.870  0.1077 -0.2682 -0.1163
  501loPI    C2 8002  15.348   8.132  10.997  0.0410 -0.2403  0.0092
  501loPI    C3 8003  15.020   8.320  11.127  0.0480 -0.1565 -0.0937
  501loPI   PO4 8004  15.321   8.455  10.638  0.3731  0.1049  0.2771
  501loPI   GL1 8005  15.356   8.570  10.247 -0.0797  0.2360 -0.3341
  501loPI   GL2 8006  15.163   8.692   9.997  0.0104 -0.0875 -0.1290
  501loPI   C1A 8007  15.535   8.556   9.744 -0.0657  0.3499 -0.0068
  501loPI   C2A 8008  15.451   8.551   9.256  0.2593 -0.1981 -0.2175
  501loPI   C3A 8009  15.493   8.614   8.769 -0.1748  0.2803  0.0041
  501loPI   C4A 8010  15.238   8.590   8.298 -0.2029  0.1254 -0.1614
  501loPI   C5A 8011  14.825   8.561   7.925  0.0311 -0.0102 -0.2719
  501loPI   C6A 8012  14.472   8.410   7.975  0.1171  0.2699 -0.1669
  501loPI   C1B 8013  15.020   8.728   9.536 -0.2646 -0.2781 -0.0398
  501loPI   C2B 8014  14.897   8.742   9.176 -0.0893  0.3066  0.2293
  501loPI   C3B 8015  14.937   8.746   8.728  0.2186 -0.0127 -0.1899
  501loPI   C4B 8016  14.875   8.935   8.458 -0.1534  0.0167 -0.2998
  502loPI    C1 8017  16.373  13.174  11.271 -0.1191  0.1947  0.0295
  502loPI    C2 8018  16.449  13.535  11.426  0.2408  0.1002  0.0828
  502loPI    C3 8019  16.547  13.205  11.629  0.2721 -0.0267 -0.1349
  502loPI   PO4 8020  16.489  13.198  11.047  0.3088  0.0623  0.1329
  502loPI   GL1 8021  16.657  13.326  10.660 -0.2300 -0.1262 -0.1405
  502loPI   GL2 8022  17.010  13.416  10.576 -0.0702  0.0851 -0.1192
  502loPI   C1A 8023  16.627  13.644  10.365 -0.3909 -0.4058 -0.0462
  502loPI   C2A 8024  16.775  13.721   9.981  0.0818 -0.0795  0.5289
  502loPI   C3A 8025  16.812  13.669   9.617 -0.1377  0.1517 -0.2754
  502loPI   C4A 8026  16.822  13.872   9.247  0.0512 -0.2918  0.0541
  502loPI   C5A 8027  16.612  13.953   8.804 -0.1253 -0.1023  0.0967
  502loPI   C6A 8028  16.849  13.925   8.361  0.3560 -0.0372 -0.3409
  502loPI   C1B 8029  17.249  13.669  10.308  0.0089 -0.0424 -0.0298
  502loPI   C2B 8030  17.324  13.779   9.844 -0.2325 -0.0055  0.1402
  502loPI   C3B 8031  17.285  13.707   9.429  0.1176 -0.1858 -0.0150
  502loPI   C4B 8032  17.219  13.813   9.023 -0.1576  0.1281 -0.2585
  503loPI    C1 8033   9.703   0.014  10.721  0.0506  0.1209  0.0791
  503loPI    C2 8034   9.308   0.052  10.670  0.0451 -0.1074 -0.0680
  503loPI    C3 8035   9.462   0.040  11.039 -0.0966 -0.1279 -0.0090
  503loPI   PO4 8036   9.773  -0.205  10.507 -0.0222 -0.0245  0.0935
  503loPI   GL1 8037   9.696  -0.231  10.149 -0.0667  0.0698  0.1698
  503loPI   GL2 8038   9.504  -0.076  10.121  0.1996 -0.1274  0.2299
  503loPI   C1A 8039   9.334  -0.428   9.652 -0.0999 -0.0515  0.4187
  503loPI   C2A 8040   9.353  -0.550   9.131 -0.1832 -0.0629  0.1388
  503loPI   C3A 8041   9.315  -0.474   8.632 -0.0218 -0.1035 -0.2676
  503loPI   C4A 8042   9.450  -0.492   8.220 -0.2995 -0.1518  0.1917
  503loPI   C5A 8043   9.790  -0.395   7.858  0.0364 -0.1782 -0.0811
  503loPI   C6A 8044  10.228  -0.301   7.733  0.0045  0.0217  0.3981
  503loPI   C1B 8045   9.524   0.093   9.640  0.2230 -0.0025  0.0476
  503loPI   C2B 8046   9.497   0.044   9.253  0.0906  0.0485  0.0620
  503loPI   C3B 8047   9.457  -0.028   8.960 -0.3844 -0.0358 -0.0709
  503loPI   C4B 8048   9.623  -0.038   8.467 -0.0634  0.0881  0.1270
  504loPI    C1 8049   7.779   8.884  11.144 -0.1400  0.1336 -0.2607
  504loPI    C2 8050   7.695   9.269  11.080 -0.0516  0.1716 -0.1521
  504loPI    C3 8051   7.816   9.148  11.442 -0.1412  0.0309 -0.1685
  504loPI   PO4 8052   7.635   8.727  10.841 -0.0425  0.1460  0.0621
  504loPI   GL1 8053   7.845   8.733  10.421 -0.1388 -0.0542 -0.3114
  504loPI   GL2 8054   7.856   8.503  10.151 -0.1715  0.0882 -0.2040
  504loPI   C1A 8055   7.655   8.986  10.132 -0.0936  0.1163  0.1238
  504loPI   C2A 8056   7.657   9.035   9.674  0.2982 -0.0175  0.2642
  504loPI   C3A 8057   7.729   9.024   9.227  0.0115  0.3104  0.0473
  504loPI   C4A 8058   7.830   9.111   8.840 -0.0457 -0.1557 -0.0666
  504loPI   C5A 8059   7.944   9.079   8.441 -0.0081  0.0639  0.1266
  504loPI   C6A 8060   7.996   8.787   8.059 -0.2965  0.3830  0.1671
  504loPI   C1B 8061   7.897   8.497   9.678  0.0639  0.1198 -0.5503
  504loPI   C2B 8062   8.008   8.569   9.265  0.0272 -0.2871  0.0737
  504loPI   C3B 8063   7.965   8.620   8.865 -0.1683  0.0850  0.3307
  504loPI   C4B 8064   7.960   8.476   8.479 -0.0783  0.1201  0.1189
  505loPI    C1 8065  13.888  16.313  11.165 -0.1445 -0.1897 -0.0525
  505loPI    C2 8066  14.010  16.166  11.516 -0.0660  0.2854  0.1271
  505loPI    C3 8067  13.652  16.064  11.370 -0.0348 -0.0373  0.2663
  505loPI   PO4 8068  14.180  16.252  10.975  0.1342 -0.2519 -0.0567
  505loPI   GL1 8069  14.337  16.402  10.580 -0.2173  0.0285 -0.3672
  505loPI   GL2 8070  14.613  16.269  10.551 -0.1712  0.0054 -0.0661
  505loPI   C1A 8071  14.223  16.387  10.190 -0.2405 -0.0984  0.0709
  505loPI   C2A 8072  14.188  16.360   9.695 -0.0243  0.0067 -0.0555
  505loPI   C3A 8073  14.156  16.416   9.265 -0.2092 -0.1728  0.0482
  505loPI   C4A 8074  14.315  16.488   8.855  0.1077  0.1566 -0.0155
  505loPI   C5A 8075  14.351  16.514   8.469 -0.0762  0.0144  0.4414
  505loPI   C6A 8076  14.560  16.619   8.163 -0.1823 -0.1308  0.3282
  505loPI   C1B 8077  14.831  16.132  10.193  0.0113  0.0425  0.1979
  505loPI   C2B 8078  14.959  15.970   9.757  0.1980 -0.2816 -0.4508
  505loPI   C3B 8079  15.059  15.938   9.260  0.0671  0.1907  0.0478
  505loPI   C4B 8080  15.075  16.031   8.888  0.1661  0.1182  0.0337
  506loPI    C1 8081  12.482   7.380  10.859 -0.0451 -0.1666  0.0450
  506loPI    C2 8082  12.831   7.494  11.016 -0.0516 -0.4000  0.2344
  506loPI    C3 8083  12.493   7.545  11.223 -0.1266 -0.2113  0.0681
  506loPI   PO4 8084  12.480   7.449  10.640 -0.1253 -0.3677 -0.1053
  506loPI   GL1 8085  12.632   7.395  10.223 -0.0865  0.2624  0.0249
  506loPI   GL2 8086  12.413   7.439  10.043  0.2186  0.2084  0.2717
  506loPI   C1A 8087  12.676   7.096   9.840 -0.0284 -0.1057 -0.3405
  506loPI   C2A 8088  12.808   7.142   9.457  0.1630  0.2223  0.1496
  506loPI   C3A 8089  12.860   7.164   8.983 -0.0758  0.2384 -0.0387
  506loPI   C4A 8090  13.026   6.928   8.822  0.0876 -0.1702 -0.2387
  506loPI   C5A 8091  13.321   6.606   8.619  0.0082  0.2058  0.2482
  506loPI   C6A 8092  13.538   6.555   8.353  0.2444 -0.0057  0.0932
  506loPI   C1B 8093  12.428   7.494   9.583 -0.1276  0.0826  0.2157
  506loPI   C2B 8094  12.426   7.575   9.182  0.0607  0.1067  0.1026
  506loPI   C3B 8095  12.447   7.603   8.729  0.0418 -0.0538 -0.0228
  506loPI   C4B 8096  12.644   7.785   8.326 -0.0373 -0.0348  0.0944
  507loPI    C1 8097  11.121  10.980  10.619 -0.0574  0.0733 -0.3280
  507loPI    C2 8098  11.382  10.872  10.336 -0.0066 -0.1582 -0.1956
  507loPI    C3 8099  11.184  10.593  10.543  0.0738  0.0033  0.1058
  507loPI   PO4 8100  10.974  11.174  10.594 -0.0851  0.1078 -0.0596
  507loPI   GL1 8101  11.002  11.447  10.301 -0.0392 -0.2935 -0.3347
  507loPI   GL2 8102  11.285  11.365  10.263  0.1167 -0.1483  0.2031
  507loPI   C1A 8103  11.033  11.536   9.878 -0.0170  0.0306 -0.0649
  507loPI   C2A 8104  11.042  11.495   9.457  0.0592 -0.2943  0.0120
  507loPI   C3A 8105  11.005  11.584   8.995  0.2019 -0.1093  0.1838
  507loPI   C4A 8106  11.111  11.448   8.528 -0.0818  0.2963  0.0300
  507loPI   C5A 8107  11.261  11.158   8.227 -0.0980  0.2428 -0.2347
  507loPI   C6A 8108  11.555  11.263   7.854 -0.1090  0.2512  0.0116
  507loPI   C1B 8109  11.320  11.056   9.910 -0.1948  0.1487 -0.2070
  507loPI   C2B 8110  11.320  11.052   9.458 -0.0931  0.1188  0.1351
  507loPI   C3B 8111  11.360  11.171   9.087 -0.2524  0.3125 -0.0132
  507loPI   C4B 8112  11.361  11.024   8.699 -0.0500  0.2327  0.0136
  508loPI    C1 8113  11.846  16.547  11.213 -0.0304  0.1408  0.1888
  508loPI    C2 8114  11.797  16.229  11.451  0.1692 -0.0591 -0.0315
  508loPI    C3 8115  11.478  16.437  11.326  0.0350 -0.1896  0.0899
  508loPI   PO4 8116  12.016  16.523  10.994  0.0381  0.2646 -0.1356
  508loPI   GL1 8117  11.977  16.513  10.534 -0.0431 -0.1890 -0.0433
  508loPI   GL2 8118  11.762  16.693  10.271  0.2122  0.0750  0.0645
  508loPI   C1A 8119  12.169  16.441  10.057  0.2114  0.1554 -0.0913
  508loPI   C2A 8120  12.297  16.420   9.660 -0.1643  0.0325 -0.1952
  508loPI   C3A 8121  12.232  16.376   9.159 -0.0395 -0.0520 -0.1056
  508loPI   C4A 8122  12.379  16.294   8.692  0.1312 -0.1372 -0.0017
  508loPI   C5A 8123  12.268  16.532   8.215 -0.0294 -0.2672  0.0614
  508loPI   C6A 8124  12.365  16.890   8.073 -0.0230  0.2046  0.1569
  508loPI   C1B 8125  11.775  16.775   9.897  0.0031 -0.2025  0.0631
  508loPI   C2B 8126  11.790  16.831   9.513 -0.2559  0.0831  0.0374
  508loPI   C3B 8127  11.528  17.110   9.208 -0.2777  0.0103  0.0189
  508loPI   C4B 8128  11.470  17.282   8.810  0.0146 -0.2199 -0.0547
  509loPI    C1 8129   9.304  17.012  11.135 -0.2711  0.0050  0.1858
  509loPI    C2 8130   9.496  17.324  11.297 -0.1657  0.0179  0.0373
  509loPI    C3 8131   9.327  17.049  11.533  0.0713 -0.0158  0.1708
  509loPI   PO4 8132   9.227  17.070  10.910 -0.1247 -0.1796  0.1462
  509loPI   GL1 8133   9.317  17.043  10.531 -0.3809  0.3759 -0.0572
  509loPI   GL2 8134   8.973  17.072  10.480 -0.2615  0.2270  0.0526
  509loPI   C1A 8135   9.343  16.902  10.097  0.0130 -0.2200  0.1248
  509loPI   C2A 8136   9.334  16.973   9.662  0.3381 -0.2007  0.1700
  509loPI   C3A 8137   9.312  17.054   9.272 -0.2919  0.1828  0.0726
  509loPI   C4A 8138   9.183  17.041   8.879  0.0305 -0.0775 -0.0465
  509loPI   C5A 8139   9.176  17.110   8.435  0.1314  0.0367 -0.0747
  509loPI   C6A 8140   8.899  17.384   8.316  0.0705 -0.0730  0.1566
  509loPI   C1B 8141   8.941  17.271  10.051  0.2549 -0.1221  0.0809
  509loPI   C2B 8142   8.878  17.456   9.669  0.2135  0.0540  0.0964
  509loPI   C3B 8143   8.846  17.428   9.253  0.2711  0.0580 -0.3506
  509loPI   C4B 8144   8.837  17.490   8.831 -0.2793  0.2030  0.0360
  510loPI    C1 8145  11.356  12.111  11.056  0.1515 -0.1089 -0.1550
  510loPI    C2 8146  11.595  12.091  11.376 -0.1105 -0.0593  0.0467
  510loPI    C3 8147  11.197  12.085  11.422 -0.1519  0.0772 -0.2700
  510loPI   PO4 8148  11.447  11.895  10.877 -0.0277 -0.4448 -0.0376
  510loPI   GL1 8149  11.305  11.872  10.481  0.0314  0.0875 -0.0804
  510loPI   GL2 8150  11.601  11.742  10.424  0.1171  0.0292 -0.0491
  510loPI   C1A 8151  11.206  12.179  10.085  0.0473 -0.3751  0.0141
  510loPI   C2A 8152  11.100  12.078   9.698 -0.2697  0.1417  0.0202
  510loPI   C3A 8153  11.234  11.989   9.281  0.2003  0.1962 -0.1346
  510loPI   C4A 8154  11.200  11.969   8.778  0.1462 -0.0207 -0.3332
  510loPI   C5A 8155  11.117  11.960   8.413 -0.1736 -0.2518 -0.2829
  510loPI   C6A 8156  10.874  12.080   8.062  0.0792 -0.0125  0.0677
  510loPI   C1B 8157  11.514  11.757  10.009  0.0494  0.0176  0.1433
  510loPI   C2B 8158  11.520  11.494   9.592  0.0793 -0.1558  0.0236
  510loPI   C3B 8159  11.566  11.617   9.260 -0.0388  0.1419 -0.0576
  510loPI   C4B 8160  11.534  11.554   8.817 -0.1053 -0.1213 -0.1219
  511loPI    C1 8161   2.129   4.685  10.633  0.0213  0.0388 -0.0134
  511loPI    C2 8162   2.496   4.690  10.792  0.0286 -0.1567 -0.0223
  511loPI    C3 8163   2.179   4.614  11.023 -0.0142  0.0753 -0.0021
  511loPI   PO4 8164   2.151   4.927  10.506  0.0348  0.1256  0.2342
  511loPI   GL1 8165   2.173   5.036  10.079 -0.1937 -0.0332  0.0197
  511loPI   GL2 8166   2.041   4.755  10.079 -0.0837 -0.1283 -0.2823
  511loPI   C1A 8167   2.237   5.228   9.690  0.0096 -0.1499  0.1777
  511loPI   C2A 8168   2.357   5.323   9.286 -0.0126 -0.1371 -0.0346
  511loPI   C3A 8169   2.460   5.290   8.846 -0.0677  0.0022  0.1937
  511loPI   C4A 8170   2.296   5.372   8.386 -0.0585  0.0020  0.0106
  511loPI   C5A 8171   1.923   5.489   8.198  0.0109 -0.0462  0.0240
  511loPI   C6A 8172   1.750   5.292   7.747 -0.0617 -0.1987  0.1926
  511loPI   C1B 8173   2.398   4.638   9.812 -0.2570  0.1705 -0.0026
  511loPI   C2B 8174   2.308   4.689   9.348  0.1857 -0.0209 -0.2265
  511loPI   C3B 8175   2.254   4.856   8.991  0.0789 -0.3335 -0.0207
  511loPI   C4B 8176   2.368   4.816   8.559 -0.2887 -0.3537 -0.0688
  512loPI    C1 8177  11.537  14.084  10.999 -0.3677 -0.0476  0.0703
  512loPI    C2 8178  11.396  14.106  11.373 -0.0911 -0.0624  0.1777
  512loPI    C3 8179  11.767  13.973  11.307 -0.0757  0.1061 -0.0889
  512loPI   PO4 8180  11.363  14.041  10.829 -0.1148 -0.1673 -0.0876
  512loPI   GL1 8181  11.465  13.988  10.371  0.1653  0.2909  0.0351
  512loPI   GL2 8182  11.232  13.735  10.442  0.2100 -0.0720 -0.1825
  512loPI   C1A 8183  11.804  14.071  10.145 -0.1646  0.1955 -0.1669
  512loPI   C2A 8184  12.078  14.338   9.896  0.1909  0.0470 -0.0867
  512loPI   C3A 8185  12.306  14.368   9.487  0.0324 -0.0682  0.1075
  512loPI   C4A 8186  12.414  14.330   9.071  0.0322 -0.0707  0.2528
  512loPI   C5A 8187  12.165  14.207   8.790  0.0686 -0.0357 -0.2720
  512loPI   C6A 8188  11.807  14.204   8.485  0.2032  0.2294 -0.1074
  512loPI   C1B 8189  10.989  13.601  10.145  0.0413  0.0187 -0.1155
  512loPI   C2B 8190  10.831  13.448   9.743  0.1093 -0.2373  0.0286
  512loPI   C3B 8191  10.949  13.396   9.350 -0.1590 -0.1246  0.1724
  512loPI   C4B 8192  10.989  13.335   8.981  0.0656  0.1647  0.0309
  513loPI    C1 8193   8.237   4.413  10.990  0.0754 -0.0254 -0.0092
  513loPI    C2 8194   8.403   4.050  10.964  0.0158 -0.0487 -0.0678
  513loPI    C3 8195   8.215   4.161  11.300 -0.1056 -0.1324 -0.1072
  513loPI   PO4 8196   8.134   4.439  10.788 -0.1834 -0.2753  0.1819
  513loPI   GL1 8197   8.104   4.264  10.337  0.1168 -0.1235 -0.2638
  513loPI   GL2 8198   7.789   4.116  10.438  0.1926  0.0981  0.2037
  513loPI   C1A 8199   7.857   4.184   9.899  0.2662  0.1776  0.1945
  513loPI   C2A 8200   7.832   4.202   9.429  0.0535 -0.1158  0.1803
  513loPI   C3A 8201   7.773   4.155   9.036  0.2337 -0.2639 -0.1559
  513loPI   C4A 8202   7.852   4.339   8.690  0.0538 -0.0234 -0.2195
  513loPI   C5A 8203   8.276   4.467   8.521  0.0488  0.1890 -0.0502
  513loPI   C6A 8204   8.485   4.415   8.169  0.2238 -0.0001 -0.0048
  513loPI   C1B 8205   7.346   3.993  10.115  0.0912  0.1092 -0.0482
  513loPI   C2B 8206   7.356   3.981   9.620  0.0325 -0.2451  0.1235
  513loPI   C3B 8207   7.226   3.961   9.146 -0.0613  0.3107 -0.0884
  513loPI   C4B 8208   7.370   4.130   8.764 -0.1825  0.0197  0.0030
  514loPI    C1 8209   7.812  12.016  10.785 -0.2894 -0.2430  0.0307
  514loPI    C2 8210   7.768  12.282  11.080  0.3610  0.2236 -0.2684
  514loPI    C3 8211   7.962  11.938  11.148 -0.1612 -0.0240  0.0267
  514loPI   PO4 8212   7.529  12.007  10.671  0.0139 -0.2957 -0.5366
  514loPI   GL1 8213   7.373  12.025  10.226  0.1064 -0.0983  0.2434
  514loPI   GL2 8214   7.440  11.716  10.058  0.0377 -0.3693 -0.3219
  514loPI   C1A 8215   7.159  12.227   9.863  0.0010  0.2236 -0.1733
  514loPI   C2A 8216   7.403  12.227   9.474 -0.1241  0.4059 -0.3152
  514loPI   C3A 8217   7.462  12.225   9.049  0.3229  0.1138 -0.0805
  514loPI   C4A 8218   7.411  12.149   8.591 -0.0708 -0.3141  0.1939
  514loPI   C5A 8219   7.588  12.284   8.226  0.3290  0.0665  0.2433
  514loPI   C6A 8220   7.744  12.465   7.846 -0.0756  0.1030  0.0799
  514loPI   C1B 8221   7.293  11.705   9.711 -0.1505  0.3817 -0.0667
  514loPI   C2B 8222   7.091  11.822   9.363  0.2440  0.1277  0.1474
  514loPI   C3B 8223   7.195  11.814   8.895 -0.0568 -0.0087 -0.0519
  514loPI   C4B 8224   7.201  11.740   8.453  0.1896 -0.2561 -0.0491
  515loPI    C1 8225  10.921   9.115  10.869 -0.1209  0.2316  0.0565
  515loPI    C2 8226  11.226   8.861  10.819 -0.0985  0.2639  0.0286
  515loPI    C3 8227  11.197   9.076  11.156 -0.0616  0.2998  0.0091
  515loPI   PO4 8228  10.819   9.145  10.661  0.0688  0.3134 -0.1381
  515loPI   GL1 8229  10.494   9.017  10.394  0.1858  0.1215 -0.0456
  515loPI   GL2 8230  10.228   8.718  10.448 -0.0042 -0.0408  0.2351
  515loPI   C1A 8231  10.800   8.944  10.056  0.1317  0.1231 -0.0873
  515loPI   C2A 8232  11.074   8.787   9.746 -0.1433 -0.4600  0.1757
  515loPI   C3A 8233  11.068   8.774   9.274  0.0406 -0.2855  0.1438
  515loPI   C4A 8234  11.020   8.788   8.931  0.2461 -0.0431  0.0332
  515loPI   C5A 8235  10.975   8.684   8.547 -0.0019  0.2458 -0.1033
  515loPI   C6A 8236  11.234   8.671   8.092  0.0238 -0.2569  0.0744
  515loPI   C1B 8237  10.165   8.903   9.982 -0.0849 -0.1186 -0.2375
  515loPI   C2B 8238  10.295   9.123   9.636  0.1975 -0.0024  0.1119
  515loPI   C3B 8239  10.274   9.271   9.194 -0.0339 -0.0566 -0.1064
  515loPI   C4B 8240  10.227   9.225   8.802  0.1419  0.0698 -0.2097
  516loPI    C1 8241   4.781   2.391  10.860 -0.1146  0.2832  0.1246
  516loPI    C2 8242   4.627   2.415  11.228 -0.0277  0.1096  0.1733
  516loPI    C3 8243   5.019   2.473  11.171 -0.0323  0.0846  0.1156
  516loPI   PO4 8244   4.647   2.489  10.686  0.0577 -0.0827 -0.1980
  516loPI   GL1 8245   4.734   2.461  10.334 -0.1469  0.1408 -0.1495
  516loPI   GL2 8246   4.333   2.461  10.210  0.0954 -0.1246 -0.3906
  516loPI   C1A 8247   4.960   2.549   9.929  0.1264 -0.1130  0.1871
  516loPI   C2A 8248   5.038   2.423   9.532  0.0414 -0.0333 -0.0173
  516loPI   C3A 8249   5.157   2.389   9.067  0.2399  0.2123  0.1532
  516loPI   C4A 8250   5.223   2.022   8.826  0.1408 -0.0240 -0.0982
  516loPI   C5A 8251   4.938   1.693   8.759  0.0557  0.0727 -0.1509
  516loPI   C6A 8252   4.492   1.531   8.748  0.1833  0.1153  0.3621
  516loPI   C1B 8253   4.458   2.505   9.809 -0.0862  0.0057 -0.1863
  516loPI   C2B 8254   4.385   2.418   9.401 -0.1342 -0.1587 -0.0404
  516loPI   C3B 8255   4.163   2.479   8.946 -0.0849 -0.0984  0.3310
  516loPI   C4B 8256   4.117   2.781   8.583 -0.0607  0.0674 -0.0803
  517loPI    C1 8257  17.183   4.475  10.573  0.0196 -0.1479 -0.1279
  517loPI    C2 8258  17.358   4.466  10.932 -0.1066 -0.1878 -0.0671
  517loPI    C3 8259  17.010   4.658  10.883  0.0234  0.0139 -0.2197
  517loPI   PO4 8260  17.197   4.283  10.470  0.0232  0.1329  0.2514
  517loPI   GL1 8261  17.040   4.184  10.107  0.0927 -0.1029  0.1269
  517loPI   GL2 8262  16.659   4.111  10.081  0.1366  0.2962 -0.0494
  517loPI   C1A 8263  17.169   4.289   9.598  0.2649 -0.2275 -0.1048
  517loPI   C2A 8264  17.223   4.233   9.162  0.2405  0.3009  0.0814
  517loPI   C3A 8265  17.295   4.070   8.793  0.0600 -0.1061 -0.2146
  517loPI   C4A 8266  17.371   4.002   8.339 -0.0656 -0.2119 -0.0870
  517loPI   C5A 8267  17.503   3.955   7.846  0.5948  0.1124 -0.1283
  517loPI   C6A 8268  17.457   4.285   7.566 -0.2867  0.1005  0.1413
  517loPI   C1B 8269  16.740   4.080   9.668 -0.0178 -0.0464  0.0624
  517loPI   C2B 8270  16.784   4.081   9.243 -0.1135  0.2065 -0.5452
  517loPI   C3B 8271  16.763   3.927   8.821  0.0034 -0.0966  0.0452
  517loPI   C4B 8272  16.875   3.813   8.429  0.2570 -0.2246  0.0421
  518loPI    C1 8273  17.265   3.844  10.781 -0.1942 -0.2942  0.1357
  518loPI    C2 8274  17.437   4.024  11.095  0.0041  0.0911 -0.1842
  518loPI    C3 8275  17.161   3.739  11.153 -0.0082  0.1993  0.3351
  518loPI   PO4 8276  17.368   3.783  10.612  0.1245 -0.0526 -0.1469
  518loPI   GL1 8277  17.468   3.903  10.277  0.0272 -0.4206  0.2472
  518loPI   GL2 8278  17.741   3.729  10.140 -0.0186  0.1468  0.0945
  518loPI   C1A 8279  17.550   4.142   9.969  0.3262 -0.4103 -0.3554
  518loPI   C2A 8280  17.642   4.133   9.519 -0.1731  0.1578 -0.2936
  518loPI   C3A 8281  17.655   3.957   9.114 -0.2511 -0.2034  0.0202
  518loPI   C4A 8282  17.821   4.018   8.730 -0.2040 -0.0291  0.1114
  518loPI   C5A 8283  17.758   3.713   8.358 -0.0652  0.3440 -0.0907
  518loPI   C6A 8284  17.404   3.476   8.278  0.1678 -0.0485 -0.3209
  518loPI   C1B 8285  17.748   3.643   9.700  0.0756 -0.0848  0.1840
  518loPI   C2B 8286  17.790   3.496   9.227  0.1152 -0.0026 -0.3501
  518loPI   C3B 8287  17.972   3.422   8.700 -0.0697 -0.0718 -0.0934
  518loPI   C4B 8288  17.787   3.089   8.353  0.0830 -0.0466  0.2442
  519loPI    C1 8289   9.557  14.873  10.778  0.0729 -0.1744 -0.0538
  519loPI    C2 8290   9.279  14.897  11.065  0.0337  0.1800 -0.1166
  519loPI    C3 8291   9.664  14.855  11.163  0.0329  0.4140 -0.0049
  519loPI   PO4 8292   9.516  15.033  10.627 -0.0309  0.0793  0.1587
  519loPI   GL1 8293   9.632  14.935  10.246  0.1420  0.2273  0.1347
  519loPI   GL2 8294   9.945  15.032  10.388  0.1805 -0.3191  0.2360
  519loPI   C1A 8295   9.802  14.999   9.892 -0.1995 -0.1965  0.3948
  519loPI   C2A 8296   9.888  15.211   9.603 -0.0419  0.0609 -0.0975
  519loPI   C3A 8297   9.951  15.040   9.156  0.0044 -0.0380  0.1469
  519loPI   C4A 8298  10.074  15.175   8.797 -0.2134  0.1046 -0.1882
  519loPI   C5A 8299  10.413  15.157   8.540 -0.0637 -0.0539  0.0386
  519loPI   C6A 8300  10.728  14.962   8.347 -0.2208  0.2940 -0.3279
  519loPI   C1B 8301   9.777  15.424  10.144 -0.1078 -0.0206  0.2125
  519loPI   C2B 8302   9.635  15.634   9.733  0.1999  0.2106 -0.3219
  519loPI   C3B 8303   9.700  15.735   9.299 -0.0475  0.1738  0.2207
  519loPI   C4B 8304   9.733  15.508   9.033  0.0416  0.2538 -0.0941
  520loPI    C1 8305  15.687  13.983  10.999 -0.2177 -0.0201  0.0674
  520loPI    C2 8306  15.566  14.275  10.754 -0.0752 -0.0207 -0.0047
  520loPI    C3 8307  15.303  14.094  10.995 -0.2178 -0.0243 -0.1617
  520loPI   PO4 8308  15.830  13.809  10.807 -0.0315 -0.0496 -0.4254
  520loPI   GL1 8309  15.578  13.617  10.565 -0.1233  0.0934  0.0326
  520loPI   GL2 8310  15.591  13.923  10.427 -0.0207 -0.0840 -0.1456
  520loPI   C1A 8311  15.286  13.625  10.152  0.0115 -0.1371  0.2524
  520loPI   C2A 8312  15.297  13.607   9.692  0.1331 -0.1308 -0.1381
  520loPI   C3A 8313  15.432  13.608   9.288  0.1767  0.4174 -0.0477
  520loPI   C4A 8314  15.383  13.373   8.851 -0.1339  0.1665 -0.1972
  520loPI   C5A 8315  15.477  13.350   8.424  0.0467  0.0638 -0.0728
  520loPI   C6A 8316  15.657  13.187   8.057 -0.1182 -0.0613  0.1934
  520loPI   C1B 8317  15.650  13.940  10.128 -0.3035 -0.0731 -0.0696
  520loPI   C2B 8318  15.758  13.820   9.734  0.2474 -0.0743  0.0661
  520loPI   C3B 8319  15.836  13.963   9.375 -0.0908  0.0117 -0.3976
  520loPI   C4B 8320  15.820  13.939   8.984 -0.0160  0.2104 -0.0061
  521loPI    C1 8321   3.175  17.172  11.192  0.0571  0.0374  0.0194
  521loPI    C2 8322   3.242  17.009  11.551  0.0960  0.2587  0.1138
  521loPI    C3 8323   3.026  17.344  11.521 -0.0276  0.1625 -0.0836
  521loPI   PO4 8324   3.409  17.095  11.084  0.1534  0.2921  0.1982
  521loPI   GL1 8325   3.430  16.971  10.749 -0.1584  0.2298  0.1215
  521loPI   GL2 8326   3.174  16.760  10.678 -0.2063 -0.1679 -0.0711
  521loPI   C1A 8327   3.608  17.165  10.318 -0.0058 -0.1223 -0.3091
  521loPI   C2A 8328   3.631  17.295   9.877 -0.0136 -0.2029 -0.2198
  521loPI   C3A 8329   3.724  17.249   9.396  0.2141 -0.3899  0.1097
  521loPI   C4A 8330   3.743  17.121   9.011  0.1056  0.0088 -0.0704
  521loPI   C5A 8331   3.702  16.990   8.574 -0.3917  0.1443 -0.0160
  521loPI   C6A 8332   3.762  16.758   8.190 -0.0165  0.1056  0.3009
  521loPI   C1B 8333   3.306  16.759  10.266 -0.1809  0.3364 -0.2740
  521loPI   C2B 8334   3.345  16.818   9.767  0.0914  0.1187 -0.3211
  521loPI   C3B 8335   3.442  16.811   9.292  0.0120 -0.0479 -0.2645
  521loPI   C4B 8336   3.455  16.713   8.900  0.0831 -0.2123  0.1328
  522loPI    C1 8337   3.980  12.069  10.694 -0.1476 -0.0329 -0.1758
  522loPI    C2 8338   4.098  12.400  10.886 -0.0365 -0.1753  0.0037
  522loPI    C3 8339   3.806  12.172  11.039 -0.2174 -0.0808 -0.1965
  522loPI   PO4 8340   4.211  12.026  10.537  0.0074  0.1179  0.2407
  522loPI   GL1 8341   4.196  12.020  10.180  0.2019 -0.2537 -0.0657
  522loPI   GL2 8342   3.844  12.040  10.223 -0.3072  0.0553 -0.0586
  522loPI   C1A 8343   4.243  11.941   9.644  0.0336  0.0515  0.0010
  522loPI   C2A 8344   4.299  11.927   9.239  0.2183 -0.1551  0.2652
  522loPI   C3A 8345   4.173  12.002   8.855  0.0311 -0.2449  0.2706
  522loPI   C4A 8346   4.240  11.895   8.382 -0.2413 -0.0107 -0.1251
  522loPI   C5A 8347   4.370  11.655   8.103 -0.1640  0.1785  0.2686
  522loPI   C6A 8348   4.372  11.238   7.879 -0.1482 -0.0588  0.0619
  522loPI   C1B 8349   3.750  12.062   9.810 -0.0129  0.1066 -0.2099
  522loPI   C2B 8350   3.743  12.049   9.398  0.1397 -0.1474  0.0158
  522loPI   C3B 8351   3.765  11.981   8.992 -0.0400 -0.3033 -0.2846
  522loPI   C4B 8352   3.476  11.991   8.574  0.0416  0.0086  0.0915
  523loPI    C1 8353  17.963  14.370  11.311  0.2040  0.0995  0.0609
  523loPI    C2 8354  17.921  14.767  11.283  0.0056  0.0667 -0.1330
  523loPI    C3 8355  17.806  14.576  11.615  0.3194  0.1975  0.0547
  523loPI   PO4 8356  18.179  14.365  11.186  0.0244 -0.0705  0.1027
  523loPI   GL1 8357  18.359  14.278  10.835  0.0872  0.0464  0.0856
  523loPI   GL2 8358  18.258  14.506  10.657  0.2070 -0.0776 -0.0290
  523loPI   C1A 8359  18.559  14.127  10.431  0.2639 -0.1104  0.0971
  523loPI   C2A 8360  18.654  14.310  10.015 -0.2073  0.0955 -0.0509
  523loPI   C3A 8361  18.791  14.452   9.619  0.0625  0.1678  0.1050
  523loPI   C4A 8362  18.963  14.565   9.218 -0.1654  0.0699  0.3880
  523loPI   C5A 8363  19.075  14.552   8.735 -0.0477 -0.4232  0.1234
  523loPI   C6A 8364  18.895  14.557   8.370  0.0949  0.0404  0.0147
  523loPI   C1B 8365  18.252  14.465  10.194  0.0673 -0.2811 -0.1529
  523loPI   C2B 8366  18.333  14.540   9.762 -0.2901  0.2340 -0.1126
  523loPI   C3B 8367  18.440  14.622   9.276  0.2891 -0.2569 -0.0161
  523loPI   C4B 8368  18.524  14.693   8.860  0.1441 -0.1014 -0.2378
  524loPI    C1 8369   7.520   2.808  11.373  0.0158  0.0336  0.0103
  524loPI    C2 8370   7.407   2.589  11.689 -0.0118 -0.0718 -0.0723
  524loPI    C3 8371   7.795   2.661  11.623 -0.0173  0.1248  0.1013
  524loPI   PO4 8372   7.536   2.657  11.161 -0.1247  0.0990  0.0133
  524loPI   GL1 8373   7.652   2.573  10.804  0.0132  0.3073 -0.1996
  524loPI   GL2 8374   7.424   2.777  10.660 -0.0372  0.1479  0.1565
  524loPI   C1A 8375   7.745   2.240  10.396  0.1444 -0.0802  0.2515
  524loPI   C2A 8376   7.751   2.215   9.908 -0.1387 -0.1998 -0.2422
  524loPI   C3A 8377   7.737   2.280   9.438  0.0552  0.3303 -0.1114
  524loPI   C4A 8378   7.703   2.249   9.033  0.2967 -0.0326 -0.0609
  524loPI   C5A 8379   7.624   2.340   8.674 -0.2361 -0.0611 -0.0855
  524loPI   C6A 8380   7.892   2.508   8.429 -0.0553  0.3072 -0.1259
  524loPI   C1B 8381   7.564   3.123  10.405 -0.1950  0.0657 -0.1919
  524loPI   C2B 8382   7.560   3.218  10.004 -0.1431 -0.1390 -0.1509
  524loPI   C3B 8383   7.552   3.198   9.586 -0.1679  0.5632  0.0062
  524loPI   C4B 8384   7.556   3.111   9.114 -0.4795 -0.0130 -0.0518
  525loPI    C1 8385   1.175  11.008  10.855 -0.0334  0.0023 -0.0001
  525loPI    C2 8386   1.117  11.168  10.493 -0.1517  0.0567  0.0424
  525loPI    C3 8387   1.336  11.363  10.765  0.0387 -0.0402 -0.0394
  525loPI   PO4 8388   1.100  10.748  10.744  0.0774  0.0402  0.1956
  525loPI   GL1 8389   0.799  10.672  10.469  0.5423 -0.1767 -0.3006
  525loPI   GL2 8390   0.820  10.947  10.210 -0.1639 -0.3645  0.0398
  525loPI   C1A 8391   0.645  10.484  10.177 -0.1920 -0.2758  0.1203
  525loPI   C2A 8392   0.695  10.401   9.636 -0.0998  0.0716 -0.2395
  525loPI   C3A 8393   0.708  10.667   9.315 -0.1158 -0.1455 -0.0914
  525loPI   C4A 8394   0.479  10.782   8.920 -0.1721 -0.0309 -0.2018
  525loPI   C5A 8395   0.303  10.794   8.499  0.0653 -0.1587  0.1138
  525loPI   C6A 8396   0.084  10.624   8.023 -0.5761  0.0262 -0.3300
  525loPI   C1B 8397   1.089  11.105   9.904  0.2010  0.2671  0.0456
  525loPI   C2B 8398   1.067  11.248   9.390  0.1938 -0.1857 -0.2453
  525loPI   C3B 8399   0.950  11.199   8.963 -0.0705  0.0246  0.0266
  525loPI   C4B 8400   0.763  11.014   8.603  0.1536 -0.0578 -0.2149
  526loPI    C1 8401   1.067   3.255  10.966  0.0142  0.1615 -0.0864
  526loPI    C2 8402   1.455   3.259  11.064 -0.0418 -0.3909  0.1981
  526loPI    C3 8403   1.199   3.506  11.249  0.1744  0.0155 -0.0307
  526loPI   PO4 8404   1.069   3.261  10.719 -0.3850  0.0099  0.0242
  526loPI   GL1 8405   0.983   3.353  10.361 -0.0742 -0.1241 -0.0684
  526loPI   GL2 8406   0.664   3.286  10.207  0.2895 -0.0814 -0.0499
  526loPI   C1A 8407   1.248   3.223  10.049 -0.2102 -0.1500  0.1640
  526loPI   C2A 8408   1.260   3.204   9.581  0.0917  0.1605  0.1132
  526loPI   C3A 8409   1.368   3.275   9.166  0.0320  0.3552 -0.1332
  526loPI   C4A 8410   1.414   3.296   8.706  0.0142  0.0039  0.1502
  526loPI   C5A 8411   1.624   3.167   8.297 -0.0382  0.0027  0.0161
  526loPI   C6A 8412   1.600   3.144   7.829  0.3475 -0.1512 -0.3682
  526loPI   C1B 8413   0.702   3.318   9.748  0.0089  0.0765 -0.0444
  526loPI   C2B 8414   0.726   3.264   9.391 -0.0196  0.3931  0.2412
  526loPI   C3B 8415   0.909   3.245   8.885 -0.2860 -0.3329  0.0470
  526loPI   C4B 8416   1.102   3.101   8.418  0.2982 -0.0378 -0.2108
  527loPI    C1 8417   8.206  16.382  11.028  0.0227  0.0073  0.0014
  527loPI    C2 8418   8.184  16.774  10.949 -0.1140  0.0073  0.0374
  527loPI    C3 8419   8.425  16.641  11.240  0.1633  0.0350 -0.1760
  527loPI   PO4 8420   7.905  16.325  10.921 -0.0804  0.4964 -0.2483
  527loPI   GL1 8421   7.694  16.274  10.509  0.4418 -0.3302  0.1973
  527loPI   GL2 8422   7.925  16.045  10.401 -0.1792  0.0191 -0.2800
  527loPI   C1A 8423   7.763  16.594  10.234  0.4477  0.1256 -0.0448
  527loPI   C2A 8424   7.899  16.601   9.870  0.0331 -0.1678  0.1116
  527loPI   C3A 8425   7.958  16.606   9.520  0.1942  0.2012 -0.0961
  527loPI   C4A 8426   7.860  16.635   9.072 -0.0570 -0.0240 -0.1221
  527loPI   C5A 8427   7.592  16.918   8.883 -0.0130  0.1879 -0.1246
  527loPI   C6A 8428   7.359  17.103   8.538 -0.1007  0.1346  0.3525
  527loPI   C1B 8429   7.824  16.048  10.042 -0.1019 -0.2574 -0.0481
  527loPI   C2B 8430   7.858  16.053   9.631 -0.2300  0.0440 -0.0083
  527loPI   C3B 8431   8.016  15.787   9.265 -0.1620 -0.1192 -0.1537
  527loPI   C4B 8432   8.208  15.388   9.082  0.0897  0.1927  0.4253
  528loPI    C1 8433  10.454   8.892  10.907 -0.0823 -0.4171 -0.1422
  528loPI    C2 8434  10.398   8.683  11.244 -0.0797 -0.1466  0.0286
  528loPI    C3 8435  10.748   8.661  11.051 -0.0376 -0.2067  0.1111
  528loPI   PO4 8436  10.217   9.055  10.878  0.0365 -0.0091  0.0056
  528loPI   GL1 8437   9.828   9.125  10.602  0.0828 -0.1884 -0.1210
  528loPI   GL2 8438  10.031   9.338  10.273 -0.0421  0.2243  0.4263
  528loPI   C1A 8439   9.675   8.929  10.136 -0.0856 -0.0195 -0.1205
  528loPI   C2A 8440   9.715   9.063   9.696  0.0173 -0.0438  0.0939
  528loPI   C3A 8441   9.761   9.188   9.310 -0.0953 -0.0725  0.1072
  528loPI   C4A 8442   9.737   9.217   8.864 -0.1178 -0.0159  0.0481
  528loPI   C5A 8443   9.779   8.921   8.550  0.0493 -0.0797  0.2667
  528loPI   C6A 8444   9.577   8.572   8.301  0.2068  0.0796  0.3488
  528loPI   C1B 8445   9.942   9.463   9.873  0.0227  0.0313 -0.0668
  528loPI   C2B 8446  10.014   9.697   9.463 -0.1417  0.0687 -0.0224
  528loPI   C3B 8447  10.050   9.673   8.997 -0.0308 -0.0781  0.0446
  528loPI   C4B 8448  10.125   9.705   8.474 -0.4411 -0.0681 -0.2674
  529loPI    C1 8449   4.357   9.141  10.725 -0.2888 -0.1859 -0.1454
  529loPI    C2 8450   4.389   8.796  10.924  0.0829 -0.0912 -0.0330
  529loPI    C3 8451   4.242   9.121  11.107 -0.1451 -0.1546 -0.1000
  529loPI   PO4 8452   4.284   9.071  10.500  0.1511  0.1013  0.3742
  529loPI   GL1 8453   4.425   8.959  10.088 -0.1211 -0.1371 -0.3683
  529loPI   GL2 8454   4.166   8.966   9.780  0.3208 -0.1219  0.1216
  529loPI   C1A 8455   4.600   8.629   9.815 -0.3479 -0.0837 -0.1149
  529loPI   C2A 8456   4.615   8.259   9.377 -0.0569 -0.0022 -0.3588
  529loPI   C3A 8457   4.704   8.352   8.995  0.4400 -0.0115  0.0752
  529loPI   C4A 8458   4.730   8.535   8.655  0.0955 -0.0836 -0.1649
  529loPI   C5A 8459   4.907   8.310   8.287 -0.3025 -0.4275 -0.1199
  529loPI   C6A 8460   5.305   8.257   8.125 -0.2230  0.2314  0.0126
  529loPI   C1B 8461   3.774   8.820   9.599  0.2464 -0.0955 -0.1537
  529loPI   C2B 8462   3.556   9.132   9.323  0.0105  0.3527  0.1104
  529loPI   C3B 8463   3.558   9.044   8.902  0.2426  0.0634 -0.1122
  529loPI   C4B 8464   3.850   8.932   8.587 -0.0029 -0.0787  0.1394
  530loPI    C1 8465  17.077   1.019  10.901 -0.0051  0.1788  0.2139
  530loPI    C2 8466  17.019   0.883  11.273 -0.0272  0.0323  0.1578
  530loPI    C3 8467  16.914   0.658  10.959  0.0131  0.1454  0.0625
  530loPI   PO4 8468  17.274   1.092  10.845  0.0050 -0.1393  0.0173
  530loPI   GL1 8469  17.636   0.959  10.654  0.1480  0.3169  0.1608
  530loPI   GL2 8470  17.909   1.155  10.641  0.0342  0.0850  0.0246
  530loPI   C1A 8471  17.670   0.744  10.222  0.1147 -0.0088  0.0725
  530loPI   C2A 8472  17.743   0.677   9.780  0.0778  0.1364  0.1358
  530loPI   C3A 8473  17.871   0.730   9.394 -0.1222 -0.1421  0.4608
  530loPI   C4A 8474  17.848   0.584   8.920 -0.0736  0.1601 -0.1538
  530loPI   C5A 8475  17.980   0.713   8.520  0.1034  0.1546 -0.0567
  530loPI   C6A 8476  18.022   0.723   8.128 -0.3017  0.2583  0.1008
  530loPI   C1B 8477  17.951   1.246  10.198 -0.4881  0.2450 -0.1069
  530loPI   C2B 8478  17.986   1.090   9.848 -0.0203  0.1256  0.1526
  530loPI   C3B 8479  18.116   1.161   9.465  0.1626  0.4256 -0.1732
  530loPI   C4B 8480  18.161   1.012   9.051  0.2178 -0.1843  0.1561
  531loPI    C1 8481   9.897   9.949  11.356  0.0842  0.0705  0.0211
  531loPI    C2 8482   9.869  10.320  11.210  0.1928  0.0528 -0.0451
  531loPI    C3 8483  10.202  10.203  11.399  0.0657  0.0656  0.1915
  531loPI   PO4 8484   9.708   9.799  11.145 -0.0269  0.1105 -0.1591
  531loPI   GL1 8485   9.631   9.704  10.783 -0.3088  0.0365  0.1678
  531loPI   GL2 8486   9.885   9.638  10.664 -0.0106  0.0319 -0.0522
  531loPI   C1A 8487   9.289   9.916  10.564  0.1898  0.1014 -0.1370
  531loPI   C2A 8488   9.220  10.003  10.124  0.0996 -0.2028 -0.1380
  531loPI   C3A 8489   9.196  10.097   9.678 -0.0272 -0.0812  0.1044
  531loPI   C4A 8490   9.291  10.183   9.180 -0.1953  0.1124  0.2866
  531loPI   C5A 8491   9.234  10.159   8.695 -0.1277  0.0604 -0.0119
  531loPI   C6A 8492   9.466  10.510   8.652  0.0884  0.2454  0.0405
  531loPI   C1B 8493   9.756   9.760  10.302  0.1174 -0.1599  0.0637
  531loPI   C2B 8494   9.700  10.006   9.890  0.0338  0.0536  0.1225
  531loPI   C3B 8495   9.725  10.184   9.449 -0.2058 -0.1827  0.0414
  531loPI   C4B 8496   9.738  10.207   8.958  0.2588  0.2387 -0.1072
  532loPI    C1 8497  16.657  12.765  11.375 -0.0826 -0.1101  0.0850
  532loPI    C2 8498  16.619  12.407  11.551 -0.3736 -0.1356 -0.0244
  532loPI    C3 8499  16.406  12.719  11.683 -0.1357 -0.0052  0.0577
  532loPI   PO4 8500  16.586  12.702  11.103  0.0261  0.0025  0.0381
  532loPI   GL1 8501  16.671  12.749  10.752  0.0585 -0.1609 -0.0391
  532loPI   GL2 8502  16.332  12.942  10.608 -0.0267 -0.0296 -0.2039
  532loPI   C1A 8503  16.608  12.402  10.461 -0.0452  0.1212 -0.2002
  532loPI   C2A 8504  16.643  12.437  10.023  0.0919  0.3027  0.0356
  532loPI   C3A 8505  16.768  12.369   9.593  0.2448 -0.2252 -0.0919
  532loPI   C4A 8506  16.819  12.249   9.189  0.1667  0.1107  0.0543
  532loPI   C5A 8507  17.031  12.294   8.738  0.0981 -0.1393  0.0654
  532loPI   C6A 8508  17.208  12.277   8.296  0.0579  0.0245 -0.0371
  532loPI   C1B 8509  16.649  12.969  10.320  0.0878  0.1390  0.1850
  532loPI   C2B 8510  16.879  13.197  10.065  0.2194  0.2077 -0.0647
  532loPI   C3B 8511  16.941  13.186   9.607  0.0300 -0.0081  0.1666
  532loPI   C4B 8512  17.054  13.343   9.211 -0.0829 -0.0042  0.0191
  533loPI    C1 8513  13.823  10.741  10.707  0.0058  0.0777 -0.0164
  533loPI    C2 8514  13.461  10.826  10.854 -0.0871 -0.0021 -0.1949
  533loPI    C3 8515  13.680  10.535  11.018 -0.1528 -0.0320 -0.1596
  533loPI   PO4 8516  13.780  10.793  10.459 -0.0065 -0.2023 -0.0974
  533loPI   GL1 8517  13.514  10.572  10.305 -0.0413  0.0844  0.0316
  533loPI   GL2 8518  13.667  10.530  10.023 -0.1099  0.1324  0.1695
  533loPI   C1A 8519  13.229  10.507   9.819  0.2296 -0.0339  0.4208
  533loPI   C2A 8520  13.108  10.501   9.338 -0.1056  0.2295  0.1664
  533loPI   C3A 8521  13.231  10.479   8.978  0.0252  0.0804 -0.0705
  533loPI   C4A 8522  13.351  10.344   8.579 -0.1469 -0.0575 -0.0879
  533loPI   C5A 8523  13.079  10.325   8.215 -0.0114 -0.0885  0.4240
  533loPI   C6A 8524  12.593  10.518   8.167 -0.4619 -0.1144  0.1357
  533loPI   C1B 8525  13.654  10.552   9.618 -0.2434  0.0178  0.0250
  533loPI   C2B 8526  13.544  10.668   9.282 -0.1179 -0.1529 -0.1568
  533loPI   C3B 8527  13.604  10.780   8.849 -0.0130  0.0046 -0.0574
  533loPI   C4B 8528  13.707  10.687   8.428  0.4119 -0.0714  0.3581
  534loPI    C1 8529   7.715  15.870  10.873 -0.0315 -0.0603 -0.2019
  534loPI    C2 8530   7.571  15.752  11.227 -0.2749  0.3540 -0.1560
  534loPI    C3 8531   7.931  15.924  11.204  0.1141 -0.4252 -0.2326
  534loPI   PO4 8532   7.639  15.691  10.700  0.1047  0.4029 -0.0314
  534loPI   GL1 8533   7.516  15.787  10.369  0.3526 -0.0997  0.2762
  534loPI   GL2 8534   7.221  15.672  10.158 -0.1888 -0.2508 -0.0304
  534loPI   C1A 8535   7.710  15.529  10.044  0.0154 -0.0568  0.0968
  534loPI   C2A 8536   7.728  15.298   9.739 -0.1394  0.1414  0.2460
  534loPI   C3A 8537   7.716  15.232   9.366 -0.1813  0.2606  0.1312
  534loPI   C4A 8538   7.841  15.088   8.945 -0.1071 -0.0813  0.3970
  534loPI   C5A 8539   8.143  15.094   8.544  0.0669 -0.2436  0.2590
  534loPI   C6A 8540   8.413  15.495   8.536  0.0140 -0.1697  0.0308
  534loPI   C1B 8541   7.378  15.705   9.712  0.0014  0.2445  0.0783
  534loPI   C2B 8542   7.552  15.714   9.362  0.1444 -0.1233  0.0521
  534loPI   C3B 8543   7.744  15.618   8.924 -0.0142  0.3366 -0.1061
  534loPI   C4B 8544   8.059  15.756   8.734  0.0257 -0.1286  0.2247
  535loPI    C1 8545   5.717   9.971  11.061 -0.0934 -0.2295 -0.0192
  535loPI    C2 8546   6.059   9.993  11.268 -0.0920  0.0038 -0.0434
  535loPI    C3 8547   5.726  10.164  11.411 -0.1386 -0.0061 -0.1388
  535loPI   PO4 8548   5.821  10.005  10.804 -0.2243 -0.3311  0.4315
  535loPI   GL1 8549   5.919  10.145  10.315 -0.1298  0.0399  0.3473
  535loPI   GL2 8550   5.746   9.991  10.197 -0.0405  0.0840  0.3669
  535loPI   C1A 8551   5.750  10.415  10.029  0.1136  0.1161 -0.0182
  535loPI   C2A 8552   5.757  10.359   9.547  0.2653 -0.1651 -0.0531
  535loPI   C3A 8553   5.858  10.325   9.065  0.4302  0.1563 -0.0827
  535loPI   C4A 8554   5.919  10.531   8.637 -0.0702 -0.1681  0.1250
  535loPI   C5A 8555   5.777  10.902   8.271 -0.3027  0.1011  0.0401
  535loPI   C6A 8556   5.707  11.308   8.120  0.0487  0.2886  0.0059
  535loPI   C1B 8557   5.967   9.875   9.839 -0.2388  0.1051 -0.0048
  535loPI   C2B 8558   6.120   9.960   9.386 -0.0502 -0.1406  0.1626
  535loPI   C3B 8559   6.257   9.936   9.029 -0.0379 -0.2538 -0.2757
  535loPI   C4B 8560   6.160   9.792   8.673 -0.0728  0.0085  0.0903
  536loPI    C1 8561   0.416   2.116  11.113 -0.0487 -0.2394  0.1370
  536loPI    C2 8562   0.494   2.499  11.027 -0.0793 -0.2662 -0.0127
  536loPI    C3 8563   0.624   2.340  11.370  0.2176 -0.2120 -0.0978
  536loPI   PO4 8564   0.513   1.950  10.978 -0.0924  0.0233 -0.1702
  536loPI   GL1 8565   0.670   1.674  10.661 -0.1093 -0.2549  0.1759
  536loPI   GL2 8566   0.834   1.951  10.622 -0.0524  0.0774  0.1066
  536loPI   C1A 8567   0.776   1.513  10.215 -0.0744  0.2911 -0.0414
  536loPI   C2A 8568   0.795   1.481   9.816  0.1833  0.1149 -0.1023
  536loPI   C3A 8569   0.883   1.381   9.487  0.2612 -0.1343  0.0414
  536loPI   C4A 8570   0.900   1.365   9.040  0.0941  0.2176  0.3711
  536loPI   C5A 8571   0.895   1.541   8.615  0.3249  0.1494 -0.0363
  536loPI   C6A 8572   0.731   1.908   8.457  0.0595 -0.0609  0.0544
  536loPI   C1B 8573   0.596   1.994  10.178 -0.0875  0.0145  0.1325
  536loPI   C2B 8574   0.581   1.928   9.758  0.1462 -0.0983 -0.3041
  536loPI   C3B 8575   0.737   1.874   9.364  0.1525  0.1317  0.0323
  536loPI   C4B 8576   0.837   1.896   8.925 -0.1821  0.0382 -0.1119
  537loPI    C1 8577  10.052  12.962  10.991 -0.0076  0.0426 -0.2329
  537loPI    C2 8578  10.243  13.200  11.249 -0.0624  0.1666 -0.3055
  537loPI    C3 8579  10.373  12.827  11.187 -0.1847  0.0561  0.0727
  537loPI   PO4 8580  10.009  13.097  10.740  0.0965  0.1947 -0.0167
  537loPI   GL1 8581   9.942  13.102  10.256  0.0763  0.2297 -0.0197
  537loPI   GL2 8582  10.261  12.936  10.329 -0.2183  0.0698 -0.0664
  537loPI   C1A 8583  10.021  12.893   9.900 -0.2243  0.3096 -0.1534
  537loPI   C2A 8584  10.164  12.964   9.519  0.1247 -0.1181 -0.1288
  537loPI   C3A 8585  10.128  12.857   9.164 -0.2685  0.2620  0.2258
  537loPI   C4A 8586  10.122  12.817   8.707  0.0249 -0.0582 -0.1749
  537loPI   C5A 8587  10.122  12.444   8.463 -0.0061 -0.0993  0.0738
  537loPI   C6A 8588  10.367  12.490   8.033 -0.1141  0.2376 -0.1717
  537loPI   C1B 8589  10.561  12.882   9.898 -0.1134 -0.1180  0.1851
  537loPI   C2B 8590  10.658  12.967   9.460 -0.2746  0.2833 -0.0802
  537loPI   C3B 8591  10.658  12.959   9.102  0.1356  0.0597 -0.1011
  537loPI   C4B 8592  10.549  13.168   8.681 -0.0457  0.2539 -0.0281
  538loPI    C1 8593   4.292  11.196  10.607  0.0238 -0.0082 -0.0161
  538loPI    C2 8594   4.093  10.922  10.820  0.1496  0.0083  0.1249
  538loPI    C3 8595   4.334  11.182  11.004  0.1165  0.1437 -0.0197
  538loPI   PO4 8596   4.436  11.183  10.391  0.0416 -0.1635  0.1105
  538loPI   GL1 8597   4.673  11.174  10.147 -0.2015 -0.1217  0.0398
  538loPI   GL2 8598   4.982  10.993  10.151 -0.1705  0.0119 -0.1861
  538loPI   C1A 8599   4.677  11.122   9.707  0.0472 -0.1830  0.0166
  538loPI   C2A 8600   4.645  10.998   9.285 -0.2497  0.1735  0.0123
  538loPI   C3A 8601   4.547  10.958   8.820 -0.0042 -0.0611 -0.0185
  538loPI   C4A 8602   4.427  10.756   8.531  0.2010 -0.1763  0.3012
  538loPI   C5A 8603   4.577  10.428   8.283 -0.0805 -0.2373 -0.1054
  538loPI   C6A 8604   4.377  10.031   8.289 -0.1985 -0.0475 -0.1274
  538loPI   C1B 8605   5.170  10.997   9.760 -0.2469 -0.1927  0.1852
  538loPI   C2B 8606   5.156  10.954   9.339 -0.1774  0.1177  0.0294
  538loPI   C3B 8607   5.069  10.892   8.874 -0.1701  0.1626  0.0521
  538loPI   C4B 8608   5.018  10.782   8.445  0.0278  0.3929  0.1025
  539loPI    C1 8609   7.882   0.854  11.339 -0.1048 -0.0546 -0.0938
  539loPI    C2 8610   8.228   0.955  11.511 -0.1509 -0.0703  0.0094
  539loPI    C3 8611   8.041   0.620  11.622 -0.0511 -0.2169 -0.2564
  539loPI   PO4 8612   7.915   1.092  11.160  0.4064 -0.2923  0.1363
  539loPI   GL1 8613   7.782   1.053  10.798  0.2402 -0.0388  0.0771
  539loPI   GL2 8614   8.123   1.166  10.690 -0.2282 -0.1571 -0.0415
  539loPI   C1A 8615   7.608   1.092  10.421  0.0130 -0.0582 -0.0904
  539loPI   C2A 8616   7.412   0.855  10.042 -0.0108  0.0116 -0.3441
  539loPI   C3A 8617   7.361   0.745   9.583 -0.0088  0.1996  0.0480
  539loPI   C4A 8618   7.269   0.805   9.089 -0.3146  0.2426 -0.0354
  539loPI   C5A 8619   7.311   0.770   8.579  0.1237  0.1737 -0.2709
  539loPI   C6A 8620   7.587   0.624   8.285  0.3144 -0.1406 -0.0145
  539loPI   C1B 8621   8.314   1.112  10.330 -0.3276  0.3732  0.1117
  539loPI   C2B 8622   8.379   1.080   9.932  0.1306  0.2833  0.2171
  539loPI   C3B 8623   8.323   1.045   9.457  0.0316  0.0313  0.0094
  539loPI   C4B 8624   8.218   1.064   9.001  0.2443 -0.3704  0.3087
  540loPI    C1 8625   9.640   5.309  10.996  0.1882 -0.1009 -0.0206
  540loPI    C2 8626   9.442   4.987  11.130 -0.1684  0.1142 -0.0173
  540loPI    C3 8627   9.465   5.316  11.356  0.2350  0.0804 -0.0007
  540loPI   PO4 8628   9.555   5.347  10.730 -0.3046  0.1898  0.1231
  540loPI   GL1 8629   9.299   5.316  10.364  0.0544 -0.2289 -0.0087
  540loPI   GL2 8630   9.128   5.531  10.396 -0.0596 -0.0077  0.0223
  540loPI   C1A 8631   9.264   5.005  10.010  0.1936 -0.0071  0.0743
  540loPI   C2A 8632   9.169   5.074   9.584 -0.4249  0.1727  0.1896
  540loPI   C3A 8633   9.232   5.138   9.168 -0.1029  0.1304  0.0186
  540loPI   C4A 8634   9.189   5.208   8.760  0.1646  0.3980  0.0403
  540loPI   C5A 8635   8.995   5.000   8.292 -0.0402  0.4214 -0.0893
  540loPI   C6A 8636   8.809   4.875   7.976 -0.0723  0.1424 -0.1611
  540loPI   C1B 8637   9.117   5.820  10.052  0.0052 -0.1959  0.0939
  540loPI   C2B 8638   9.176   5.928   9.625  0.2228  0.0122 -0.0886
  540loPI   C3B 8639   9.168   5.903   9.252 -0.0594 -0.1087  0.3849
  540loPI   C4B 8640   8.943   5.924   8.852 -0.0477  0.0423 -0.0567
  541POPI    C1 8641  17.458  14.675  11.126  0.0725  0.0533 -0.0210
  541POPI    C2 8642  17.698  14.865  10.868  0.0344 -0.0781 -0.1547
  541POPI    C3 8643  17.302  14.924  10.854  0.0465  0.0427 -0.0159
  541POPI   PO4 8644  17.513  14.469  11.074 -0.2957 -0.2884  0.0041
  541POPI   GL1 8645  17.803  14.382  10.803  0.2796 -0.1555  0.1151
  541POPI   GL2 8646  17.794  14.349  10.426 -0.1649 -0.4171 -0.1541
  541POPI   C1A 8647  18.026  13.992  10.631  0.0847 -0.0138  0.0812
  541POPI   D2A 8648  18.091  13.804  10.170  0.1725 -0.3575  0.0865
  541POPI   C3A 8649  18.084  14.113   9.799 -0.0033  0.1032  0.0000
  541POPI   C4A 8650  18.127  14.227   9.358  0.0712 -0.1950 -0.1063
  541POPI   C1B 8651  17.636  14.015  10.128 -0.0877  0.1011 -0.0473
  541POPI   C2B 8652  17.564  14.205   9.782  0.3452 -0.0866  0.0796
  541POPI   C3B 8653  17.563  14.168   9.413  0.1474 -0.2559  0.0609
  541POPI   C4B 8654  17.612  14.178   8.952 -0.0050  0.2598 -0.1810
  542POPI    C1 8655   0.188  10.957  10.955 -0.1848  0.0223  0.0455
  542POPI    C2 8656   0.088  11.251  11.207  0.1702  0.1076  0.0917
  542POPI    C3 8657   0.459  11.102  11.210  0.1923  0.1359 -0.4063
  542POPI   PO4 8658   0.150  10.972  10.767 -0.0833 -0.0363  0.1327
  542POPI   GL1 8659   0.295  10.811  10.411  0.1257 -0.0632 -0.1528
  542POPI   GL2 8660   0.133  10.612  10.238  0.1540  0.0848  0.0105
  542POPI   C1A 8661   0.444  11.033   9.941  0.5172  0.2821 -0.2206
  542POPI   D2A 8662   0.681  11.074   9.647 -0.0341  0.1960  0.1175
  542POPI   C3A 8663   0.566  11.159   9.235 -0.0520 -0.2151  0.0244
  542POPI   C4A 8664   0.392  11.283   8.864  0.1575 -0.0036 -0.1415
  542POPI   C1B 8665   0.115  10.693   9.757  0.0756  0.0691  0.1390
  542POPI   C2B 8666   0.105  10.751   9.385  0.2423 -0.1659  0.0067
  542POPI   C3B 8667   0.037  11.086   9.160 -0.0842  0.0524 -0.1307
  542POPI   C4B 8668   0.065  11.511   9.218 -0.3692 -0.1571  0.0944
  543POPI    C1 8669  13.076  13.396  11.041 -0.3368  0.1177 -0.0833
  543POPI    C2 8670  13.021  13.774  11.162 -0.2651  0.0421  0.1939
  543POPI    C3 8671  13.141  13.496  11.423 -0.0711 -0.1207 -0.0633
  543POPI   PO4 8672  12.816  13.308  10.850 -0.0837 -0.2663 -0.0309
  543POPI   GL1 8673  12.793  13.251  10.457 -0.0279  0.1505  0.2078
  543POPI   GL2 8674  12.819  12.900  10.354 -0.0846  0.0366  0.1033
  543POPI   C1A 8675  13.043  13.424  10.144 -0.1539  0.1963 -0.0174
  543POPI   D2A 8676  13.154  13.715   9.791  0.2864 -0.4075 -0.2720
  543POPI   C3A 8677  13.019  13.487   9.530 -0.0254  0.1415  0.1071
  543POPI   C4A 8678  13.129  13.458   9.199 -0.0514 -0.0768  0.3440
  543POPI   C1B 8679  12.734  12.989   9.918 -0.1788  0.4216 -0.4004
  543POPI   C2B 8680  12.710  13.032   9.529  0.2437 -0.0297  0.0526
  543POPI   C3B 8681  12.790  13.118   9.167  0.0407 -0.0293 -0.0779
  543POPI   C4B 8682  12.702  13.121   8.673 -0.0069  0.0614 -0.3618
  544POPI    C1 8683   6.981  17.713  11.256 -0.0484  0.2531 -0.0960
  544POPI    C2 8684   6.604  17.711  11.389  0.0061 -0.2427  0.0701
  544POPI    C3 8685   6.907  17.763  11.646  0.0587  0.0477 -0.0477
  544POPI   PO4 8686   7.028  17.469  11.094  0.3679 -0.1508  0.1482
  544POPI   GL1 8687   7.208  17.613  10.730 -0.0047 -0.1742 -0.0938
  544POPI   GL2 8688   7.504  17.707  10.634  0.0104  0.0640  0.0094
  544POPI   C1A 8689   7.211  17.438  10.284  0.2593  0.1847  0.2171
  544POPI   D2A 8690   7.524  17.383  10.011  0.2406  0.1420 -0.0070
  544POPI   C3A 8691   7.558  17.442   9.642  0.3149 -0.0296  0.1012
  544POPI   C4A 8692   7.277  17.288   9.309  0.1747 -0.0471 -0.0351
  544POPI   C1B 8693   7.577  17.807  10.196 -0.1801 -0.1733  0.0793
  544POPI   C2B 8694   7.638  17.958   9.730  0.0280  0.1201 -0.0769
  544POPI   C3B 8695   7.631  17.921   9.328  0.1357  0.2892 -0.2169
  544POPI   C4B 8696   7.602  17.854   8.890  0.0133 -0.0992 -0.2624
  545POPI    C1 8697  15.524  17.961  11.072 -0.1542 -0.2014  0.0022
  545POPI    C2 8698  15.887  18.010  11.234 -0.2029  0.2235 -0.0064
  545POPI    C3 8699  15.646  17.720  11.367  0.1450 -0.0766 -0.0160
  545POPI   PO4 8700  15.679  17.965  10.719 -0.3403  0.0239  0.0549
  545POPI   GL1 8701  16.005  18.213  10.511  0.1705  0.0999  0.1375
  545POPI   GL2 8702  16.283  18.349  10.433 -0.1833 -0.3014 -0.0088
  545POPI   C1A 8703  15.985  18.073  10.125 -0.1744  0.0618 -0.0877
  545POPI   D2A 8704  16.022  18.025   9.591  0.0237  0.0983 -0.0597
  545POPI   C3A 8705  16.030  18.209   9.199  0.0563  0.1720  0.0298
  545POPI   C4A 8706  16.116  18.016   8.757  0.0990  0.0135  0.2315
  545POPI   C1B 8707  16.352  18.622  10.045  0.0870 -0.1233  0.3925
  545POPI   C2B 8708  16.418  18.541   9.639  0.1821  0.1529  0.0758
  545POPI   C3B 8709  16.505  18.577   9.165 -0.1207  0.0463 -0.3859
  545POPI   C4B 8710  16.418  18.592   8.679  0.0568  0.0402  0.0003
  546POPI    C1 8711   1.981  10.703  10.631 -0.0628 -0.0403 -0.0637
  546POPI    C2 8712   2.318  10.917  10.598 -0.1678  0.1611  0.1402
  546POPI    C3 8713   2.273  10.660  10.901 -0.1679  0.0786  0.0705
  546POPI   PO4 8714   1.942  10.630  10.414  0.2778  0.1132  0.0594
  546POPI   GL1 8715   1.963  10.593  10.067  0.0733  0.2050  0.0876
  546POPI   GL2 8716   1.709  10.874  10.018 -0.1718 -0.1698 -0.1888
  546POPI   C1A 8717   2.053  10.684   9.606  0.0260 -0.2500 -0.3427
  546POPI   D2A 8718   2.067  10.560   9.231 -0.0084  0.1893 -0.0882
  546POPI   C3A 8719   2.095  11.006   9.073 -0.1408  0.2608  0.0082
  546POPI   C4A 8720   2.006  11.268   8.707 -0.0904 -0.1740 -0.2557
  546POPI   C1B 8721   1.671  10.973   9.470  0.0388  0.0933  0.2174
  546POPI   C2B 8722   1.623  11.113   9.067 -0.1013  0.1406 -0.0698
  546POPI   C3B 8723   1.406  11.319   8.747 -0.1684  0.1794  0.1552
  546POPI   C4B 8724   1.529  11.407   8.354 -0.2056 -0.0003 -0.0340
  547POPI    C1 8725  12.995   8.399  11.102 -0.0508  0.0710  0.0276
  547POPI    C2 8726  12.817   8.109  11.312 -0.1943  0.0642 -0.1020
  547POPI    C3 8727  12.939   8.442  11.496  0.0615 -0.1177  0.0658
  547POPI   PO4 8728  12.888   8.481  10.869  0.0716  0.3757  0.0995
  547POPI   GL1 8729  13.075   8.531  10.432 -0.0327 -0.0143 -0.0799
  547POPI   GL2 8730  13.245   8.458  10.223  0.0033  0.1459 -0.1460
  547POPI   C1A 8731  12.794   8.829  10.427 -0.0944  0.3056  0.1647
  547POPI   D2A 8732  12.852   9.209  10.061  0.1729  0.1921  0.0592
  547POPI   C3A 8733  13.018   9.053   9.605 -0.1338  0.1697  0.0628
  547POPI   C4A 8734  12.807   9.146   9.237 -0.0668 -0.0738  0.1434
  547POPI   C1B 8735  12.964   8.674   9.890 -0.1023 -0.0855  0.0404
  547POPI   C2B 8736  12.891   8.566   9.507 -0.1421  0.0012  0.2912
  547POPI   C3B 8737  12.828   8.539   9.078 -0.2237 -0.0788 -0.0578
  547POPI   C4B 8738  12.519   8.818   8.878 -0.3359 -0.1637  0.0375
  548POPI    C1 8739   6.735  10.284  10.881 -0.0163  0.0749 -0.2240
  548POPI    C2 8740   6.359  10.304  11.016  0.0220  0.1687 -0.1295
  548POPI    C3 8741   6.597  10.004  11.132 -0.0330  0.0911 -0.2152
  548POPI   PO4 8742   6.734  10.277  10.612  0.3797  0.1854 -0.0090
  548POPI   GL1 8743   6.865  10.373  10.259  0.0106 -0.2486 -0.2657
  548POPI   GL2 8744   7.098  10.098  10.234 -0.2467  0.0807  0.2593
  548POPI   C1A 8745   7.017  10.336   9.818  0.0039 -0.1318  0.1414
  548POPI   D2A 8746   6.946  10.261   9.383 -0.1265  0.1664 -0.0027
  548POPI   C3A 8747   6.712   9.957   9.172 -0.0216  0.0637  0.0738
  548POPI   C4A 8748   6.631   9.652   8.757  0.0326 -0.0363 -0.0186
  548POPI   C1B 8749   7.048   9.840   9.809  0.0448  0.1996 -0.0198
  548POPI   C2B 8750   7.137   9.796   9.429  0.2529 -0.2573 -0.3964
  548POPI   C3B 8751   7.169   9.942   9.041 -0.0224 -0.2539 -0.0147
  548POPI   C4B 8752   6.970  10.099   8.712 -0.1881 -0.3195  0.0417
  549POPI    C1 8753  16.687   3.641  11.056 -0.0695  0.0611 -0.0699
  549POPI    C2 8754  16.495   3.466  11.359  0.1690 -0.2239 -0.0780
  549POPI    C3 8755  16.606   3.849  11.387  0.3102 -0.2855  0.2522
  549POPI   PO4 8756  16.466   3.540  10.830 -0.1212 -0.1600 -0.0292
  549POPI   GL1 8757  16.295   3.617  10.360 -0.0285 -0.0742 -0.1453
  549POPI   GL2 8758  15.982   3.591  10.198  0.4042  0.0175 -0.2042
  549POPI   C1A 8759  16.547   3.617  10.106 -0.1196  0.1627 -0.1390
  549POPI   D2A 8760  16.609   3.508   9.685  0.2152  0.2941  0.0868
  549POPI   C3A 8761  16.662   3.458   9.261  0.3005  0.2583 -0.1803
  549POPI   C4A 8762  16.586   3.406   8.834 -0.0954 -0.2313 -0.0460
  549POPI   C1B 8763  16.097   3.479   9.824 -0.0604  0.0368 -0.3769
  549POPI   C2B 8764  16.155   3.386   9.405  0.0600 -0.0284  0.1076
  549POPI   C3B 8765  16.168   3.356   9.081  0.1024 -0.0248  0.4568
  549POPI   C4B 8766  16.185   3.317   8.559  0.4750  0.0113  0.0078
  550POPI    C1 8767  13.298   3.463  10.605  0.0062 -0.0624 -0.0514
  550POPI    C2 8768  13.539   3.778  10.551 -0.0744  0.0008 -0.0443
  550POPI    C3 8769  13.523   3.596  10.908  0.0897 -0.1099 -0.0923
  550POPI   PO4 8770  13.328   3.401  10.329 -0.1062 -0.2966  0.6386
  550POPI   GL1 8771  13.418   3.505   9.893 -0.0866  0.1250  0.1670
  550POPI   GL2 8772  13.363   3.800  10.104 -0.0658 -0.0525 -0.2285
  550POPI   C1A 8773  13.556   3.471   9.443  0.0346  0.0477  0.1272
  550POPI   D2A 8774  13.528   3.484   9.025 -0.0962 -0.1426 -0.2882
  550POPI   C3A 8775  13.384   3.540   8.580  0.0652  0.1688 -0.2758
  550POPI   C4A 8776  13.541   3.303   8.329 -0.2397 -0.1133 -0.1366
  550POPI   C1B 8777  13.618   3.945   9.620  0.1701  0.0639  0.0503
  550POPI   C2B 8778  13.637   3.978   9.160  0.0819 -0.1086  0.1248
  550POPI   C3B 8779  13.577   4.039   8.636  0.2607 -0.2928 -0.3013
  550POPI   C4B 8780  13.636   3.874   8.302 -0.0321  0.0253 -0.1635
  551POPI    C1 8781   0.507  10.557  10.869  0.2328 -0.0282  0.0227
  551POPI    C2 8782   0.783  10.728  11.102  0.1457 -0.0304  0.1282
  551POPI    C3 8783   0.464  10.552  11.266 -0.0503  0.1964 -0.0021
  551POPI   PO4 8784   0.535  10.306  10.748 -0.1086 -0.1503  0.1226
  551POPI   GL1 8785   0.385  10.167  10.374 -0.1222  0.0051  0.0037
  551POPI   GL2 8786   0.688   9.961  10.173 -0.1842 -0.1154 -0.1933
  551POPI   C1A 8787   0.204  10.192   9.977  0.1614  0.1394  0.1598
  551POPI   D2A 8788   0.343  10.077   9.511 -0.2635  0.0073  0.1010
  551POPI   C3A 8789   0.524  10.198   9.114 -0.0596 -0.0194  0.1741
  551POPI   C4A 8790   0.491  10.225   8.711 -0.0457  0.2057  0.1968
  551POPI   C1B 8791   0.794   9.845   9.781  0.2010 -0.0623  0.2124
  551POPI   C2B 8792   0.844   9.891   9.325 -0.0303 -0.3139 -0.0421
  551POPI   C3B 8793   0.909   9.918   8.852 -0.0083  0.0525  0.0672
  551POPI   C4B 8794   0.902  10.013   8.395 -0.1231  0.1929  0.1405
  552POPI    C1 8795  14.780  13.333  11.003 -0.3529 -0.0698 -0.2255
  552POPI    C2 8796  14.621  13.384  11.367  0.0830 -0.0773 -0.0276
  552POPI    C3 8797  14.612  13.683  11.101 -0.0647 -0.0059  0.0566
  552POPI   PO4 8798  15.005  13.226  11.038 -0.1127 -0.1124  0.0458
  552POPI   GL1 8799  15.263  13.199  10.759 -0.4126  0.0708 -0.0538
  552POPI   GL2 8800  15.526  13.107  10.668  0.1093  0.2365 -0.2874
  552POPI   C1A 8801  15.100  12.873  10.426  0.0341 -0.1663  0.2683
  552POPI   D2A 8802  14.753  12.856  10.165 -0.0343  0.2150  0.2248
  552POPI   C3A 8803  14.722  12.841   9.704  0.0962 -0.0547  0.0612
  552POPI   C4A 8804  14.770  12.738   9.352 -0.0455 -0.0427 -0.1071
  552POPI   C1B 8805  15.479  13.053  10.183 -0.0251 -0.0062  0.1218
  552POPI   C2B 8806  15.518  13.111   9.760 -0.1847 -0.0330  0.0146
  552POPI   C3B 8807  15.590  13.117   9.325 -0.0035  0.2217 -0.1758
  552POPI   C4B 8808  15.684  12.942   8.936  0.0708  0.1230 -0.0102
  553POPI    C1 8809  13.608  12.305  11.249  0.1018 -0.1626 -0.1296
  553POPI    C2 8810  13.266  12.264  11.047 -0.0415  0.1850  0.0344
  553POPI    C3 8811  13.410  11.958  11.259 -0.2270  0.0224 -0.0698
  553POPI   PO4 8812  13.808  12.444  11.097  0.1866  0.0863 -0.3012
  553POPI   GL1 8813  13.611  12.523  10.736 -0.1812 -0.4806  0.2707
  553POPI   GL2 8814  13.853  12.412  10.558 -0.2333 -0.3365  0.3804
  553POPI   C1A 8815  13.648  12.818  10.415 -0.2314 -0.4207 -0.0299
  553POPI   D2A 8816  13.798  12.984  10.061  0.2772  0.0311 -0.1014
  553POPI   C3A 8817  13.703  12.852   9.557  0.1895 -0.1949 -0.1336
  553POPI   C4A 8818  13.799  12.879   9.100  0.0199 -0.0917 -0.0202
  553POPI   C1B 8819  14.014  12.389  10.177  0.1118 -0.0551 -0.2342
  553POPI   C2B 8820  13.924  12.434   9.677 -0.2569 -0.0559  0.0038
  553POPI   C3B 8821  13.978  12.382   9.157  0.0793  0.2168 -0.0196
  553POPI   C4B 8822  13.936  12.471   8.707  0.2165 -0.3369 -0.0793
  554POPI    C1 8823   7.174  15.777  10.875  0.0111 -0.0806 -0.0424
  554POPI    C2 8824   6.892  16.054  10.933  0.1587  0.0301  0.1584
  554POPI    C3 8825   7.006  15.817  11.235  0.3974  0.0982  0.1236
  554POPI   PO4 8826   7.102  15.653  10.689 -0.0235  0.3465 -0.1850
  554POPI   GL1 8827   6.750  15.594  10.472 -0.1902 -0.3358 -0.2394
  554POPI   GL2 8828   6.801  15.868  10.331 -0.0795  0.1101 -0.0051
  554POPI   C1A 8829   6.772  15.405  10.043 -0.1154  0.0084  0.0610
  554POPI   D2A 8830   6.828  15.445   9.676 -0.1882  0.0800 -0.3323
  554POPI   C3A 8831   6.917  15.514   9.212 -0.0139  0.0749  0.0632
  554POPI   C4A 8832   6.852  15.674   8.751  0.1668  0.2703 -0.0225
  554POPI   C1B 8833   6.882  15.927   9.866 -0.0663  0.2659 -0.4372
  554POPI   C2B 8834   7.094  15.995   9.415 -0.1880 -0.3530 -0.1776
  554POPI   C3B 8835   7.251  15.939   8.929  0.0572  0.2768 -0.1089
  554POPI   C4B 8836   7.581  16.117   8.670  0.0387 -0.0041  0.0709
  555POPI    C1 8837  16.643   5.307  10.528  0.0429  0.0221  0.2054
  555POPI    C2 8838  16.581   4.942  10.681 -0.1433 -0.0147  0.0475
  555POPI    C3 8839  16.472   5.268  10.887 -0.0406 -0.0494  0.1582
  555POPI   PO4 8840  16.738   5.229  10.321 -0.0658  0.1838  0.0809
  555POPI   GL1 8841  17.087   5.027  10.015  0.0033 -0.1186 -0.0635
  555POPI   GL2 8842  16.880   4.770  10.087  0.2235 -0.0682  0.0466
  555POPI   C1A 8843  16.908   5.220   9.617  0.0715  0.1589 -0.2616
  555POPI   D2A 8844  16.794   5.235   9.220  0.2152  0.2138  0.0171
  555POPI   C3A 8845  16.656   5.406   8.881  0.1577 -0.0141 -0.2120
  555POPI   C4A 8846  16.893   5.255   8.465  0.0407 -0.1941  0.2628
  555POPI   C1B 8847  16.918   4.666   9.618  0.1459 -0.3203 -0.1916
  555POPI   C2B 8848  17.055   4.710   9.222  0.2856  0.1870  0.2884
  555POPI   C3B 8849  17.107   4.570   8.783 -0.1453 -0.1063  0.3141
  555POPI   C4B 8850  17.042   4.411   8.365 -0.3221  0.1239  0.0128
  556POPI    C1 8851  16.280   9.348  10.413  0.2703  0.1143 -0.2132
  556POPI    C2 8852  16.567   9.069  10.427  0.0827 -0.0710  0.0428
  556POPI    C3 8853  16.190   8.964  10.346  0.0513  0.1443 -0.0990
  556POPI   PO4 8854  16.375   9.506  10.167 -0.0067  0.1098 -0.0488
  556POPI   GL1 8855  16.442   9.756   9.840 -0.0900 -0.0207  0.2615
  556POPI   GL2 8856  16.082   9.743   9.757 -0.1021  0.0968 -0.3873
  556POPI   C1A 8857  16.544   9.565   9.458 -0.0203 -0.1501 -0.0023
  556POPI   D2A 8858  16.791   9.455   9.050 -0.0957 -0.1219 -0.2418
  556POPI   C3A 8859  16.775   9.058   8.895 -0.1175 -0.3477 -0.1751
  556POPI   C4A 8860  16.636   8.656   8.814  0.2132 -0.0109  0.0362
  556POPI   C1B 8861  16.131   9.768   9.348 -0.2008  0.0009  0.0020
  556POPI   C2B 8862  16.271   9.780   8.975 -0.3815 -0.0571  0.2254
  556POPI   C3B 8863  16.599   9.785   8.762 -0.2733 -0.2564 -0.0730
  556POPI   C4B 8864  16.699  10.028   8.418 -0.1097  0.3134  0.0497
  557POPI    C1 8865  15.924   6.474  10.393  0.1473  0.0639  0.1996
  557POPI    C2 8866  15.676   6.194  10.536 -0.1124  0.1007 -0.1652
  557POPI    C3 8867  15.868   6.439  10.788 -0.0761 -0.2381  0.1445
  557POPI   PO4 8868  16.095   6.406  10.179  0.0183 -0.1580  0.0443
  557POPI   GL1 8869  16.075   6.544   9.859 -0.1569  0.0531 -0.0184
  557POPI   GL2 8870  16.018   6.337   9.533  0.1771 -0.2650  0.0813
  557POPI   C1A 8871  16.497   6.483   9.590  0.3203 -0.1579  0.0041
  557POPI   D2A 8872  16.496   6.208   9.287  0.1882  0.1016  0.4693
  557POPI   C3A 8873  16.395   6.339   9.000 -0.0790  0.2304  0.0276
  557POPI   C4A 8874  16.396   6.426   8.619 -0.0598 -0.1651  0.2757
  557POPI   C1B 8875  15.903   6.324   9.057 -0.2817  0.1503 -0.1921
  557POPI   C2B 8876  16.056   6.052   8.617 -0.0539  0.0551  0.1464
  557POPI   C3B 8877  16.019   5.925   8.231  0.2587  0.0681 -0.2416
  557POPI   C4B 8878  16.245   5.701   7.907  0.0642 -0.0130 -0.1178
  558POPI    C1 8879   8.181  10.967  11.125 -0.0249  0.0833 -0.0011
  558POPI    C2 8880   7.957  11.252  11.294 -0.1172  0.0017  0.0149
  558POPI    C3 8881   7.800  10.891  11.221 -0.0368 -0.0070 -0.1176
  558POPI   PO4 8882   8.327  11.107  10.969  0.0647  0.4270 -0.1275
  558POPI   GL1 8883   8.337  11.112  10.544  0.2440 -0.3839  0.0436
  558POPI   GL2 8884   8.399  10.775  10.548 -0.0670  0.0867 -0.1206
  558POPI   C1A 8885   8.102  10.945  10.225  0.1653  0.0513  0.0868
  558POPI   D2A 8886   8.186  10.863   9.846  0.1610  0.2437 -0.0119
  558POPI   C3A 8887   8.156  10.985   9.456  0.1467  0.1407 -0.3403
  558POPI   C4A 8888   8.162  11.001   9.025 -0.0693  0.0746  0.0486
  558POPI   C1B 8889   8.578  10.665  10.257 -0.1721 -0.0786 -0.2354
  558POPI   C2B 8890   8.867  10.408   9.932 -0.1397 -0.0660 -0.1683
  558POPI   C3B 8891   8.968  10.613   9.439  0.2428 -0.3708 -0.1089
  558POPI   C4B 8892   9.053  10.654   9.006  0.1575 -0.0046  0.2133
  559POPI    C1 8893  17.932   0.866  11.171  0.1351 -0.1161  0.3266
  559POPI    C2 8894  17.916   1.264  11.133  0.2214 -0.1421 -0.0079
  559POPI    C3 8895  17.600   1.064  11.275  0.0688  0.0178 -0.1171
  559POPI   PO4 8896  17.958   0.757  10.956 -0.0222  0.2212 -0.2194
  559POPI   GL1 8897  18.262   0.588  10.695  0.2070  0.2010 -0.1155
  559POPI   GL2 8898  18.161   0.742  10.473 -0.2358 -0.0655 -0.2421
  559POPI   C1A 8899  18.346   0.348  10.288 -0.0016 -0.1183  0.2239
  559POPI   D2A 8900  18.447   0.088   9.905 -0.0827 -0.0607  0.1945
  559POPI   C3A 8901  18.513   0.122   9.499 -0.3031 -0.1137  0.1217
  559POPI   C4A 8902  18.512   0.070   9.043  0.1050  0.2479  0.0151
  559POPI   C1B 8903  18.133   0.708  10.058 -0.0151  0.0782 -0.0158
  559POPI   C2B 8904  18.275   0.699   9.654  0.1333  0.0804 -0.1263
  559POPI   C3B 8905  18.335   0.563   9.238  0.1302 -0.2240  0.0696
  559POPI   C4B 8906  18.371   0.593   8.792  0.0432  0.3755 -0.1404
  560POPI    C1 8907   2.864  13.186  10.883 -0.0948  0.0698  0.0935
  560POPI    C2 8908   2.547  13.363  11.051 -0.0510  0.1167  0.1274
  560POPI    C3 8909   2.794  13.141  11.275 -0.2573 -0.2141  0.0351
  560POPI   PO4 8910   2.746  13.211  10.595  0.2355 -0.1138  0.2210
  560POPI   GL1 8911   2.837  13.353  10.239  0.0167  0.1680 -0.1144
  560POPI   GL2 8912   2.971  13.551  10.142  0.0526 -0.0591  0.1816
  560POPI   C1A 8913   2.905  13.105   9.932 -0.0399 -0.2231  0.3554
  560POPI   D2A 8914   2.622  12.720   9.926  0.3983  0.2116  0.1647
  560POPI   C3A 8915   2.412  12.658   9.491 -0.0758  0.0424  0.0449
  560POPI   C4A 8916   2.455  12.779   8.979  0.3365  0.0792 -0.2338
  560POPI   C1B 8917   3.175  13.545   9.715  0.2111  0.0703 -0.2241
  560POPI   C2B 8918   3.116  13.522   9.328  0.0842  0.1590 -0.0595
  560POPI   C3B 8919   3.103  13.473   8.893  0.4220  0.1223  0.2906
  560POPI   C4B 8920   2.904  13.426   8.519  0.2441  0.1619 -0.1078
  561POPI    C1 8921   7.860  14.891  11.025 -0.1280  0.0472  0.1327
  561POPI    C2 8922   7.689  15.031  11.358  0.0415  0.3269  0.1053
  561POPI    C3 8923   8.072  14.917  11.363  0.0673  0.4060 -0.0110
  561POPI   PO4 8924   7.784  15.053  10.832 -0.0349 -0.0483  0.1217
  561POPI   GL1 8925   7.675  15.209  10.510  0.1843 -0.2021  0.1997
  561POPI   GL2 8926   7.440  15.296  10.387 -0.0059 -0.0812  0.2320
  561POPI   C1A 8927   7.976  15.078  10.122 -0.0808  0.0932  0.0143
  561POPI   D2A 8928   8.274  15.149   9.707 -0.0712  0.0416  0.0402
  561POPI   C3A 8929   8.476  14.953   9.381  0.1209 -0.0826  0.0757
  561POPI   C4A 8930   8.503  14.996   8.849 -0.1476 -0.2922  0.1076
  561POPI   C1B 8931   7.250  15.249   9.939 -0.1365 -0.1711  0.1091
  561POPI   C2B 8932   7.266  15.319   9.472 -0.1217 -0.2581 -0.1042
  561POPI   C3B 8933   7.350  15.396   8.997  0.2032 -0.2577 -0.1875
  561POPI   C4B 8934   7.346  15.189   8.690 -0.1677 -0.2759  0.0826
  562POPI    C1 8935   6.053   0.149  10.884  0.0728 -0.0206 -0.0332
  562POPI    C2 8936   6.410   0.054  11.038  0.0358  0.1016  0.1310
  562POPI    C3 8937   6.192  -0.224  10.850  0.2419  0.0405 -0.0204
  562POPI   PO4 8938   6.040   0.382  10.647  0.3977 -0.0552 -0.2245
  562POPI   GL1 8939   6.153   0.443  10.230 -0.1684 -0.2657  0.0123
  562POPI   GL2 8940   5.910   0.390  10.149  0.3799  0.3338  0.0659
  562POPI   C1A 8941   6.404   0.552   9.904 -0.1269 -0.1033  0.0503
  562POPI   D2A 8942   6.510   0.960   9.636  0.1534 -0.0939  0.2505
  562POPI   C3A 8943   6.447   1.073   9.269  0.2206 -0.1395 -0.0970
  562POPI   C4A 8944   6.153   1.058   8.847 -0.1825 -0.0701 -0.2618
  562POPI   C1B 8945   5.815   0.492   9.774  0.1519 -0.0320 -0.1699
  562POPI   C2B 8946   5.984   0.540   9.326 -0.1004 -0.0153  0.1005
  562POPI   C3B 8947   6.336   0.574   9.073  0.2497  0.0526 -0.3047
  562POPI   C4B 8948   6.537   0.424   8.753  0.1366 -0.0512  0.0701
  563POPI    C1 8949   4.781   8.353  10.782  0.0342 -0.1075 -0.2442
  563POPI    C2 8950   4.778   8.190  10.416 -0.0063 -0.3887 -0.1212
  563POPI    C3 8951   4.943   7.992  10.722 -0.1517 -0.2444  0.0530
  563POPI   PO4 8952   4.817   8.601  10.738 -0.1387  0.0729  0.1511
  563POPI   GL1 8953   5.147   8.646  10.358  0.0800 -0.3430  0.0099
  563POPI   GL2 8954   4.821   8.644  10.237 -0.2575  0.0599  0.0899
  563POPI   C1A 8955   5.118   8.381   9.962  0.1023  0.0249  0.1634
  563POPI   D2A 8956   5.036   8.405   9.603  0.0461 -0.0770 -0.2999
  563POPI   C3A 8957   5.144   8.374   9.229 -0.0722 -0.1031  0.0228
  563POPI   C4A 8958   5.210   8.381   8.754 -0.1253  0.3752  0.0839
  563POPI   C1B 8959   5.037   8.858   9.894 -0.0704 -0.1030 -0.3306
  563POPI   C2B 8960   5.291   8.883   9.544 -0.1368 -0.0316  0.0829
  563POPI   C3B 8961   5.406   8.942   9.138 -0.0217 -0.1994  0.1374
  563POPI   C4B 8962   5.062   8.844   8.858 -0.3528 -0.1712 -0.0662
  564POPI    C1 8963  12.511   9.588  10.788  0.0732  0.0230 -0.2953
  564POPI    C2 8964  12.609   9.864  11.059  0.1615 -0.0068 -0.2965
  564POPI    C3 8965  12.637   9.476  11.151 -0.3997 -0.0175 -0.1372
  564POPI   PO4 8966  12.384   9.686  10.587 -0.0772 -0.2065  0.2318
  564POPI   GL1 8967  12.184   9.691  10.171 -0.1775 -0.2897 -0.2194
  564POPI   GL2 8968  12.044   9.916  10.308 -0.4862  0.0998  0.1414
  564POPI   C1A 8969  12.363   9.443   9.818  0.3326  0.0148 -0.0123
  564POPI   D2A 8970  12.714   9.455   9.589  0.0991 -0.1198 -0.1883
  564POPI   C3A 8971  12.607   9.629   9.145 -0.1758 -0.0784 -0.0187
  564POPI   C4A 8972  12.446   9.740   8.683 -0.0128  0.0790 -0.1231
  564POPI   C1B 8973  11.761   9.846   9.884  0.1353  0.2362 -0.0056
  564POPI   C2B 8974  11.822   9.800   9.419 -0.0469  0.2246 -0.0550
  564POPI   C3B 8975  11.491   9.700   9.125 -0.1162 -0.2299 -0.0176
  564POPI   C4B 8976  11.063   9.666   9.182  0.2344 -0.2784 -0.0333
  565POPI    C1 8977   0.352   0.675  11.201  0.0322  0.0937 -0.1302
  565POPI    C2 8978   0.413   0.632  11.593 -0.1477  0.2341 -0.0852
  565POPI    C3 8979   0.079   0.489  11.426 -0.0213  0.0784 -0.2074
  565POPI   PO4 8980   0.554   0.645  11.086  0.0103  0.2276 -0.3401
  565POPI   GL1 8981   0.710   0.687  10.776  0.1684  0.1752 -0.1542
  565POPI   GL2 8982   1.054   0.723  10.685 -0.0246  0.2107  0.0897
  565POPI   C1A 8983   0.657   0.658  10.396  0.1346  0.2140 -0.0945
  565POPI   D2A 8984   0.659   0.630  10.001 -0.0215  0.1959 -0.1551
  565POPI   C3A 8985   0.730   0.579   9.539  0.1010  0.0985  0.0773
  565POPI   C4A 8986   0.758   0.604   9.083 -0.0384 -0.2098  0.1494
  565POPI   C1B 8987   1.156   0.553  10.264  0.0462  0.2683 -0.1132
  565POPI   C2B 8988   1.208   0.457   9.823  0.3871 -0.2373  0.1333
  565POPI   C3B 8989   1.228   0.498   9.396  0.2990 -0.1065 -0.0532
  565POPI   C4B 8990   1.320   0.411   8.990 -0.1336 -0.0154 -0.2549
  566POPI    C1 8991   8.815  13.819  10.882 -0.0275 -0.1384  0.0738
  566POPI    C2 8992   8.425  13.732  10.855 -0.1506  0.3826  0.0602
  566POPI    C3 8993   8.647  13.569  11.145 -0.3538  0.0109  0.0126
  566POPI   PO4 8994   8.895  13.827  10.651  0.2693  0.4453  0.0444
  566POPI   GL1 8995   8.876  13.834  10.257  0.1221 -0.2834 -0.2395
  566POPI   GL2 8996   8.842  13.471  10.087  0.3844  0.3747  0.0983
  566POPI   C1A 8997   9.037  13.941   9.957  0.2377  0.0755 -0.0625
  566POPI   D2A 8998   9.325  14.229   9.774 -0.1808 -0.0530  0.0270
  566POPI   C3A 8999   9.351  14.219   9.335  0.4070 -0.3075 -0.3195
  566POPI   C4A 9000   9.269  14.381   9.025 -0.0930 -0.0779 -0.1640
  566POPI   C1B 9001   8.512  13.450   9.650 -0.1565 -0.0423 -0.1097
  566POPI   C2B 9002   8.240  13.269   9.192  0.0342 -0.2904 -0.0932
  566POPI   C3B 9003   8.016  13.093   8.802  0.0062 -0.0945  0.2447
  566POPI   C4B 9004   7.691  13.260   8.482 -0.0353 -0.1713 -0.2061
  567POPI    C1 9005  17.854  12.106  11.102 -0.0807 -0.0201 -0.2965
  567POPI    C2 9006  18.239  11.998  11.084 -0.0792 -0.1851  0.4150
  567POPI    C3 9007  17.954  11.718  11.108 -0.2568 -0.0647 -0.1378
  567POPI   PO4 9008  17.745  12.226  10.834 -0.1113 -0.1559 -0.0396
  567POPI   GL1 9009  17.613  12.228  10.489 -0.3744 -0.0764 -0.3690
  567POPI   GL2 9010  17.703  12.082  10.281  0.1419  0.2507 -0.0609
  567POPI   C1A 9011  17.587  12.522  10.176  0.2563 -0.1844  0.2787
  567POPI   D2A 9012  17.661  12.658   9.687 -0.0873 -0.4001  0.0616
  567POPI   C3A 9013  17.587  12.771   9.325  0.2929  0.1002 -0.1421
  567POPI   C4A 9014  17.699  12.828   8.872  0.2570 -0.2438  0.0202
  567POPI   C1B 9015  17.658  11.989   9.777  0.2045 -0.4415  0.0789
  567POPI   C2B 9016  17.706  11.900   9.351  0.1995  0.2713 -0.1722
  567POPI   C3B 9017  17.809  11.925   8.973  0.0185  0.1831  0.0993
  567POPI   C4B 9018  18.144  11.767   8.746  0.2950 -0.2071  0.0939
  568POPI    C1 9019   6.992   9.280  10.777 -0.0642 -0.0126  0.0073
  568POPI    C2 9020   6.813   9.627  10.861 -0.2814 -0.0823 -0.1584
  568POPI    C3 9021   6.783   9.320  11.115  0.0057  0.0517  0.0433
  568POPI   PO4 9022   7.012   9.346  10.494 -0.0319 -0.0004 -0.2146
  568POPI   GL1 9023   7.221   9.590  10.245 -0.1357 -0.2522 -0.1925
  568POPI   GL2 9024   7.486   9.516  10.256  0.1356  0.2000  0.3643
  568POPI   C1A 9025   7.257   9.249   9.862 -0.1051 -0.1856  0.3332
  568POPI   D2A 9026   7.102   9.115   9.548 -0.0047 -0.2811  0.0048
  568POPI   C3A 9027   7.375   9.357   9.324  0.1433  0.0597 -0.4688
  568POPI   C4A 9028   7.484   9.523   8.857 -0.1529  0.1043 -0.0592
  568POPI   C1B 9029   7.505   9.709   9.813 -0.0726  0.0776 -0.1853
  568POPI   C2B 9030   7.650   9.788   9.385 -0.2266 -0.1326  0.0386
  568POPI   C3B 9031   7.668  10.010   8.971  0.0502  0.3941  0.1267
  568POPI   C4B 9032   7.778  10.118   8.524 -0.1412 -0.0633  0.1459
  569POPI    C1 9033   7.741  16.740  11.186 -0.0948  0.0762 -0.1028
  569POPI    C2 9034   7.679  16.434  11.437  0.1403 -0.0917 -0.2447
  569POPI    C3 9035   7.967  16.701  11.513  0.0491 -0.0021 -0.2103
  569POPI   PO4 9036   7.438  16.703  11.084  0.0450 -0.0459  0.2456
  569POPI   GL1 9037   7.370  16.672  10.661 -0.1295  0.1375 -0.0674
  569POPI   GL2 9038   7.657  16.819  10.632  0.0982  0.2825 -0.0956
  569POPI   C1A 9039   6.951  16.789  10.386  0.1541 -0.0860  0.1103
  569POPI   D2A 9040   6.853  17.132   9.996 -0.2020 -0.1997 -0.0126
  569POPI   C3A 9041   7.003  17.321   9.753 -0.0069 -0.1583  0.0854
  569POPI   C4A 9042   6.792  17.263   9.443 -0.0337  0.1154  0.1613
  569POPI   C1B 9043   7.395  16.950  10.234 -0.0054 -0.0257 -0.2376
  569POPI   C2B 9044   7.351  16.943   9.778  0.0146  0.1167  0.1002
  569POPI   C3B 9045   7.457  16.778   9.350 -0.1122 -0.2195 -0.0682
  569POPI   C4B 9046   7.334  16.476   9.004  0.0711  0.0198  0.1944
  570POPI    C1 9047   5.406  11.157  10.816  0.1415 -0.1478  0.0237
  570POPI    C2 9048   5.504  10.772  10.852  0.3533 -0.1096 -0.1260
  570POPI    C3 9049   5.730  11.053  11.025  0.0930 -0.0607  0.1437
  570POPI   PO4 9050   5.309  11.156  10.531 -0.0435 -0.1739  0.0498
  570POPI   GL1 9051   5.083  11.462  10.330 -0.2522  0.2233  0.0454
  570POPI   GL2 9052   5.086  11.762  10.350 -0.1633  0.0174  0.4400
  570POPI   C1A 9053   5.011  11.451   9.861 -0.0004 -0.1492  0.1058
  570POPI   D2A 9054   4.960  11.456   9.411  0.2631  0.2782  0.5895
  570POPI   C3A 9055   4.980  11.411   9.033 -0.0067 -0.2202  0.1699
  570POPI   C4A 9056   4.891  11.360   8.612  0.1211 -0.3128  0.0251
  570POPI   C1B 9057   5.252  11.894   9.934  0.0538 -0.1856 -0.2237
  570POPI   C2B 9058   5.381  11.854   9.572  0.0384  0.1767  0.0317
  570POPI   C3B 9059   5.335  11.819   9.124 -0.2188  0.0793  0.0922
  570POPI   C4B 9060   5.190  11.756   8.718  0.1055  0.0994 -0.2400
  571POPI    C1 9061  11.852   6.709  10.602  0.1022  0.0889 -0.2092
  571POPI    C2 9062  11.819   6.637  10.210  0.2038  0.0571 -0.2122
  571POPI    C3 9063  12.167   6.574  10.396  0.1570  0.0763 -0.1176
  571POPI   PO4 9064  11.645   6.944  10.547 -0.0030 -0.0833  0.1332
  571POPI   GL1 9065  11.481   7.063  10.164 -0.0478  0.0464 -0.0138
  571POPI   GL2 9066  11.655   6.964   9.923  0.1450  0.1701 -0.0173
  571POPI   C1A 9067  11.312   7.472   9.930  0.0639 -0.3623 -0.2900
  571POPI   D2A 9068  11.329   7.438   9.389  0.4875  0.0625  0.0732
  571POPI   C3A 9069  11.355   7.474   9.028  0.2856  0.0864 -0.2324
  571POPI   C4A 9070  11.467   7.519   8.615  0.2046  0.1339  0.3425
  571POPI   C1B 9071  11.606   7.063   9.542  0.0755 -0.1613  0.1471
  571POPI   C2B 9072  11.754   7.097   9.168  0.1054 -0.0781 -0.0784
  571POPI   C3B 9073  11.818   7.011   8.669  0.2074  0.0848 -0.2198
  571POPI   C4B 9074  11.715   7.289   8.255 -0.0237 -0.2209  0.0463
  572POPI    C1 9075  17.300   9.305  10.845 -0.0952 -0.1868  0.2776
  572POPI    C2 9076  16.913   9.231  10.773 -0.1202 -0.0058  0.2219
  572POPI    C3 9077  17.021   9.569  10.959  0.0365  0.1232 -0.0955
  572POPI   PO4 9078  17.403   9.214  10.633 -0.0882 -0.0491  0.0379
  572POPI   GL1 9079  17.480   9.336  10.156  0.3232  0.0124  0.0360
  572POPI   GL2 9080  17.727   9.156   9.997  0.0828  0.5628 -0.0796
  572POPI   C1A 9081  17.152   9.434   9.805  0.3693  0.2772 -0.1610
  572POPI   D2A 9082  16.949   9.239   9.520 -0.1887 -0.0090 -0.0408
  572POPI   C3A 9083  16.527   9.111   9.366 -0.2337  0.0649  0.1215
  572POPI   C4A 9084  16.244   8.847   9.208  0.0921  0.0597 -0.0531
  572POPI   C1B 9085  17.736   9.357   9.554 -0.1952 -0.0730  0.2447
  572POPI   C2B 9086  17.710   9.450   9.093  0.0125 -0.0955 -0.1700
  572POPI   C3B 9087  17.842   9.707   8.796 -0.0110 -0.1294  0.3257
  572POPI   C4B 9088  17.712   9.924   8.445 -0.1671 -0.0338  0.1280
  573POPI    C1 9089   5.595   7.246  10.763 -0.0687 -0.0563 -0.1760
  573POPI    C2 9090   5.694   6.934  10.993  0.1774  0.0465 -0.1398
  573POPI    C3 9091   5.338   7.110  11.037  0.0550 -0.2004 -0.1303
  573POPI   PO4 9092   5.611   7.196  10.522 -0.1767  0.1146  0.4617
  573POPI   GL1 9093   5.518   7.466  10.150 -0.0426  0.1431 -0.3392
  573POPI   GL2 9094   5.786   7.570  10.216 -0.1028  0.2763 -0.2062
  573POPI   C1A 9095   5.655   7.526   9.759 -0.2393 -0.1314  0.2792
  573POPI   D2A 9096   5.846   7.579   9.504  0.0610  0.1057 -0.1128
  573POPI   C3A 9097   5.774   7.602   9.031  0.1607  0.0581  0.1167
  573POPI   C4A 9098   5.716   7.465   8.612  0.1057 -0.0559  0.0343
  573POPI   C1B 9099   6.177   7.563   9.847  0.2044  0.0887  0.0789
  573POPI   C2B 9100   6.316   7.661   9.509 -0.0108 -0.1290 -0.0258
  573POPI   C3B 9101   6.361   7.603   9.087 -0.0929 -0.1069  0.0128
  573POPI   C4B 9102   6.263   7.537   8.687  0.0956 -0.1556 -0.0454
  574DPPI    C1 9103   7.701  17.931  11.288  0.2284 -0.0454 -0.2312
  574DPPI    C2 9104   7.354  17.925  11.089 -0.0041 -0.1655  0.1676
  574DPPI    C3 9105   7.485  17.595  11.272  0.1841 -0.0460  0.2516
  574DPPI   PO4 9106   7.865  18.066  11.155 -0.0710  0.0975 -0.1617
  574DPPI   GL1 9107   7.892  18.086  10.786 -0.2665  0.1499  0.1583
  574DPPI   GL2 9108   7.530  18.228  10.678 -0.0461 -0.0706  0.0576
  574DPPI   C1A 9109   8.147  18.101  10.401 -0.4049 -0.0172 -0.2441
  574DPPI   C2A 9110   8.148  18.130   9.898 -0.0273 -0.0850 -0.0056
  574DPPI   C3A 9111   8.173  18.141   9.481 -0.0346  0.1917 -0.2125
  574DPPI   C4A 9112   8.050  18.076   9.152 -0.0539 -0.0688 -0.3072
  574DPPI   C1B 9113   7.717  18.281  10.225 -0.1757 -0.0354  0.0289
  574DPPI   C2B 9114   7.754  18.436   9.734  0.0553 -0.1768 -0.2240
  574DPPI   C3B 9115   7.702  18.417   9.265 -0.2376 -0.0349  0.0521
  574DPPI   C4B 9116   7.539  18.418   8.799 -0.0734  0.1769  0.2632
  575DPPI    C1 9117  16.415   7.896  10.560 -0.0419 -0.1370  0.0911
  575DPPI    C2 9118  16.187   8.139  10.781 -0.0368 -0.1137  0.0709
  575DPPI    C3 9119  16.056   7.773  10.687 -0.1406 -0.0368 -0.0870
  575DPPI   PO4 9120  16.464   8.053  10.351 -0.2547  0.0637  0.1025
  575DPPI   GL1 9121  16.479   8.196   9.923  0.0518  0.0516  0.0824
  575DPPI   GL2 9122  16.223   8.256   9.915  0.3435  0.0557 -0.1022
  575DPPI   C1A 9123  16.478   7.971   9.571  0.2102 -0.0598 -0.2701
  575DPPI   C2A 9124  16.110   7.843   9.360 -0.0220 -0.2785 -0.0512
  575DPPI   C3A 9125  15.946   7.546   9.177 -0.0445 -0.0085 -0.0364
  575DPPI   C4A 9126  16.153   7.331   8.888  0.1828  0.2806 -0.1521
  575DPPI   C1B 9127  16.024   8.432   9.520 -0.2941  0.1340  0.2601
  575DPPI   C2B 9128  15.880   8.507   9.057  0.0205  0.2527 -0.1740
  575DPPI   C3B 9129  16.132   8.770   8.690  0.3536  0.1261  0.0312
  575DPPI   C4B 9130  16.299   8.794   8.311  0.2120 -0.0581 -0.0899
  576DPPI    C1 9131   9.289   1.512  10.909 -0.0281  0.2145 -0.0377
  576DPPI    C2 9132   8.986   1.295  11.055  0.0916  0.1116  0.0603
  576DPPI    C3 9133   9.241   1.132  10.792 -0.0023  0.2325 -0.1076
  576DPPI   PO4 9134   9.180   1.706  10.773 -0.0767 -0.0662  0.1878
  576DPPI   GL1 9135   8.988   2.138  10.699  0.4536 -0.4163  0.3519
  576DPPI   GL2 9136   8.649   2.070  10.630  0.1418  0.1582  0.0331
  576DPPI   C1A 9137   9.032   2.100  10.306 -0.3803  0.0223  0.0350
  576DPPI   C2A 9138   9.074   2.132   9.792 -0.0120 -0.0984  0.0866
  576DPPI   C3A 9139   9.051   2.229   9.431  0.1795 -0.0834 -0.2786
  576DPPI   C4A 9140   8.980   2.182   8.953  0.0637 -0.0329  0.0708
  576DPPI   C1B 9141   8.552   2.039  10.232  0.4616  0.0980 -0.2002
  576DPPI   C2B 9142   8.603   2.003   9.716 -0.2197 -0.2366  0.0148
  576DPPI   C3B 9143   8.600   2.050   9.206 -0.1254  0.0062 -0.2068
  576DPPI   C4B 9144   8.541   1.995   8.711 -0.0574  0.0375 -0.2282
  577DPPI    C1 9145  13.102   6.638  11.034  0.1010  0.0770  0.1443
  577DPPI    C2 9146  12.942   6.300  11.176  0.0417 -0.0010 -0.1018
  577DPPI    C3 9147  13.105   6.566  11.427  0.0765 -0.2051  0.0949
  577DPPI   PO4 9148  13.177   6.505  10.818  0.2767  0.2889 -0.1249
  577DPPI   GL1 9149  13.059   6.654  10.479 -0.1870  0.0742 -0.0508
  577DPPI   GL2 9150  13.135   6.288  10.259  0.1535  0.0112 -0.0072
  577DPPI   C1A 9151  13.187   6.736  10.155  0.1627  0.0213  0.1004
  577DPPI   C2A 9152  13.144   6.883   9.713 -0.1747 -0.0888 -0.1778
  577DPPI   C3A 9153  13.157   6.726   9.349  0.0283 -0.0246  0.1307
  577DPPI   C4A 9154  13.157   6.447   9.091 -0.4383  0.2080 -0.1658
  577DPPI   C1B 9155  13.229   6.127   9.901 -0.2164 -0.4233  0.3886
  577DPPI   C2B 9156  13.020   6.249   9.569 -0.3347 -0.1145 -0.1601
  577DPPI   C3B 9157  12.741   6.166   9.279 -0.2620 -0.2855  0.3493
  577DPPI   C4B 9158  12.488   5.869   9.224 -0.0968  0.2536 -0.0448
  578DPPI    C1 9159   5.362   5.901  10.882  0.0358  0.1537  0.0602
  578DPPI    C2 9160   5.266   5.720  11.226  0.0560 -0.0035 -0.0159
  578DPPI    C3 9161   5.564   5.987  11.216  0.0687 -0.0137  0.0840
  578DPPI   PO4 9162   5.419   5.755  10.689  0.2382  0.3263 -0.0726
  578DPPI   GL1 9163   5.201   5.746  10.219 -0.2504  0.0437  0.1141
  578DPPI   GL2 9164   5.384   5.895  10.195 -0.2441  0.1703 -0.0223
  578DPPI   C1A 9165   4.980   5.557   9.822  0.3291  0.4248  0.1280
  578DPPI   C2A 9166   5.002   5.451   9.369  0.0160  0.0702 -0.4109
  578DPPI   C3A 9167   5.108   5.574   8.957  0.0469  0.0924  0.0162
  578DPPI   C4A 9168   5.169   5.412   8.539  0.0493  0.0967 -0.0702
  578DPPI   C1B 9169   5.498   5.861   9.776  0.2920 -0.1585 -0.0904
  578DPPI   C2B 9170   5.477   5.695   9.319  0.0841  0.0863 -0.0917
  578DPPI   C3B 9171   5.605   5.639   8.890 -0.0409  0.0438  0.3295
  578DPPI   C4B 9172   5.697   5.562   8.480  0.1074  0.4358  0.1618
  579DPPI    C1 9173   5.385   3.605  11.175 -0.2169 -0.1180 -0.0956
  579DPPI    C2 9174   5.012   3.745  11.203 -0.1466  0.1165 -0.2956
  579DPPI    C3 9175   5.319   3.971  11.321 -0.0654 -0.0698 -0.1460
  579DPPI   PO4 9176   5.375   3.549  10.950 -0.1985  0.4761 -0.0981
  579DPPI   GL1 9177   5.376   3.711  10.481 -0.1241  0.0337  0.1662
  579DPPI   GL2 9178   5.350   3.989  10.343 -0.3516  0.3022  0.0318
  579DPPI   C1A 9179   5.193   3.488  10.069 -0.0927 -0.1805  0.0869
  579DPPI   C2A 9180   5.145   3.535   9.645  0.0584  0.0040 -0.0469
  579DPPI   C3A 9181   5.132   3.562   9.180 -0.1648 -0.1431 -0.2258
  579DPPI   C4A 9182   5.198   3.573   8.773 -0.0705  0.0462  0.1761
  579DPPI   C1B 9183   5.296   3.991   9.929  0.0001 -0.0333 -0.1376
  579DPPI   C2B 9184   5.280   4.022   9.468 -0.0995 -0.1871  0.1592
  579DPPI   C3B 9185   5.345   3.969   9.044  0.3466 -0.1872 -0.1147
  579DPPI   C4B 9186   5.412   3.963   8.630  0.0583 -0.2265  0.2511
  580DPPI    C1 9187   9.305   6.752  10.927 -0.0200 -0.0825 -0.1018
  580DPPI    C2 9188   9.526   7.077  11.002 -0.0433 -0.0472 -0.1848
  580DPPI    C3 9189   9.490   6.792  11.279  0.2031 -0.1088 -0.2142
  580DPPI   PO4 9190   9.459   6.682  10.668  0.0007  0.0287 -0.0911
  580DPPI   GL1 9191   9.454   6.698  10.232  0.0763 -0.0631  0.0452
  580DPPI   GL2 9192   9.109   6.739  10.203  0.0355 -0.2575  0.1493
  580DPPI   C1A 9193   9.546   6.820   9.842 -0.3798  0.1151  0.0125
  580DPPI   C2A 9194   9.428   6.849   9.401 -0.2374  0.1923 -0.1180
  580DPPI   C3A 9195   9.486   6.868   8.980  0.0345  0.0402  0.2031
  580DPPI   C4A 9196   9.409   6.996   8.509  0.0213  0.1471 -0.3743
  580DPPI   C1B 9197   8.779   6.627   9.844  0.1271  0.0598  0.1296
  580DPPI   C2B 9198   8.763   6.383   9.525  0.0155  0.1636 -0.0752
  580DPPI   C3B 9199   8.695   6.355   9.056  0.0917  0.2492  0.1633
  580DPPI   C4B 9200   8.603   6.443   8.564 -0.1827  0.0568 -0.2155
  581DPPI    C1 9201   4.909   5.627  10.871  0.0209  0.0900  0.0109
  581DPPI    C2 9202   4.872   5.354  11.161  0.0117 -0.0627 -0.1328
  581DPPI    C3 9203   5.197   5.355  10.927  0.1145  0.1876  0.0077
  581DPPI   PO4 9204   4.660   5.591  10.727  0.0637 -0.0820  0.0345
  581DPPI   GL1 9205   4.345   5.805  10.409  0.1300 -0.3258  0.2011
  581DPPI   GL2 9206   4.667   5.757  10.196 -0.0882 -0.1490  0.1314
  581DPPI   C1A 9207   4.170   6.117  10.110 -0.2050 -0.0662 -0.2654
  581DPPI   C2A 9208   4.095   6.162   9.682  0.0148 -0.1887  0.0124
  581DPPI   C3A 9209   4.184   6.105   9.208 -0.0118 -0.4272  0.1257
  581DPPI   C4A 9210   4.325   6.027   8.788  0.1705 -0.1761 -0.4428
  581DPPI   C1B 9211   4.542   5.775   9.740 -0.0060 -0.1933 -0.0821
  581DPPI   C2B 9212   4.600   5.788   9.238 -0.0117  0.1051  0.1216
  581DPPI   C3B 9213   4.765   5.893   8.931 -0.3714 -0.0722 -0.0276
  581DPPI   C4B 9214   4.731   5.772   8.449 -0.1561 -0.1201  0.2394
  582DPPI    C1 9215   1.755   2.899  11.160  0.1647  0.0623 -0.0554
  582DPPI    C2 9216   1.699   2.521  11.277 -0.0408  0.1241  0.0509
  582DPPI    C3 9217   2.004   2.734  11.426  0.0053  0.0383  0.0799
  582DPPI   PO4 9218   1.758   2.840  10.838  0.0245 -0.1571 -0.1175
  582DPPI   GL1 9219   1.552   2.775  10.371 -0.4802 -0.1643 -0.0210
  582DPPI   GL2 9220   1.235   2.834  10.409  0.0273  0.0154  0.0320
  582DPPI   C1A 9221   1.419   2.717   9.880  0.1255 -0.1055 -0.0415
  582DPPI   C2A 9222   1.381   2.680   9.422 -0.1058 -0.4109  0.1545
  582DPPI   C3A 9223   1.479   2.788   8.955  0.0154  0.1863  0.0786
  582DPPI   C4A 9224   1.421   2.719   8.519 -0.1432 -0.0627  0.1659
  582DPPI   C1B 9225   0.907   2.808  10.124 -0.2560 -0.2396 -0.0565
  582DPPI   C2B 9226   0.896   2.863   9.688  0.1046 -0.1865  0.1422
  582DPPI   C3B 9227   0.953   2.812   9.161 -0.2172  0.0056 -0.1457
  582DPPI   C4B 9228   0.894   2.738   8.738 -0.0358  0.0494 -0.0832
  583DPPI    C1 9229   0.905  14.570  11.062 -0.1458  0.0646 -0.0519
  583DPPI    C2 9230   0.637  14.329  11.235  0.0290  0.0326  0.1784
  583DPPI    C3 9231   0.820  14.612  11.451  0.1163  0.1120  0.0022
  583DPPI   PO4 9232   0.763  14.591  10.790  0.2097 -0.1620 -0.0872
  583DPPI   GL1 9233   0.680  14.999  10.651 -0.2176 -0.1737  0.1123
  583DPPI   GL2 9234   0.694  15.307  10.411 -0.0340 -0.0338 -0.0014
  583DPPI   C1A 9235   0.315  14.927  10.357  0.0178 -0.2421  0.2140
  583DPPI   C2A 9236   0.107  14.965  10.003 -0.0636 -0.2968  0.1977
  583DPPI   C3A 9237   0.149  14.978   9.525  0.2713  0.0729 -0.2680
  583DPPI   C4A 9238   0.208  15.101   9.093 -0.0302  0.0319 -0.2693
  583DPPI   C1B 9239   0.518  15.369  10.144 -0.2543  0.0373 -0.0073
  583DPPI   C2B 9240   0.535  15.441   9.730 -0.1062  0.0236 -0.2110
  583DPPI   C3B 9241   0.516  15.434   9.308  0.4123  0.3922  0.2369
  583DPPI   C4B 9242   0.633  15.497   8.952  0.1815  0.0480 -0.0789
  584DPPI    C1 9243   2.404   1.682  10.895  0.4188 -0.0047  0.1304
  584DPPI    C2 9244   2.395   2.052  11.048  0.2054 -0.0119  0.1369
  584DPPI    C3 9245   2.279   1.740  11.270 -0.1689 -0.0153 -0.0550
  584DPPI   PO4 9246   2.368   1.755  10.675 -0.0298 -0.1288  0.3844
  584DPPI   GL1 9247   2.567   1.823  10.256 -0.1540  0.0638 -0.0979
  584DPPI   GL2 9248   2.937   1.767  10.146  0.2404 -0.1063  0.0576
  584DPPI   C1A 9249   2.638   1.984   9.799  0.2386  0.1534  0.0610
  584DPPI   C2A 9250   2.527   1.974   9.302 -0.0239 -0.0674  0.0281
  584DPPI   C3A 9251   2.567   1.940   8.814  0.0392  0.1332  0.2407
  584DPPI   C4A 9252   2.621   1.852   8.355 -0.0069 -0.0431  0.1057
  584DPPI   C1B 9253   3.112   1.950   9.783  0.1660 -0.2377  0.1277
  584DPPI   C2B 9254   3.000   1.884   9.420 -0.0499 -0.2636 -0.1724
  584DPPI   C3B 9255   2.822   1.562   9.117 -0.1460  0.0677 -0.0413
  584DPPI   C4B 9256   2.847   1.452   8.718 -0.0474 -0.0328 -0.0324
  585DPPI    C1 9257  13.429   7.236  10.873  0.0119 -0.1743  0.1163
  585DPPI    C2 9258  13.655   7.317  11.193  0.2171  0.1025 -0.0930
  585DPPI    C3 9259  13.346   7.554  11.102  0.0236 -0.1020  0.0208
  585DPPI   PO4 9260  13.365   6.982  10.810 -0.2312 -0.3119 -0.0436
  585DPPI   GL1 9261  13.525   7.004  10.392  0.0372 -0.2167 -0.3422
  585DPPI   GL2 9262  13.753   6.985  10.275  0.0448  0.1142 -0.1256
  585DPPI   C1A 9263  13.314   7.243   9.980 -0.1413 -0.0219 -0.3932
  585DPPI   C2A 9264  13.445   7.281   9.560 -0.2513 -0.2481 -0.1908
  585DPPI   C3A 9265  13.380   7.208   9.127 -0.2343  0.2670  0.0558
  585DPPI   C4A 9266  13.437   7.412   8.682  0.2912  0.1101  0.1494
  585DPPI   C1B 9267  13.674   6.928   9.855  0.1510  0.2308 -0.1003
  585DPPI   C2B 9268  13.686   6.836   9.464  0.1214 -0.1765 -0.0382
  585DPPI   C3B 9269  13.576   6.776   9.039  0.1220  0.2277  0.2908
  585DPPI   C4B 9270  13.703   6.976   8.762 -0.0125  0.1249 -0.2933
  586DPPI    C1 9271  10.558   5.188  11.020 -0.0848  0.0220 -0.1576
  586DPPI    C2 9272  10.710   5.380  11.337 -0.0019  0.0710 -0.2267
  586DPPI    C3 9273  10.411   5.118  11.386  0.1912 -0.1242 -0.0722
  586DPPI   PO4 9274  10.587   5.416  10.825 -0.0323  0.0358  0.3151
  586DPPI   GL1 9275  10.594   5.384  10.504  0.1662  0.0872  0.0943
  586DPPI   GL2 9276  10.849   5.023  10.600  0.0195  0.0267 -0.0538
  586DPPI   C1A 9277  10.627   5.492  10.153  0.0122 -0.0844  0.3726
  586DPPI   C2A 9278  10.547   5.592   9.762  0.0473  0.0010 -0.2248
  586DPPI   C3A 9279  10.426   5.660   9.340 -0.1043 -0.0310  0.2304
  586DPPI   C4A 9280  10.461   5.722   8.876 -0.0958 -0.0487 -0.1083
  586DPPI   C1B 9281  10.840   5.037  10.162  0.0740  0.1688  0.0232
  586DPPI   C2B 9282  10.816   5.179   9.831  0.0144  0.0170 -0.0269
  586DPPI   C3B 9283  10.818   5.140   9.369 -0.0005 -0.0102  0.0224
  586DPPI   C4B 9284  10.652   5.325   9.011  0.0910  0.2299 -0.0849
  587DPPI    C1 9285   3.711   1.696  10.803 -0.1176  0.2616  0.0086
  587DPPI    C2 9286   3.965   1.915  10.584  0.0308  0.0708 -0.0135
  587DPPI    C3 9287   3.883   2.021  10.961  0.2621  0.0499  0.0440
  587DPPI   PO4 9288   3.796   1.478  10.824 -0.1759 -0.4510 -0.0469
  587DPPI   GL1 9289   4.010   1.374  10.450  0.1170  0.3469  0.0978
  587DPPI   GL2 9290   4.224   1.498  10.255  0.1923 -0.1566 -0.0048
  587DPPI   C1A 9291   3.770   1.712  10.165  0.0646  0.3646 -0.0920
  587DPPI   C2A 9292   3.520   1.631   9.871  0.2718  0.0264 -0.0757
  587DPPI   C3A 9293   3.126   1.476   9.738 -0.0994 -0.1162 -0.0984
  587DPPI   C4A 9294   2.736   1.471   9.633 -0.2195 -0.3490  0.0213
  587DPPI   C1B 9295   4.017   1.513   9.795 -0.0189 -0.0946  0.2224
  587DPPI   C2B 9296   3.860   1.341   9.426  0.1115  0.2164  0.1978
  587DPPI   C3B 9297   3.383   1.323   9.315 -0.1495 -0.0204 -0.2181
  587DPPI   C4B 9298   3.292   1.471   8.966 -0.4836 -0.1950  0.1830
  588DPPI    C1 9299  10.163  14.030  10.583  0.0517 -0.0708  0.0459
  588DPPI    C2 9300  10.154  14.207  10.941 -0.1705  0.1234 -0.0526
  588DPPI    C3 9301  10.458  14.277  10.692  0.0565 -0.1217  0.1490
  588DPPI   PO4 9302   9.951  14.054  10.509  0.0696  0.1648 -0.0161
  588DPPI   GL1 9303   9.881  13.770  10.188  0.0445  0.1272  0.0380
  588DPPI   GL2 9304   9.684  14.000  10.065  0.1122 -0.0122  0.2076
  588DPPI   C1A 9305  10.154  13.804   9.840  0.0093 -0.0117 -0.2057
  588DPPI   C2A 9306  10.263  13.884   9.424  0.0535  0.2461  0.1097
  588DPPI   C3A 9307  10.210  13.810   8.999  0.0361 -0.0911  0.1264
  588DPPI   C4A 9308  10.380  13.735   8.627  0.0104  0.0528 -0.1280
  588DPPI   C1B 9309   9.667  13.816   9.639 -0.0516  0.0627  0.0738
  588DPPI   C2B 9310   9.708  13.864   9.134 -0.3950  0.2239 -0.0067
  588DPPI   C3B 9311   9.468  13.522   8.763  0.1494  0.1984  0.2398
  588DPPI   C4B 9312   9.640  13.338   8.310  0.1036 -0.0152  0.2044
  589DPPI    C1 9313  13.853   2.850  10.587 -0.0488 -0.0727 -0.1308
  589DPPI    C2 9314  13.775   2.953  10.966  0.0977 -0.1837 -0.0695
  589DPPI    C3 9315  13.728   3.221  10.672  0.1533 -0.0435  0.0478
  589DPPI   PO4 9316  13.699   2.693  10.516 -0.2207 -0.1230 -0.0750
  589DPPI   GL1 9317  13.657   2.574  10.108  0.3860  0.0202 -0.0575
  589DPPI   GL2 9318  13.386   2.420   9.974  0.1554  0.2473  0.1224
  589DPPI   C1A 9319  13.768   2.592   9.746  0.2310 -0.1814  0.2787
  589DPPI   C2A 9320  13.821   2.627   9.338  0.1201  0.1453 -0.2365
  589DPPI   C3A 9321  13.793   2.601   8.899  0.0295  0.2469  0.4245
  589DPPI   C4A 9322  13.824   2.456   8.451  0.0080  0.1512 -0.1925
  589DPPI   C1B 9323  13.342   2.404   9.577 -0.0966 -0.1282  0.2572
  589DPPI   C2B 9324  13.362   2.473   9.129 -0.1801  0.0426 -0.1620
  589DPPI   C3B 9325  13.321   2.473   8.746  0.0110 -0.0433  0.2957
  589DPPI   C4B 9326  13.289   2.256   8.336 -0.1037 -0.0278 -0.0813
  590DPPI    C1 9327   9.540   8.609  10.855 -0.1391 -0.0069 -0.0796
  590DPPI    C2 9328   9.397   8.787  11.184  0.0847  0.0906 -0.0331
  590DPPI    C3 9329   9.544   8.415  11.205  0.1625  0.1226 -0.0084
  590DPPI   PO4 9330   9.660   8.681  10.731  0.1233 -0.1772  0.1241
  590DPPI   GL1 9331   9.743   8.540  10.373 -0.3045  0.3056 -0.0009
  590DPPI   GL2 9332  10.032   8.140  10.488 -0.2356 -0.1986  0.0355
  590DPPI   C1A 9333   9.937   8.493  10.036 -0.1695 -0.0069  0.2996
  590DPPI   C2A 9334   9.911   8.604   9.655  0.1517  0.1059 -0.2449
  590DPPI   C3A 9335  10.031   8.737   9.347 -0.0797  0.0125  0.1398
  590DPPI   C4A 9336  10.071   8.762   8.895 -0.1842 -0.0256 -0.1429
  590DPPI   C1B 9337  10.213   8.088  10.067 -0.1673  0.1984 -0.2146
  590DPPI   C2B 9338  10.184   8.151   9.683 -0.1048 -0.1413 -0.0595
  590DPPI   C3B 9339  10.315   8.320   9.272  0.3488  0.2112  0.0808
  590DPPI   C4B 9340  10.260   8.269   8.777  0.1463 -0.0024  0.0403
  591DPPI    C1 9341   6.964   0.215  11.434  0.0474 -0.1222 -0.0469
  591DPPI    C2 9342   7.292   0.011  11.537  0.1269 -0.0226 -0.1003
  591DPPI    C3 9343   7.209   0.359  11.717 -0.0483 -0.1377  0.0443
  591DPPI   PO4 9344   6.931   0.138  11.164 -0.0559 -0.1478  0.2337
  591DPPI   GL1 9345   7.065   0.054  10.715 -0.2638 -0.0248 -0.0957
  591DPPI   GL2 9346   7.004   0.318  10.697 -0.4067 -0.0146 -0.0440
  591DPPI   C1A 9347   7.086  -0.100  10.292 -0.0305  0.0024  0.0474
  591DPPI   C2A 9348   7.147  -0.266   9.811  0.1395  0.1797 -0.1895
  591DPPI   C3A 9349   7.092  -0.215   9.488 -0.1067 -0.2224  0.3228
  591DPPI   C4A 9350   7.191  -0.212   9.119 -0.3602 -0.0242  0.2001
  591DPPI   C1B 9351   7.268   0.402  10.298  0.1734  0.1976  0.1237
  591DPPI   C2B 9352   7.283   0.257   9.836  0.0530 -0.1414 -0.1884
  591DPPI   C3B 9353   7.234   0.236   9.349  0.1048 -0.2514  0.1988
  591DPPI   C4B 9354   7.100   0.249   8.894 -0.3679  0.0693 -0.1934
  592DPPI    C1 9355   3.230   9.962  10.688  0.0715 -0.0458  0.1246
  592DPPI    C2 9356   2.847   9.879  10.770 -0.0002  0.0816 -0.0751
  592DPPI    C3 9357   3.116   9.584  10.752 -0.1302 -0.0337 -0.1439
  592DPPI   PO4 9358   3.256  10.141  10.534  0.1374 -0.1598  0.0542
  592DPPI   GL1 9359   3.418  10.042  10.123  0.0561  0.0651 -0.1953
  592DPPI   GL2 9360   3.182  10.123   9.928  0.0657 -0.0708  0.2100
  592DPPI   C1A 9361   3.713  10.204   9.872  0.1554  0.0929  0.1034
  592DPPI   C2A 9362   3.859  10.216   9.424  0.2261 -0.2158 -0.2169
  592DPPI   C3A 9363   4.021  10.110   9.112  0.1106 -0.2448 -0.1212
  592DPPI   C4A 9364   4.117   9.774   8.906  0.3475  0.2235  0.2741
  592DPPI   C1B 9365   3.296  10.187   9.542  0.0686  0.1678 -0.0206
  592DPPI   C2B 9366   3.377  10.120   9.047  0.1069 -0.0938 -0.0477
  592DPPI   C3B 9367   3.247  10.037   8.591 -0.0927 -0.0889 -0.2694
  592DPPI   C4B 9368   3.426   9.785   8.212  0.0048  0.0366  0.3081
  593DPPI    C1 9369   6.232   8.051  10.647  0.0591  0.1750  0.0133
  593DPPI    C2 9370   6.233   8.364  10.897  0.0261  0.0928  0.1171
  593DPPI    C3 9371   6.205   7.992  11.042 -0.2798  0.0578 -0.0240
  593DPPI   PO4 9372   6.366   8.071  10.505 -0.2204 -0.2968  0.0062
  593DPPI   GL1 9373   6.416   8.163  10.152 -0.1342 -0.0115  0.1983
  593DPPI   GL2 9374   6.137   7.971  10.122 -0.0353  0.4690 -0.0090
  593DPPI   C1A 9375   6.512   8.088   9.729  0.1077  0.3012 -0.3334
  593DPPI   C2A 9376   6.493   8.055   9.340  0.3605  0.1868  0.0808
  593DPPI   C3A 9377   6.528   8.065   8.948 -0.0197 -0.0806  0.2445
  593DPPI   C4A 9378   6.425   7.996   8.507 -0.0013  0.3790  0.1900
  593DPPI   C1B 9379   6.009   8.029   9.754  0.0846  0.0490 -0.0778
  593DPPI   C2B 9380   5.947   8.087   9.365  0.3164  0.1256  0.1218
  593DPPI   C3B 9381   6.008   8.059   8.912  0.1972  0.2030  0.1608
  593DPPI   C4B 9382   5.865   7.954   8.493  0.4677  0.0011 -0.0146
  594PYPI    C1 9383   7.841  17.166  11.675  0.0926  0.0738  0.0892
  594PYPI    C2 9384   7.590  16.887  11.813  0.1241  0.0258  0.0492
  594PYPI    C3 9385   7.636  17.230  12.013  0.0362  0.0294  0.0636
  594PYPI   PO4 9386   7.825  17.189  11.472  0.3147 -0.0556 -0.0971
  594PYPI   GL1 9387   7.764  17.217  10.972 -0.2883 -0.0418 -0.1426
  594PYPI   GL2 9388   7.889  17.513  10.945 -0.0312  0.1261 -0.3995
  594PYPI   C1A 9389   7.747  17.263  10.429  0.0534 -0.0933 -0.3653
  594PYPI   C2A 9390   7.887  17.092  10.068  0.0463  0.3827  0.0863
  594PYPI   D3A 9391   7.933  17.077   9.658  0.0459  0.0323 -0.1270
  594PYPI   C4A 9392   7.899  17.112   9.210  0.1943  0.2683 -0.1655
  594PYPI   C1B 9393   7.981  17.673  10.592 -0.3246 -0.1555  0.2246
  594PYPI   C2B 9394   8.083  17.533  10.157 -0.1677 -0.1364  0.2676
  594PYPI   C3B 9395   8.029  17.651   9.694  0.0405 -0.1976  0.1495
  594PYPI   C4B 9396   7.966  17.579   9.263  0.1892 -0.1859  0.0879
  595PYPI    C1 9397   5.131   4.462  10.774  0.0230 -0.0331 -0.1928
  595PYPI    C2 9398   4.742   4.487  10.863  0.0772  0.2855 -0.0295
  595PYPI    C3 9399   5.005   4.373  11.143  0.1062  0.0916 -0.1336
  595PYPI   PO4 9400   5.099   4.375  10.471 -0.0122 -0.1054  0.0082
  595PYPI   GL1 9401   5.366   4.420  10.113 -0.0964 -0.0998 -0.0900
  595PYPI   GL2 9402   4.971   4.405  10.018  0.0109  0.0372 -0.0780
  595PYPI   C1A 9403   5.670   4.269   9.745  0.1698  0.0223  0.2238
  595PYPI   C2A 9404   5.749   4.143   9.295  0.2394  0.0405  0.0310
  595PYPI   D3A 9405   6.008   4.183   8.788 -0.2443  0.5230 -0.4001
  595PYPI   C4A 9406   5.781   4.184   8.386 -0.0696 -0.1293  0.0984
  595PYPI   C1B 9407   4.930   4.409   9.604  0.1201  0.0236  0.2874
  595PYPI   C2B 9408   4.956   4.422   9.167 -0.0124  0.0300  0.1459
  595PYPI   C3B 9409   5.023   4.398   8.793  0.0504 -0.0268  0.0354
  595PYPI   C4B 9410   5.334   4.496   8.426 -0.1605 -0.2634  0.1428
  596PYPI    C1 9411   3.919   8.355  10.556  0.4328  0.0834  0.0764
  596PYPI    C2 9412   3.895   8.743  10.648 -0.0660  0.0124  0.2802
  596PYPI    C3 9413   4.002   8.478  10.928  0.1464 -0.0142  0.1758
  596PYPI   PO4 9414   3.673   8.379  10.360  0.1012 -0.0104 -0.1002
  596PYPI   GL1 9415   3.418   8.189  10.088 -0.0337 -0.4107  0.1349
  596PYPI   GL2 9416   3.191   8.360   9.990 -0.0701  0.4958  0.0527
  596PYPI   C1A 9417   3.674   8.314   9.720  0.0319 -0.1437  0.3276
  596PYPI   C2A 9418   3.888   8.312   9.251  0.0099  0.0114  0.1298
  596PYPI   D3A 9419   4.228   8.349   8.950 -0.1194  0.2764  0.1041
  596PYPI   C4A 9420   4.174   8.502   8.659  0.3088 -0.0387 -0.0130
  596PYPI   C1B 9421   3.242   8.196   9.523  0.2781  0.0123 -0.2339
  596PYPI   C2B 9422   3.405   8.067   9.135 -0.0012  0.0552 -0.2903
  596PYPI   C3B 9423   3.357   8.052   8.670 -0.1099  0.0209  0.0990
  596PYPI   C4B 9424   3.555   7.983   8.206 -0.1618 -0.1370 -0.0136
  597PYPI    C1 9425   3.567   9.424  10.545  0.0155  0.0420 -0.0714
  597PYPI    C2 9426   3.677   9.626  10.872 -0.0465  0.0221 -0.0379
  597PYPI    C3 9427   3.852   9.277  10.784 -0.0790 -0.0068  0.0118
  597PYPI   PO4 9428   3.506   9.655  10.397 -0.1563  0.1818 -0.1428
  597PYPI   GL1 9429   3.501   9.565   9.974  0.1012  0.0977  0.3312
  597PYPI   GL2 9430   3.562   9.251   9.838  0.2591  0.2801 -0.0236
  597PYPI   C1A 9431   3.359   9.632   9.587  0.0045 -0.1692 -0.0274
  597PYPI   C2A 9432   3.287   9.572   9.159  0.1714 -0.0496 -0.2173
  597PYPI   D3A 9433   3.135   9.534   8.719 -0.0436  0.1785 -0.4078
  597PYPI   C4A 9434   2.972   9.082   8.608 -0.1973 -0.2924  0.1919
  597PYPI   C1B 9435   3.859   9.425   9.586 -0.0540  0.0884 -0.2483
  597PYPI   C2B 9436   3.719   9.746   9.278 -0.0029  0.1194  0.1322
  597PYPI   C3B 9437   3.642   9.539   8.823  0.0981 -0.1300 -0.0778
  597PYPI   C4B 9438   3.605   9.367   8.448 -0.1470  0.0668  0.2065
  598PYPI    C1 9439   2.095  12.004  10.870 -0.0621 -0.0079 -0.1625
  598PYPI    C2 9440   2.173  12.377  10.990 -0.0766 -0.0614  0.0162
  598PYPI    C3 9441   2.393  12.073  11.128 -0.2499 -0.1514  0.0979
  598PYPI   PO4 9442   1.962  12.107  10.652  0.0666 -0.1832  0.0620
  598PYPI   GL1 9443   1.815  12.202  10.233  0.0893  0.0282  0.1174
  598PYPI   GL2 9444   1.495  12.243  10.486 -0.0444  0.1238  0.2374
  598PYPI   C1A 9445   1.746  12.281   9.830  0.1343  0.1146 -0.2180
  598PYPI   C2A 9446   1.852  12.445   9.456  0.1375 -0.1556  0.4358
  598PYPI   D3A 9447   2.171  12.448   9.147  0.2248 -0.1051 -0.4288
  598PYPI   C4A 9448   2.052  12.173   8.840  0.1412  0.0892  0.0560
  598PYPI   C1B 9449   1.273  12.433  10.056 -0.2048 -0.0549  0.3042
  598PYPI   C2B 9450   1.249  12.482   9.599  0.0528  0.0932 -0.1496
  598PYPI   C3B 9451   1.349  12.441   9.183 -0.1686 -0.0201 -0.3096
  598PYPI   C4B 9452   1.678  12.500   8.910 -0.1480  0.3858  0.1464
  599PYPI    C1 9453  14.923   5.709  10.708 -0.1174  0.2566  0.0965
  599PYPI    C2 9454  15.182   5.752  11.010  0.0462 -0.1715  0.0239
  599PYPI    C3 9455  15.265   5.908  10.652 -0.0033  0.0680  0.1150
  599PYPI   PO4 9456  14.829   5.496  10.727 -0.1264  0.2800 -0.2062
  599PYPI   GL1 9457  14.658   5.284  10.333 -0.0022 -0.0659  0.1280
  599PYPI   GL2 9458  14.686   5.628  10.211  0.1289 -0.0195  0.0809
  599PYPI   C1A 9459  14.868   5.313   9.872 -0.2473 -0.1869  0.1792
  599PYPI   C2A 9460  15.136   5.372   9.543 -0.0104 -0.0524 -0.0266
  599PYPI   D3A 9461  15.299   5.408   9.093 -0.2493 -0.0651  0.2307
  599PYPI   C4A 9462  14.914   5.349   8.820  0.1319  0.0067 -0.1447
  599PYPI   C1B 9463  14.566   5.666   9.697  0.0103  0.1801 -0.1987
  599PYPI   C2B 9464  14.387   5.566   9.429  0.3789  0.1186  0.0972
  599PYPI   C3B 9465  14.443   5.529   8.957 -0.0753 -0.5892  0.0003
  599PYPI   C4B 9466  14.315   5.568   8.525  0.0182  0.3240 -0.0599
  600PYPI    C1 9467  15.172  17.650  11.093 -0.0856  0.1781  0.1187
  600PYPI    C2 9468  15.158  17.560  11.483 -0.1899  0.0294  0.0818
  600PYPI    C3 9469  15.182  17.942  11.366 -0.3594  0.0874  0.2303
  600PYPI   PO4 9470  15.307  17.516  10.916  0.1921  0.0013  0.0369
  600PYPI   GL1 9471  15.419  17.636  10.418 -0.2769 -0.0051  0.0297
  600PYPI   GL2 9472  15.192  17.396  10.426 -0.1557 -0.0168 -0.0725
  600PYPI   C1A 9473  15.583  17.702  10.052 -0.0812 -0.0808 -0.0634
  600PYPI   C2A 9474  15.670  17.630   9.617  0.1240  0.2044  0.1540
  600PYPI   D3A 9475  15.843  17.641   9.248 -0.0377  0.2661 -0.1440
  600PYPI   C4A 9476  15.721  17.838   8.898 -0.2081  0.0494 -0.2802
  600PYPI   C1B 9477  15.361  17.259   9.969  0.1009 -0.0753 -0.1800
  600PYPI   C2B 9478  15.343  17.149   9.616 -0.1004 -0.1794 -0.1727
  600PYPI   C3B 9479  15.489  17.285   9.199 -0.0912  0.1053 -0.0567
  600PYPI   C4B 9480  15.624  17.282   8.764 -0.0392 -0.3807  0.0341
  601PYPI    C1 9481  10.671   6.299  10.810  0.1956  0.1234 -0.2405
  601PYPI    C2 9482  11.029   6.324  10.986  0.1407 -0.0851 -0.0952
  601PYPI    C3 9483  10.735   6.572  11.095  0.1881 -0.0319 -0.0882
  601PYPI   PO4 9484  10.651   6.248  10.556 -0.0768 -0.0678 -0.0902
  601PYPI   GL1 9485  10.653   6.449  10.174 -0.0215 -0.1259  0.0262
  601PYPI   GL2 9486  10.401   6.492  10.219  0.2413 -0.0830  0.1171
  601PYPI   C1A 9487  10.851   6.471   9.819 -0.0607 -0.0378  0.1218
  601PYPI   C2A 9488  10.841   6.584   9.399 -0.0236  0.1107  0.1188
  601PYPI   D3A 9489  10.772   6.697   9.001  0.2528 -0.1096  0.4563
  601PYPI   C4A 9490  10.677   7.061   8.882  0.3170  0.2126  0.1045
  601PYPI   C1B 9491  10.368   6.386   9.746  0.0883 -0.0370 -0.2535
  601PYPI   C2B 9492  10.293   6.519   9.235 -0.1165  0.1640 -0.1915
  601PYPI   C3B 9493  10.374   6.586   8.693  0.0997 -0.1267 -0.1869
  601PYPI   C4B 9494  10.538   6.387   8.307  0.0474 -0.0549  0.0351
  602PYPI    C1 9495   5.342   3.007  11.130  0.2510  0.0796  0.0861
  602PYPI    C2 9496   5.415   3.189  11.479  0.1095  0.1082  0.1014
  602PYPI    C3 9497   5.062   3.238  11.298  0.1819  0.0923 -0.0455
  602PYPI   PO4 9498   5.590   3.003  10.966  0.4217 -0.0393  0.3278
  602PYPI   GL1 9499   5.681   2.997  10.475 -0.0576 -0.0197  0.1936
  602PYPI   GL2 9500   5.434   2.783  10.315  0.0365  0.1889  0.0826
  602PYPI   C1A 9501   5.603   3.204  10.100 -0.3764  0.0360  0.0249
  602PYPI   C2A 9502   5.593   3.164   9.708  0.2383  0.0530 -0.2213
  602PYPI   D3A 9503   5.507   3.248   9.246  0.2128  0.1453  0.2325
  602PYPI   C4A 9504   5.593   3.213   8.840  0.2273  0.3420  0.2277
  602PYPI   C1B 9505   5.484   2.688   9.965 -0.0611  0.1194  0.1977
  602PYPI   C2B 9506   5.480   2.614   9.583  0.0107 -0.0959 -0.0198
  602PYPI   C3B 9507   5.417   2.800   9.095  0.1160 -0.1101 -0.2458
  602PYPI   C4B 9508   5.223   2.922   8.629 -0.1984  0.2551  0.2533
  603PYPI    C1 9509   7.713  13.117  11.003  0.1719 -0.2387 -0.0598
  603PYPI    C2 9510   7.492  12.971  11.303  0.2296 -0.3665 -0.0785
  603PYPI    C3 9511   7.846  13.141  11.379  0.0847 -0.0758 -0.0389
  603PYPI   PO4 9512   7.529  13.276  10.805 -0.0418 -0.2055  0.1630
  603PYPI   GL1 9513   7.411  13.407  10.321  0.2666 -0.1217  0.2590
  603PYPI   GL2 9514   7.592  13.425  10.206 -0.0776 -0.0165  0.1854
  603PYPI   C1A 9515   7.152  13.076  10.064 -0.1441 -0.0609 -0.3301
  603PYPI   C2A 9516   7.343  12.751   9.817 -0.0542 -0.0887 -0.2056
  603PYPI   D3A 9517   7.679  12.639   9.476  0.1720 -0.0812  0.0302
  603PYPI   C4A 9518   7.974  12.348   9.521  0.0267  0.1328  0.3569
  603PYPI   C1B 9519   7.477  13.274   9.748 -0.1522 -0.1120  0.1323
  603PYPI   C2B 9520   7.251  13.050   9.412 -0.0006 -0.2814 -0.2607
  603PYPI   C3B 9521   7.119  12.621   9.427  0.0730  0.1186  0.0556
  603PYPI   C4B 9522   6.989  12.270   9.192 -0.2375 -0.2034 -0.1002
  604PYPI    C1 9523  17.974   5.800  10.359  0.2356 -0.0689 -0.1044
  604PYPI    C2 9524  18.209   6.013  10.603  0.0652  0.0386 -0.0321
  604PYPI    C3 9525  17.842   6.144  10.514  0.0930 -0.0442 -0.2775
  604PYPI   PO4 9526  18.154   5.765  10.121 -0.1354 -0.1650  0.0034
  604PYPI   GL1 9527  18.267   5.345   9.925 -0.0033 -0.2595 -0.0754
  604PYPI   GL2 9528  17.864   5.433   9.865 -0.2173  0.0677  0.0811
  604PYPI   C1A 9529  18.198   5.345   9.394  0.1836  0.2373  0.0901
  604PYPI   C2A 9530  18.289   5.393   9.000  0.1921  0.1523  0.2593
  604PYPI   D3A 9531  18.152   5.197   8.647 -0.1363  0.0869 -0.1148
  604PYPI   C4A 9532  18.014   5.563   8.355  0.0457 -0.1340  0.0434
  604PYPI   C1B 9533  17.634   5.478   9.378  0.1845  0.1045  0.2394
  604PYPI   C2B 9534  17.713   5.430   8.994  0.2418  0.1297 -0.0874
  604PYPI   C3B 9535  17.663   5.288   8.623  0.0411  0.4446  0.1474
  604PYPI   C4B 9536  17.470   5.439   8.220 -0.0255 -0.0911 -0.0721
  605PYPI    C1 9537   6.736  11.308  10.519 -0.0848 -0.2031  0.0259
  605PYPI    C2 9538   6.858  11.477  10.860  0.2203 -0.2649 -0.0504
  605PYPI    C3 9539   6.715  11.103  10.862 -0.1020 -0.1439  0.0604
  605PYPI   PO4 9540   6.619  11.580  10.407  0.2345 -0.0246  0.0985
  605PYPI   GL1 9541   6.909  11.711  10.079  0.1656 -0.0463  0.0929
  605PYPI   GL2 9542   6.707  11.380   9.925  0.2690  0.0449  0.0057
  605PYPI   C1A 9543   6.696  12.011   9.781 -0.3236 -0.1568 -0.1951
  605PYPI   C2A 9544   6.601  11.929   9.414 -0.1967  0.1051  0.4634
  605PYPI   D3A 9545   6.668  11.864   9.017 -0.0301  0.1594 -0.3640
  605PYPI   C4A 9546   6.858  12.161   8.673 -0.1557  0.0848 -0.0580
  605PYPI   C1B 9547   6.782  11.442   9.495  0.0654 -0.0108 -0.1778
  605PYPI   C2B 9548   6.855  11.360   9.017  0.2239  0.1817 -0.1163
  605PYPI   C3B 9549   6.919  11.364   8.696 -0.0620 -0.3009 -0.1638
  605PYPI   C4B 9550   6.613  11.227   8.355  0.0203  0.1527  0.0104
  606PYPI    C1 9551  13.533   5.990  10.893  0.0220 -0.0114  0.2654
  606PYPI    C2 9552  13.241   5.783  11.073 -0.1182 -0.0474  0.0024
  606PYPI    C3 9553  13.587   5.603  10.981 -0.1471 -0.0993 -0.0048
  606PYPI   PO4 9554  13.426   6.030  10.619 -0.2359  0.1340  0.1672
  606PYPI   GL1 9555  13.626   5.819  10.214 -0.0830 -0.2352 -0.0283
  606PYPI   GL2 9556  13.767   6.061   9.929 -0.0812  0.3248 -0.2802
  606PYPI   C1A 9557  13.263   5.602  10.009  0.0381 -0.0389  0.1448
  606PYPI   C2A 9558  13.093   5.749   9.596 -0.1607  0.1649  0.1601
  606PYPI   D3A 9559  12.852   5.524   9.266  0.4031  0.2080  0.1320
  606PYPI   C4A 9560  12.980   5.124   9.317  0.4414 -0.1855  0.0230
  606PYPI   C1B 9561  13.575   5.820   9.616 -0.4959 -0.2901 -0.3510
  606PYPI   C2B 9562  13.444   5.760   9.163  0.0509 -0.2026  0.0202
  606PYPI   C3B 9563  13.079   5.919   8.991  0.0491  0.1200 -0.2906
  606PYPI   C4B 9564  12.683   5.760   8.810  0.1386  0.0766 -0.1026
  607ERGO   ROH 9565   8.632  14.343  10.140 -0.0774  0.1771 -0.0080
  607ERGO    R1 9566   8.817  14.449   9.953  0.0668 -0.1954 -0.0843
  607ERGO    R2 9567   8.859  14.336   9.705 -0.4522 -0.1533 -0.1963
  607ERGO    R3 9568   8.803  14.586   9.616  0.1568  0.0798  0.0191
  607ERGO    R4 9569   8.904  14.444   9.380 -0.5431 -0.1184 -0.1985
  607ERGO    R5 9570   8.978  14.634   9.459  0.1189 -0.3507 -0.1748
  607ERGO    C1 9571   8.877  14.742   9.107 -0.0244  0.1209  0.0025
  607ERGO    C2 9572   8.949  14.768   8.749 -0.2142 -0.2033 -0.0196
  608ERGO   ROH 9573  12.565  17.915  10.433  0.1133 -0.0184 -0.0868
  608ERGO    R1 9574  12.570  17.998  10.163  0.0692  0.0540 -0.0666
  608ERGO    R2 9575  12.796  17.978  10.005  0.0604  0.1375 -0.0991
  608ERGO    R3 9576  12.629  17.842   9.839  0.0653  0.1471 -0.1105
  608ERGO    R4 9577  12.824  17.970   9.661  0.0271  0.1915 -0.1027
  608ERGO    R5 9578  12.607  17.984   9.648  0.0313  0.1683 -0.0846
  608ERGO    C1 9579  12.683  17.837   9.304  0.0122  0.2319 -0.1154
  608ERGO    C2 9580  12.742  17.820   8.864 -0.1293  0.1863 -0.0856
  609ERGO   ROH 9581   6.337   2.843  10.253  0.1895 -0.4583  0.0993
  609ERGO    R1 9582   6.385   2.966  10.002  0.0357 -0.2941  0.1483
  609ERGO    R2 9583   6.572   2.871   9.822  0.0480 -0.0776  0.0411
  609ERGO    R3 9584   6.361   2.871   9.652 -0.0035 -0.1269  0.1048
  609ERGO    R4 9585   6.594   2.916   9.480 -0.1025  0.3219  0.0782
  609ERGO    R5 9586   6.415   3.039   9.490 -0.2393  0.1135  0.2682
  609ERGO    C1 9587   6.409   2.941   9.121 -0.2385  0.5082  0.1596
  609ERGO    C2 9588   6.342   2.816   8.873 -0.0585 -0.3054  0.0949
  610ERGO   ROH 9589  12.633   6.239  10.257 -0.0218 -0.1081  0.0447
  610ERGO    R1 9590  12.566   6.441  10.070 -0.0559 -0.0864  0.0816
  610ERGO    R2 9591  12.735   6.516   9.865 -0.1116 -0.0899  0.0411
  610ERGO    R3 9592  12.519   6.462   9.709 -0.1630 -0.0487  0.0959
  610ERGO    R4 9593  12.672   6.662   9.558 -0.0742 -0.1836 -0.0122
  610ERGO    R5 9594  12.461   6.673   9.613 -0.0667 -0.0533  0.0156
  610ERGO    C1 9595  12.432   6.695   9.233 -0.1007 -0.1994  0.0083
  610ERGO    C2 9596  12.668   6.652   9.013  0.0589 -0.0670  0.5069
  611ERGO   ROH 9597   2.322   6.512  10.133 -0.0201  0.1304 -0.0225
  611ERGO    R1 9598   2.347   6.384   9.882 -0.0145  0.0616  0.0140
  611ERGO    R2 9599   2.171   6.428   9.674 -0.0388 -0.0375  0.0194
  611ERGO    R3 9600   2.399   6.486   9.536 -0.0646 -0.0329 -0.0234
  611ERGO    R4 9601   2.242   6.314   9.356 -0.1134 -0.0259 -0.0022
  611ERGO    R5 9602   2.449   6.283   9.419 -0.0957 -0.0337 -0.0440
  611ERGO    C1 9603   2.497   6.302   9.041 -0.1811 -0.0149 -0.0549
  611ERGO    C2 9604   2.377   6.215   8.846  0.2196 -0.0513  0.1572
  612ERGO   ROH 9605   3.944  14.003  10.181 -0.1524 -0.0220 -0.0634
  612ERGO    R1 9606   4.024  13.864   9.948 -0.1723 -0.0275 -0.0688
  612ERGO    R2 9607   3.845  13.787   9.751 -0.1936 -0.0390 -0.0543
  612ERGO    R3 9608   4.015  13.923   9.589 -0.2121 -0.0345 -0.0672
  612ERGO    R4 9609   3.873  13.740   9.410 -0.2028 -0.0412 -0.0534
  612ERGO    R5 9610   4.089  13.761   9.430 -0.2091 -0.0273 -0.0662
  612ERGO    C1 9611   4.050  13.841   9.059 -0.2255 -0.0383 -0.0648
  612ERGO    C2 9612   3.915  13.797   8.812  0.1783 -0.2510  0.0907
  613ERGO   ROH 9613  17.922   5.921   9.612  0.0300 -0.0802 -0.0533
  613ERGO    R1 9614  18.093   5.900   9.388  0.0583  0.1206 -0.0520
  613ERGO    R2 9615  18.023   5.761   9.159  0.2497 -0.0253 -0.0248
  613ERGO    R3 9616  18.082   5.997   9.037 -0.0869  0.0402 -0.0702
  613ERGO    R4 9617  18.058   5.804   8.818  0.1719 -0.0341 -0.0342
  613ERGO    R5 9618  18.227   5.936   8.857 -0.0088  0.2119 -0.0668
  613ERGO    C1 9619  18.134   6.049   8.505 -0.1896  0.0222 -0.0822
  613ERGO    C2 9620  18.101   6.009   8.119  0.0138 -0.1378  0.0118
  614ERGO   ROH 9621   0.240   7.461   9.685  0.2039 -0.0993  0.0986
  614ERGO    R1 9622   0.246   7.515   9.407  0.0506 -0.1329  0.0881
  614ERGO    R2 9623   0.469   7.466   9.250  0.0091 -0.0272 -0.0018
  614ERGO    R3 9624   0.292   7.323   9.101  0.0244 -0.1476  0.0927
  614ERGO    R4 9625   0.501   7.404   8.912 -0.0714 -0.0975  0.0025
  614ERGO    R5 9626   0.287   7.437   8.891 -0.0963 -0.2013  0.0641
  614ERGO    C1 9627   0.354   7.234   8.575 -0.1040 -0.2514  0.0938
  614ERGO    C2 9628   0.375   7.026   8.349  0.1284  0.2367  0.0465
  615ERGO   ROH 9629  16.590  10.650  10.167  0.1368  0.0020 -0.0178
  615ERGO    R1 9630  16.660  10.545   9.914  0.1429 -0.1205  0.0337
  615ERGO    R2 9631  16.578  10.295   9.828 -0.0125 -0.0866  0.0781
  615ERGO    R3 9632  16.483  10.435   9.615  0.1574 -0.0754  0.0081
  615ERGO    R4 9633  16.427  10.154   9.551  0.0373 -0.0589  0.0371
  615ERGO    R5 9634  16.534  10.297   9.426  0.1700 -0.1388  0.0573
  615ERGO    C1 9635  16.250  10.203   9.190  0.2256 -0.0321 -0.0526
  615ERGO    C2 9636  16.133  10.268   8.872  0.0833  0.1838  0.0381
  616ERGO   ROH 9637   9.531   4.068  10.256  0.0910  0.0669  0.0909
  616ERGO    R1 9638   9.344   4.035  10.046  0.0453 -0.0097  0.1419
  616ERGO    R2 9639   9.294   4.232   9.859 -0.0396 -0.0533  0.1132
  616ERGO    R3 9640   9.352   4.034   9.682 -0.0417 -0.0769  0.1404
  616ERGO    R4 9641   9.167   4.211   9.538 -0.0449 -0.1004  0.1194
  616ERGO    R5 9642   9.145   3.995   9.566 -0.0419 -0.0950  0.1499
  616ERGO    C1 9643   9.147   4.013   9.185 -0.0499 -0.1499  0.1485
  616ERGO    C2 9644   9.138   4.243   8.908 -0.4123  0.0944  0.0708
  617ERGO   ROH 9645   5.254   6.826  10.163  0.0384 -0.3947  0.0502
  617ERGO    R1 9646   5.258   6.977   9.924 -0.0906 -0.3834  0.0542
  617ERGO    R2 9647   5.492   7.071   9.811 -0.1804 -0.0277  0.1527
  617ERGO    R3 9648   5.400   6.941   9.590  0.1051 -0.1668  0.1103
  617ERGO    R4 9649   5.590   7.138   9.486 -0.3507  0.3395  0.1732
  617ERGO    R5 9650   5.383   7.112   9.424 -0.3082 -0.1259  0.1792
  617ERGO    C1 9651   5.561   7.056   9.091 -0.1820  0.4229  0.1452
  617ERGO    C2 9652   5.593   6.972   8.761 -0.0564 -0.0448  0.4128
  618ERGO   ROH 9653   5.454   5.386  10.019  0.0397  0.1153 -0.0371
  618ERGO    R1 9654   5.445   5.382   9.736  0.0574  0.0125 -0.0373
  618ERGO    R2 9655   5.664   5.312   9.581  0.0611 -0.0717 -0.0002
  618ERGO    R3 9656   5.489   5.134   9.473  0.0449 -0.0905  0.0586
  618ERGO    R4 9657   5.655   5.222   9.248 -0.0407 -0.0808  0.0052
  618ERGO    R5 9658   5.437   5.225   9.258 -0.0347 -0.1028  0.0751
  618ERGO    C1 9659   5.486   5.001   8.952 -0.1151 -0.1037  0.0638
  618ERGO    C2 9660   5.634   4.976   8.565 -0.2003  0.0151  0.0932
  619ERGO   ROH 9661   0.727  16.408  10.716 -0.0784 -0.1057  0.0072
  619ERGO    R1 9662   0.731  16.309  10.451  0.1129  0.0379 -0.0449
  619ERGO    R2 9663   0.502  16.274  10.301  0.1692 -0.3640 -0.0445
  619ERGO    R3 9664   0.634  16.430  10.122 -0.1620  0.0100  0.0235
  619ERGO    R4 9665   0.471  16.249   9.958  0.1453 -0.2120 -0.0541
  619ERGO    R5 9666   0.686  16.282   9.941  0.0903  0.2151 -0.0812
  619ERGO    C1 9667   0.576  16.381   9.589 -0.1796  0.2278  0.0040
  619ERGO    C2 9668   0.678  16.353   9.223  0.0682 -0.1614  0.0567
  620ERGO   ROH 9669  12.162  15.483  10.489 -0.0686  0.0621  0.1568
  620ERGO    R1 9670  12.068  15.360  10.252 -0.1023  0.2107  0.0919
  620ERGO    R2 9671  12.000  15.504  10.026  0.2527  0.3268  0.0525
  620ERGO    R3 9672  12.177  15.337   9.905  0.0868  0.0682  0.1590
  620ERGO    R4 9673  12.023  15.455   9.685  0.1921  0.0646  0.0845
  620ERGO    R5 9674  12.053  15.242   9.723 -0.0127  0.0592  0.2313
  620ERGO    C1 9675  12.201  15.268   9.373  0.0011 -0.3308  0.2031
  620ERGO    C2 9676  12.178  15.274   9.023  0.0873  0.0117  0.0553
  621ERGO   ROH 9677   6.278  15.669  10.573 -0.1853 -0.0559 -0.0591
  621ERGO    R1 9678   6.319  15.613  10.299 -0.4466 -0.0173 -0.1102
  621ERGO    R2 9679   6.185  15.747  10.097 -0.1457  0.5070  0.0142
  621ERGO    R3 9680   6.437  15.796  10.007 -0.0161 -0.1659 -0.0357
  621ERGO    R4 9681   6.271  15.792   9.766 -0.1020  0.3864  0.0098
  621ERGO    R5 9682   6.451  15.675   9.801 -0.4117 -0.1390 -0.0825
  621ERGO    C1 9683   6.558  15.864   9.488  0.0450 -0.3156 -0.0397
  621ERGO    C2 9684   6.536  15.953   9.149  0.0843 -0.1051 -0.1711
  622ERGO   ROH 9685  12.438   8.315  10.564  0.0580 -0.2158 -0.0664
  622ERGO    R1 9686  12.373   8.413  10.306 -0.0206 -0.0657  0.0077
  622ERGO    R2 9687  12.566   8.478  10.119 -0.0705  0.1363  0.0149
  622ERGO    R3 9688  12.425   8.307   9.962 -0.0306  0.1830 -0.0707
  622ERGO    R4 9689  12.532   8.507   9.777 -0.0422  0.2582  0.0227
  622ERGO    R5 9690  12.324   8.447   9.797 -0.0298  0.2263 -0.0264
  622ERGO    C1 9691  12.381   8.363   9.429  0.0117  0.3731 -0.0531
  622ERGO    C2 9692  12.314   8.383   8.989  0.1661 -0.0886 -0.2500
  623ERGO   ROH 9693  10.121   6.820   9.736 -0.0340  0.1004  0.0515
  623ERGO    R1 9694   9.931   6.992   9.617 -0.1491 -0.1021 -0.0584
  623ERGO    R2 9695  10.002   7.201   9.450 -0.2731 -0.0308 -0.0083
  623ERGO    R3 9696   9.829   7.080   9.279 -0.0512 -0.2059 -0.1187
  623ERGO    R4 9697   9.886   7.340   9.156 -0.4889  0.0237  0.0989
  623ERGO    R5 9698   9.689   7.258   9.200 -0.3639 -0.3699  0.0233
  623ERGO    C1 9699   9.656   7.309   8.824 -0.4063 -0.1089  0.0577
  623ERGO    C2 9700   9.753   7.473   8.451  0.0663  0.0742 -0.1370
  624ERGO   ROH 9701   6.338  16.705  10.461  0.2236 -0.2409  0.1621
  624ERGO    R1 9702   6.261  16.748  10.192  0.1012 -0.0156  0.2306
  624ERGO    R2 9703   6.385  16.935  10.031  0.1478 -0.0046  0.2770
  624ERGO    R3 9704   6.419  16.722   9.865 -0.1034  0.0716  0.1241
  624ERGO    R4 9705   6.447  16.957   9.691  0.0780  0.1578  0.2740
  624ERGO    R5 9706   6.312  16.789   9.661 -0.0937  0.3098  0.1957
  624ERGO    C1 9707   6.516  16.771   9.338 -0.1985  0.3240  0.1287
  624ERGO    C2 9708   6.553  16.778   8.955 -0.1749 -0.1843  0.1658
  625ERGO   ROH 9709  16.168  15.430  10.128 -0.1668 -0.1319  0.1944
  625ERGO    R1 9710  16.281  15.414   9.869 -0.0878 -0.1290  0.2289
  625ERGO    R2 9711  16.242  15.197   9.703 -0.0620 -0.1117  0.2056
  625ERGO    R3 9712  16.156  15.387   9.528  0.0170 -0.0923  0.1864
  625ERGO    R4 9713  16.243  15.164   9.359 -0.1528 -0.1853  0.2115
  625ERGO    R5 9714  16.308  15.371   9.344 -0.0272 -0.2244  0.1568
  625ERGO    C1 9715  16.163  15.322   8.994 -0.1313 -0.2099  0.1968
  625ERGO    C2 9716  16.137  15.134   8.629  0.1072 -0.0236 -0.0595
  626ERGO   ROH 9717  12.873   3.120   9.953 -0.0927  0.1691  0.0174
  626ERGO    R1 9718  12.860   3.284   9.723 -0.0263  0.0714 -0.0561
  626ERGO    R2 9719  13.065   3.299   9.539 -0.0227 -0.0937 -0.0598
  626ERGO    R3 9720  12.869   3.236   9.362 -0.0454 -0.0905 -0.0371
  626ERGO    R4 9721  13.092   3.327   9.195 -0.0905  0.0134 -0.0576
  626ERGO    R5 9722  12.887   3.402   9.190 -0.1149 -0.0312  0.0061
  626ERGO    C1 9723  12.923   3.283   8.830 -0.1513  0.0788 -0.0348
  626ERGO    C2 9724  12.974   3.300   8.418  0.1032 -0.0054  0.0743
  627ERGO   ROH 9725   6.120   3.226  10.359 -0.0546 -0.0845 -0.1631
  627ERGO    R1 9726   6.041   3.347  10.116 -0.1341 -0.1185 -0.1538
  627ERGO    R2 9727   6.223   3.423   9.921 -0.1772  0.0763 -0.1167
  627ERGO    R3 9728   6.066   3.269   9.761 -0.0176 -0.0418 -0.1640
  627ERGO    R4 9729   6.221   3.435   9.576  0.0579 -0.0642 -0.1260
  627ERGO    R5 9730   6.004   3.415   9.581  0.0575 -0.1330 -0.2671
  627ERGO    C1 9731   6.072   3.299   9.224  0.3445 -0.2569 -0.1757
  627ERGO    C2 9732   6.102   3.282   8.876  0.1118  0.0941  0.0978
  628ERGO   ROH 9733   4.060  13.367   9.894 -0.2157 -0.1088 -0.0224
  628ERGO    R1 9734   4.184  13.411   9.643 -0.1762  0.1752  0.0437
  628ERGO    R2 9735   4.230  13.208   9.461  0.2236  0.3058 -0.0109
  628ERGO    R3 9736   4.093  13.371   9.293  0.0330  0.1521 -0.0091
  628ERGO    R4 9737   4.221  13.175   9.118  0.0775  0.1674  0.0050
  628ERGO    R5 9738   4.235  13.391   9.101 -0.0724  0.1719 -0.0861
  628ERGO    C1 9739   4.088  13.309   8.759 -0.1865 -0.0574  0.0160
  628ERGO    C2 9740   3.917  13.332   8.463  0.0668 -0.1703 -0.0124
  629ERGO   ROH 9741  14.282   6.211   9.880  0.1578 -0.2055 -0.1349
  629ERGO    R1 9742  14.247   6.038   9.659  0.3087 -0.1020 -0.2392
  629ERGO    R2 9743  14.007   6.017   9.524  0.3070 -0.2923 -0.1861
  629ERGO    R3 9744  14.161   6.073   9.307  0.1838  0.0245 -0.2006
  629ERGO    R4 9745  13.903   5.992   9.195  0.3216 -0.5565 -0.1749
  629ERGO    R5 9746  14.098   5.909   9.145  0.5185 -0.1477 -0.1783
  629ERGO    C1 9747  13.988   6.030   8.801  0.2144 -0.4128 -0.1820
  629ERGO    C2 9748  13.866   6.217   8.448 -0.0171  0.0638  0.0788
  630ERGO   ROH 9749   5.393  13.554  10.202  0.2930 -0.1346  0.1452
  630ERGO    R1 9750   5.482  13.645   9.949  0.2661 -0.0763  0.1588
  630ERGO    R2 9751   5.624  13.485   9.774  0.0463 -0.1027  0.0185
  630ERGO    R3 9752   5.426  13.556   9.601  0.0420  0.1662  0.1263
  630ERGO    R4 9753   5.662  13.517   9.432 -0.1506 -0.5107 -0.0504
  630ERGO    R5 9754   5.536  13.694   9.439  0.2276 -0.2104 -0.0973
  630ERGO    C1 9755   5.499  13.604   9.071 -0.2693 -0.4960  0.0107
  630ERGO    C2 9756   5.578  13.496   8.802  0.0236  0.1260 -0.0048
  631ERGO   ROH 9757  12.439   3.231   9.845  0.3273 -0.3033  0.0389
  631ERGO    R1 9758  12.492   3.131   9.585  0.1698 -0.1196 -0.0685
  631ERGO    R2 9759  12.294   3.028   9.423  0.0776 -0.0765  0.0042
  631ERGO    R3 9760  12.390   3.210   9.245 -0.1069  0.0743  0.0579
  631ERGO    R4 9761  12.307   2.982   9.080  0.1870  0.0230 -0.0047
  631ERGO    R5 9762  12.502   3.078   9.080  0.0712  0.2487  0.0442
  631ERGO    C1 9763  12.404   3.126   8.714  0.0773  0.2224  0.0404
  631ERGO    C2 9764  12.322   3.179   8.442  0.0656 -0.1968  0.0270
  632ERGO   ROH 9765   6.310   2.313  10.091  0.3939 -0.3698 -0.0186
  632ERGO    R1 9766   6.268   2.459   9.853 -0.0987 -0.2640  0.1201
  632ERGO    R2 9767   6.437   2.440   9.635 -0.1404  0.3509  0.0144
  632ERGO    R3 9768   6.207   2.382   9.502 -0.0708 -0.1311  0.0853
  632ERGO    R4 9769   6.406   2.422   9.291 -0.2087  0.2772  0.0239
  632ERGO    R5 9770   6.214   2.522   9.308 -0.4187 -0.1171  0.0778
  632ERGO    C1 9771   6.172   2.358   8.966 -0.1833 -0.2182  0.0961
  632ERGO    C2 9772   6.043   2.369   8.639  0.1003  0.3463  0.0278
  633ERGO   ROH 9773  10.095   3.638  10.156 -0.2106 -0.1757 -0.0560
  633ERGO    R1 9774  10.159   3.760   9.909 -0.0900 -0.1931 -0.0338
  633ERGO    R2 9775  10.278   3.622   9.701 -0.2593 -0.2841 -0.0715
  633ERGO    R3 9776  10.065   3.715   9.560 -0.1661 -0.0126 -0.0375
  633ERGO    R4 9777  10.234   3.580   9.361 -0.2979 -0.1001 -0.0902
  633ERGO    R5 9778  10.160   3.785   9.351 -0.0936 -0.0196 -0.0073
  633ERGO    C1 9779  10.009   3.644   9.030 -0.2330  0.2619 -0.0691
  633ERGO    C2 9780   9.808   3.418   8.814 -0.2307  0.0626  0.0584
  634ERGO   ROH 9781   1.820   3.072  10.156 -0.1282 -0.1445  0.0316
  634ERGO    R1 9782   1.744   3.077   9.884 -0.1372 -0.0442  0.0359
  634ERGO    R2 9783   1.819   3.281   9.713 -0.0347 -0.0464  0.0773
  634ERGO    R3 9784   1.914   3.075   9.562 -0.1514 -0.0658  0.0287
  634ERGO    R4 9785   1.838   3.281   9.367  0.0630  0.0635  0.0819
  634ERGO    R5 9786   1.773   3.073   9.369 -0.0988  0.1132 -0.0125
  634ERGO    C1 9787   1.938   3.088   9.025  0.0103  0.1091  0.0390
  634ERGO    C2 9788   1.972   3.207   8.735  0.3788  0.1151 -0.3027
  635ERGO   ROH 9789  13.101  11.719  10.343 -0.0936 -0.1998  0.0098
  635ERGO    R1 9790  13.030  11.805  10.083 -0.0136  0.0900  0.0788
  635ERGO    R2 9791  13.152  12.019   9.958  0.3434 -0.0466  0.1741
  635ERGO    R3 9792  13.194  11.836   9.760 -0.0398 -0.0148  0.0564
  635ERGO    R4 9793  13.159  12.091   9.620  0.1442  0.0823  0.1967
  635ERGO    R5 9794  13.050  11.906   9.583 -0.1063  0.2299  0.2066
  635ERGO    C1 9795  13.202  11.962   9.238 -0.3314  0.1872  0.0993
  635ERGO    C2 9796  13.127  11.833   8.929  0.0721 -0.4006  0.3302
  636ERGO   ROH 9797   1.550   4.909  10.080  0.1064  0.0482 -0.1815
  636ERGO    R1 9798   1.609   5.017   9.825  0.2012  0.0220 -0.1706
  636ERGO    R2 9799   1.835   4.946   9.682  0.0781 -0.2540 -0.2299
  636ERGO    R3 9800   1.654   4.889   9.488 -0.0401  0.0302 -0.2079
  636ERGO    R4 9801   1.880   5.008   9.345  0.1057 -0.2513 -0.2258
  636ERGO    R5 9802   1.672   5.072   9.334  0.1846  0.0392 -0.1760
  636ERGO    C1 9803   1.737   4.991   8.966  0.0109  0.0172 -0.2027
  636ERGO    C2 9804   1.864   5.127   8.603  0.1703  0.2752 -0.1432
  637ERGO   ROH 9805  11.612   2.540   9.933  0.1056  0.0358 -0.0191
  637ERGO    R1 9806  11.565   2.440   9.673  0.0843 -0.0528  0.0186
  637ERGO    R2 9807  11.347   2.517   9.521  0.0639 -0.1166  0.0172
  637ERGO    R3 9808  11.537   2.579   9.337  0.0396 -0.1651 -0.0250
  637ERGO    R4 9809  11.293   2.538   9.181  0.0143 -0.1959  0.0197
  637ERGO    R5 9810  11.485   2.440   9.149  0.0080 -0.2091  0.0151
  637ERGO    C1 9811  11.440   2.608   8.809 -0.0375 -0.2876 -0.0182
  637ERGO    C2 9812  11.006   2.668   8.629 -0.0782  0.1396  0.0247
  638ERGO   ROH 9813  17.554  15.640  10.199  0.0101 -0.0445  0.0447
  638ERGO    R1 9814  17.521  15.548   9.934 -0.0207 -0.1451  0.0819
  638ERGO    R2 9815  17.368  15.683   9.747 -0.1202 -0.2598  0.0680
  638ERGO    R3 9816  17.596  15.670   9.600 -0.1462 -0.2229  0.0267
  638ERGO    R4 9817  17.381  15.690   9.402 -0.1678 -0.2290  0.0678
  638ERGO    R5 9818  17.537  15.538   9.409 -0.1564 -0.2076  0.0266
  638ERGO    C1 9819  17.603  15.682   9.062 -0.2201 -0.1764  0.0288
  638ERGO    C2 9820  17.668  15.736   8.718  0.1825 -0.1755  0.0875
  639ERGO   ROH 9821  13.863   9.652   9.972  0.2030 -0.0307  0.0081
  639ERGO    R1 9822  13.731   9.654   9.722  0.2128  0.1596  0.0017
  639ERGO    R2 9823  13.854   9.738   9.490  0.3094  0.0893  0.0212
  639ERGO    R3 9824  13.775   9.494   9.398  0.0665  0.1854 -0.0303
  639ERGO    R4 9825  13.815   9.655   9.156  0.3473  0.1560  0.0010
  639ERGO    R5 9826  13.635   9.544   9.210  0.1990  0.3575 -0.0818
  639ERGO    C1 9827  13.718   9.379   8.876  0.1415  0.2852 -0.0592
  639ERGO    C2 9828  13.792   9.279   8.479 -0.2194  0.0455 -0.1921
  640ERGO   ROH 9829   9.439   4.527  10.149  0.3083 -0.0055 -0.0880
  640ERGO    R1 9830   9.524   4.646   9.907  0.0977  0.1258 -0.0977
  640ERGO    R2 9831   9.574   4.500   9.678  0.2220  0.2106 -0.1177
  640ERGO    R3 9832   9.397   4.674   9.567 -0.0237  0.0043 -0.0649
  640ERGO    R4 9833   9.493   4.511   9.342  0.1200  0.1197 -0.0984
  640ERGO    R5 9834   9.494   4.729   9.355 -0.1406  0.1290 -0.0916
  640ERGO    C1 9835   9.279   4.681   9.043 -0.1701 -0.1269 -0.0375
  640ERGO    C2 9836   9.264   4.709   8.650  0.1985 -0.0646 -0.0902
  641ERGO   ROH 9837  17.411   2.637  10.456 -0.1729 -0.1528 -0.0666
  641ERGO    R1 9838  17.308   2.619  10.193 -0.0405 -0.1515 -0.1194
  641ERGO    R2 9839  17.318   2.830  10.014 -0.0520 -0.1129 -0.0758
  641ERGO    R3 9840  17.440   2.646   9.855  0.1077 -0.0284 -0.0524
  641ERGO    R4 9841  17.369   2.865   9.674 -0.1392 -0.1376 -0.0914
  641ERGO    R5 9842  17.319   2.654   9.649  0.0662 -0.1959 -0.0360
  641ERGO    C1 9843  17.514   2.713   9.327 -0.0401 -0.0727 -0.0785
  641ERGO    C2 9844  17.670   2.586   9.053 -0.3669  0.0769 -0.3099
  642ERGO   ROH 9845  15.503   2.821  10.208  0.2841 -0.0403 -0.0752
  642ERGO    R1 9846  15.392   2.641  10.020  0.3491 -0.0831 -0.0737
  642ERGO    R2 9847  15.157   2.694   9.884  0.2121 -0.2626  0.0824
  642ERGO    R3 9848  15.312   2.646   9.665  0.1354 -0.0313 -0.0256
  642ERGO    R4 9849  15.040   2.581   9.579  0.1505 -0.2837  0.1143
  642ERGO    R5 9850  15.214   2.452   9.564  0.2771 -0.0994 -0.0308
  642ERGO    C1 9851  15.117   2.471   9.196  0.0428 -0.0788  0.0314
  642ERGO    C2 9852  15.106   2.578   8.783  0.0238 -0.2764 -0.0691
  643ERGO   ROH 9853  15.232   7.893   9.733 -0.2035 -0.1562  0.0221
  643ERGO    R1 9854  15.073   7.965   9.510 -0.1441 -0.1783 -0.0279
  643ERGO    R2 9855  15.119   8.193   9.361 -0.1733 -0.1334  0.0295
  643ERGO    R3 9856  15.125   8.017   9.153 -0.0240 -0.0956  0.0015
  643ERGO    R4 9857  15.049   8.273   9.032 -0.1953 -0.1285  0.0359
  643ERGO    R5 9858  14.943   8.084   9.013 -0.0574 -0.2033 -0.0069
  643ERGO    C1 9859  15.015   8.155   8.646 -0.0679 -0.0901  0.0132
  643ERGO    C2 9860  15.264   8.174   8.530  0.1210  0.2510  0.0107
  644ERGO   ROH 9861   6.623  10.909  10.251  0.3302  0.0086  0.0390
  644ERGO    R1 9862   6.769  10.806  10.032  0.2768  0.0709 -0.0262
  644ERGO    R2 9863   6.655  10.766   9.783  0.1154 -0.2081  0.0887
  644ERGO    R3 9864   6.862  10.921   9.699 -0.1444  0.0088 -0.1724
  644ERGO    R4 9865   6.800  10.749   9.470  0.1451 -0.5096  0.1163
  644ERGO    R5 9866   6.995  10.774   9.564  0.1091 -0.0101  0.0858
  644ERGO    C1 9867   7.078  10.884   9.208 -0.0813 -0.4816 -0.1126
  644ERGO    C2 9868   7.063  10.877   8.928  0.1022 -0.1408  0.0496
  645ERGO   ROH 9869   1.043   8.340   9.679 -0.1329  0.1653  0.0928
  645ERGO    R1 9870   1.141   8.274   9.422  0.0066  0.2291  0.1270
  645ERGO    R2 9871   0.997   8.120   9.243  0.2822 -0.1087  0.1718
  645ERGO    R3 9872   1.040   8.332   9.077 -0.0785 -0.0892  0.0981
  645ERGO    R4 9873   1.060   8.096   8.904  0.1638 -0.0903  0.1491
  645ERGO    R5 9874   1.208   8.255   8.925 -0.0453  0.1118  0.0410
  645ERGO    C1 9875   1.137   8.280   8.551 -0.2437 -0.0612  0.0667
  645ERGO    C2 9876   1.030   8.320   8.259  0.0690  0.0448  0.1819
  646ERGO   ROH 9877  12.316  17.324  10.286 -0.2191  0.1170  0.0521
  646ERGO    R1 9878  12.367  17.446  10.036  0.0530 -0.0157  0.0375
  646ERGO    R2 9879  12.600  17.402   9.894  0.0443 -0.4119  0.1167
  646ERGO    R3 9880  12.427  17.333   9.695 -0.0079 -0.1958  0.0879
  646ERGO    R4 9881  12.662  17.440   9.556  0.0226 -0.2468  0.1318
  646ERGO    R5 9882  12.456  17.504   9.530  0.0648 -0.1204  0.1875
  646ERGO    C1 9883  12.536  17.397   9.173 -0.0392  0.0521  0.1134
  646ERGO    C2 9884  12.573  17.325   8.842 -0.0453  0.1985  0.0303
  647ERGO   ROH 9885   7.210  16.102  10.530 -0.0647 -0.4026 -0.1972
  647ERGO    R1 9886   7.172  16.191  10.264  0.0708 -0.1800 -0.1470
  647ERGO    R2 9887   7.325  16.390  10.150  0.1785 -0.1230  0.0705
  647ERGO    R3 9888   7.370  16.203   9.959  0.2069  0.0075 -0.0503
  647ERGO    R4 9889   7.403  16.459   9.821  0.1172  0.0818  0.0987
  647ERGO    R5 9890   7.272  16.296   9.761  0.1621  0.0887  0.0185
  647ERGO    C1 9891   7.489  16.324   9.449  0.1080  0.3236  0.0017
  647ERGO    C2 9892   7.668  16.214   9.231 -0.1634 -0.0035  0.2274
  648ERGO   ROH 9893   2.555   4.175  10.073  0.0646 -0.1842  0.0511
  648ERGO    R1 9894   2.440   4.058   9.843  0.0080 -0.1290  0.0501
  648ERGO    R2 9895   2.414   4.194   9.604 -0.0684 -0.0639  0.0912
  648ERGO    R3 9896   2.548   3.980   9.504 -0.0792 -0.0271 -0.0006
  648ERGO    R4 9897   2.454   4.127   9.268 -0.0476  0.0865  0.0634
  648ERGO    R5 9898   2.421   3.916   9.311 -0.0669  0.0716 -0.0390
  648ERGO    C1 9899   2.604   3.886   8.977 -0.0456  0.2085 -0.0390
  648ERGO    C2 9900   2.713   3.824   8.679 -0.0096  0.0461  0.1892
  649ERGO   ROH 9901  16.025   5.162   9.944  0.0303 -0.0770 -0.0684
  649ERGO    R1 9902  16.019   5.293   9.693  0.0436  0.0072 -0.0256
  649ERGO    R2 9903  16.244   5.320   9.534  0.0547  0.0651 -0.0039
  649ERGO    R3 9904  16.085   5.203   9.346  0.0675  0.1231 -0.0506
  649ERGO    R4 9905  16.291   5.343   9.192  0.1992 -0.0097  0.0104
  649ERGO    R5 9906  16.075   5.363   9.168  0.2211  0.1007 -0.0779
  649ERGO    C1 9907  16.169   5.247   8.817  0.2954  0.0011 -0.0251
  649ERGO    C2 9908  16.273   5.288   8.469  0.0045  0.1027  0.1012
  650ERGO   ROH 9909  15.730   6.131   9.907 -0.2427  0.0273 -0.1205
  650ERGO    R1 9910  15.589   6.030   9.683 -0.2001 -0.0815 -0.1000
  650ERGO    R2 9911  15.470   6.196   9.496 -0.2781 -0.1709 -0.1342
  650ERGO    R3 9912  15.619   6.051   9.321 -0.2115 -0.1385 -0.1034
  650ERGO    R4 9913  15.437   6.206   9.152 -0.0661 -0.0291 -0.1514
  650ERGO    R5 9914  15.466   5.991   9.147 -0.1195 -0.0312 -0.2201
  650ERGO    C1 9915  15.558   6.077   8.787  0.1200  0.0838 -0.1325
  650ERGO    C2 9916  15.557   6.037   8.481 -0.0190  0.2281  0.0031
  651ERGO   ROH 9917  11.791   1.577   9.758 -0.0987  0.1565  0.1055
  651ERGO    R1 9918  11.710   1.514   9.494 -0.0905  0.0447  0.1293
  651ERGO    R2 9919  11.447   1.464   9.427 -0.1054  0.1370  0.1201
  651ERGO    R3 9920  11.490   1.660   9.243  0.0187  0.0106  0.0125
  651ERGO    R4 9921  11.370   1.440   9.091 -0.1348  0.0062  0.1357
  651ERGO    R5 9922  11.557   1.542   9.045 -0.0668 -0.1422  0.0725
  651ERGO    C1 9923  11.365   1.609   8.722 -0.0352 -0.1885  0.0438
  651ERGO    C2 9924  11.405   1.715   8.402  0.1110  0.0077  0.0609
  652ERGO   ROH 9925   3.910  11.577   9.902 -0.2839  0.1937  0.0558
  652ERGO    R1 9926   3.957  11.483   9.639 -0.0686  0.1274  0.1171
  652ERGO    R2 9927   3.752  11.432   9.461  0.0709 -0.0701  0.0178
  652ERGO    R3 9928   3.893  11.601   9.301  0.0540 -0.0398  0.0326
  652ERGO    R4 9929   3.749  11.425   9.115  0.2132 -0.1677  0.0166
  652ERGO    R5 9930   3.964  11.464   9.118  0.1987 -0.0591  0.0965
  652ERGO    C1 9931   3.879  11.580   8.764  0.2802 -0.1962  0.0297
  652ERGO    C2 9932   3.754  11.514   8.471 -0.0665 -0.0330  0.0012
  653ERGO   ROH 9933  15.558  10.137  10.169  0.0516  0.2453 -0.0946
  653ERGO    R1 9934  15.582   9.982   9.934  0.0569  0.1100 -0.0059
  653ERGO    R2 9935  15.440  10.039   9.703  0.0774 -0.0099 -0.0487
  653ERGO    R3 9936  15.687  10.037   9.590  0.0852 -0.0924 -0.0310
  653ERGO    R4 9937  15.501  10.039   9.363  0.1017  0.0357 -0.0445
  653ERGO    R5 9938  15.663   9.897   9.397  0.0383 -0.0417 -0.0624
  653ERGO    C1 9939  15.768  10.038   9.058  0.1232 -0.0152 -0.0255
  653ERGO    C2 9940  15.614  10.105   8.658 -0.0331  0.1164 -0.0113
  654ERGO   ROH 9941   2.566  13.900  10.275  0.3200  0.2385 -0.1086
  654ERGO    R1 9942   2.395  13.967  10.059  0.1343  0.0582 -0.0207
  654ERGO    R2 9943   2.457  14.165   9.876 -0.1376  0.0748 -0.0965
  654ERGO    R3 9944   2.417  13.966   9.695 -0.0840  0.0079 -0.0354
  654ERGO    R4 9945   2.400  14.213   9.539  0.0029 -0.0472 -0.1389
  654ERGO    R5 9946   2.251  14.053   9.546 -0.0168 -0.0312 -0.1360
  654ERGO    C1 9947   2.329  14.054   9.172  0.1351 -0.1808 -0.1063
  654ERGO    C2 9948   2.495  14.155   8.829  0.1363 -0.1761 -0.1352
  655ERGO   ROH 9949   6.918   8.159   9.995  0.1012 -0.0725 -0.0850
  655ERGO    R1 9950   6.971   8.288   9.749  0.1454 -0.1047 -0.0934
  655ERGO    R2 9951   7.161   8.196   9.570  0.1298 -0.1703 -0.0820
  655ERGO    R3 9952   6.953   8.202   9.395  0.1349 -0.1285 -0.0859
  655ERGO    R4 9953   7.191   8.179   9.226  0.1289 -0.1182 -0.0844
  655ERGO    R5 9954   7.035   8.330   9.210  0.1427 -0.1076 -0.0642
  655ERGO    C1 9955   7.013   8.174   8.862  0.1331 -0.0487 -0.0895
  655ERGO    C2 9956   6.903   8.138   8.541  0.0983 -0.1673  0.0856
  656ERGO   ROH 9957   2.430  15.045  10.620 -0.1229 -0.1258 -0.0147
  656ERGO    R1 9958   2.510  15.154  10.372 -0.2786  0.0100 -0.0062
  656ERGO    R2 9959   2.697  15.033  10.209 -0.0011  0.3544  0.0448
  656ERGO    R3 9960   2.500  15.052  10.022 -0.0049 -0.0441 -0.0007
  656ERGO    R4 9961   2.746  15.026   9.867  0.0778  0.3152  0.0568
  656ERGO    R5 9962   2.596  15.182   9.846 -0.1882  0.0604 -0.0274
  656ERGO    C1 9963   2.590  15.040   9.493  0.1201 -0.0817  0.0210
  656ERGO    C2 9964   2.496  15.013   9.152  0.2659 -0.3232 -0.1380
  657ERGO   ROH 9965  15.174   0.759  10.227 -0.1583  0.3464 -0.0459
  657ERGO    R1 9966  15.245   0.797   9.956 -0.0506  0.1123 -0.0507
  657ERGO    R2 9967  15.363   0.598   9.804 -0.1691 -0.0792  0.1159
  657ERGO    R3 9968  15.155   0.649   9.636 -0.0774 -0.0220  0.0160
  657ERGO    R4 9969  15.366   0.538   9.464 -0.0555 -0.2002  0.1364
  657ERGO    R5 9970  15.260   0.727   9.434  0.0547 -0.1449  0.0291
  657ERGO    C1 9971  15.174   0.550   9.107  0.0969 -0.2170  0.0546
  657ERGO    C2 9972  15.087   0.527   8.741  0.0662  0.0074  0.1497
  658ERGO   ROH 9973   2.896   9.843  10.225  0.0445 -0.1724  0.0192
  658ERGO    R1 9974   2.852   9.743   9.965 -0.2395 -0.1187  0.0415
  658ERGO    R2 9975   2.657   9.844   9.797 -0.0090  0.3580  0.0338
  658ERGO    R3 9976   2.866   9.873   9.625  0.0701 -0.2107  0.0185
  658ERGO    R4 9977   2.631   9.848   9.452 -0.0063  0.3856  0.0349
  658ERGO    R5 9978   2.813   9.728   9.442 -0.3146 -0.0977  0.0396
  658ERGO    C1 9979   2.812   9.876   9.090  0.0696 -0.1324  0.0213
  658ERGO    C2 9980   2.699   9.878   8.730 -0.1598  0.1446 -0.0291
  659ERGO   ROH 9981  16.086   7.046   9.916  0.1059  0.0914 -0.0587
  659ERGO    R1 9982  16.092   7.037   9.633  0.3942  0.0516 -0.0538
  659ERGO    R2 9983  16.301   6.924   9.493  0.2459 -0.5631  0.1914
  659ERGO    R3 9984  16.102   6.779   9.377 -0.0566 -0.0173 -0.0111
  659ERGO    R4 9985  16.263   6.878   9.152  0.4096 -0.3762  0.1453
  659ERGO    R5 9986  16.048   6.902   9.178  0.4315  0.1892 -0.0337
  659ERGO    C1 9987  16.054   6.715   8.845  0.2210  0.2451 -0.0714
  659ERGO    C2 9988  15.865   6.543   8.553 -0.2359  0.3160  0.0863
  660ERGO   ROH 9989   2.370   7.527   9.885  0.3612  0.1061  0.2045
  660ERGO    R1 9990   2.354   7.392   9.636  0.3199  0.0586  0.2332
  660ERGO    R2 9991   2.297   7.523   9.399  0.1023 -0.0157  0.2454
  660ERGO    R3 9992   2.528   7.406   9.317  0.1392  0.1305  0.1355
  660ERGO    R4 9993   2.410   7.517   9.073 -0.1029 -0.0263  0.1726
  660ERGO    R5 9994   2.474   7.311   9.104  0.0703  0.0265  0.1960
  660ERGO    C1 9995   2.693   7.403   8.806 -0.1876  0.1048  0.0268
  660ERGO    C2 9996   2.835   7.359   8.440  0.6440 -0.2429  0.2596
  661ERGO   ROH 9997  17.047   3.631  10.235 -0.1522 -0.1530 -0.1293
  661ERGO    R1 9998  17.030   3.722   9.968  0.0925  0.0375 -0.0839
  661ERGO    R2 9999  17.252   3.776   9.814  0.2423 -0.3098  0.0062
  661ERGO    R310000  17.134   3.603   9.640 -0.0571  0.0152 -0.1246
  661ERGO    R410001  17.288   3.786   9.470  0.4186 -0.2245  0.0257
  661ERGO    R510002  17.075   3.740   9.452  0.3146  0.2353 -0.0917
  661ERGO    C110003  17.197   3.631   9.107  0.2401  0.1303 -0.0856
  661ERGO    C210004  17.429   3.533   8.879 -0.3326 -0.0358 -0.1201
  662ERGO   ROH10005   2.296  11.969  10.302 -0.0072 -0.2392  0.0626
  662ERGO    R110006   2.411  11.866  10.065 -0.0331 -0.2175  0.0413
  662ERGO    R210007   2.461  11.597  10.029 -0.1477 -0.2256 -0.0347
  662ERGO    R310008   2.312  11.632   9.804 -0.1120 -0.0970 -0.0396
  662ERGO    R410009   2.522  11.443   9.725 -0.1241 -0.0979 -0.0958
  662ERGO    R510010   2.472  11.630   9.626 -0.0817 -0.0395 -0.0177
  662ERGO    C110011   2.418  11.387   9.337 -0.0768  0.0972 -0.1362
  662ERGO    C210012   2.482  11.266   8.925  0.2107  0.1844  0.0896
  663ERGO   ROH10013   2.702   0.229  10.137 -0.1704 -0.0945 -0.0517
  663ERGO    R110014   2.773   0.319   9.878 -0.0796 -0.0176  0.0009
  663ERGO    R210015   2.954   0.186   9.718 -0.1708 -0.0745 -0.0465
  663ERGO    R310016   2.751   0.191   9.538 -0.1482  0.1729 -0.0695
  663ERGO    R410017   2.987   0.113   9.382 -0.2451 -0.3079 -0.0055
  663ERGO    R510018   2.852   0.278   9.338  0.0292 -0.0939 -0.1060
  663ERGO    C110019   2.815   0.075   9.017 -0.2671 -0.2116 -0.0034
  663ERGO    C210020   2.974   0.053   8.754  0.0247  0.1472  0.1807
  664ERGO   ROH10021  15.054  17.842  10.167 -0.1096 -0.2356  0.0669
  664ERGO    R110022  15.081  17.707   9.920 -0.2841 -0.0905 -0.0328
  664ERGO    R210023  14.949  17.788   9.691 -0.1226  0.2932  0.0108
  664ERGO    R310024  15.200  17.787   9.585 -0.1033 -0.0214  0.0451
  664ERGO    R410025  15.023  17.734   9.357 -0.1581  0.2409  0.0100
  664ERGO    R510026  15.194  17.614   9.420 -0.3160  0.0009  0.0190
  664ERGO    C110027  15.301  17.703   9.064 -0.1607 -0.0850  0.0418
  664ERGO    C210028  15.246  17.609   8.783 -0.0130 -0.0781 -0.0233
  665ERGO   ROH10029   0.428   2.367  10.546 -0.1349 -0.1266 -0.0226
  665ERGO    R110030   0.334   2.452  10.294 -0.0638 -0.1120 -0.0442
  665ERGO    R210031   0.500   2.562  10.102 -0.0005 -0.1558 -0.0124
  665ERGO    R310032   0.395   2.366   9.945 -0.0134 -0.1349 -0.0304
  665ERGO    R410033   0.555   2.529   9.762 -0.1168 -0.0399 -0.0437
  665ERGO    R510034   0.346   2.475   9.738 -0.1160 -0.0821  0.0190
  665ERGO    C110035   0.489   2.326   9.418 -0.1966  0.0473 -0.0789
  665ERGO    C210036   0.578   2.353   9.055 -0.1083 -0.0068 -0.1024
  666ERGO   ROH10037  15.727  14.725  10.628 -0.1050 -0.2797  0.0991
  666ERGO    R110038  15.754  14.635  10.362 -0.0579 -0.2339  0.0881
  666ERGO    R210039  15.595  14.436  10.255 -0.1236 -0.1292 -0.0128
  666ERGO    R310040  15.545  14.623  10.064  0.0394 -0.0598  0.0114
  666ERGO    R410041  15.609  14.378   9.915 -0.0734 -0.0690 -0.0210
  666ERGO    R510042  15.703  14.573   9.891  0.0528 -0.1217  0.0417
  666ERGO    C110043  15.571  14.520   9.537  0.1087  0.0312 -0.0030
  666ERGO    C210044  15.654  14.359   9.135  0.0716 -0.3346  0.1108
  667ERGO   ROH10045   4.194  11.130   9.932  0.1749 -0.0915  0.0923
  667ERGO    R110046   4.190  11.005   9.678  0.3482  0.0216  0.0322
  667ERGO    R210047   3.969  11.011   9.513  0.2936 -0.3047  0.0929
  667ERGO    R310048   4.147  11.109   9.332  0.0742  0.1140  0.0899
  667ERGO    R410049   3.920  11.020   9.171  0.2615 -0.4410  0.0931
  667ERGO    R510050   4.128  10.962   9.144  0.4149  0.0452  0.0970
  667ERGO    C110051   4.059  11.117   8.802  0.0368 -0.1274  0.0902
  667ERGO    C210052   4.019  11.098   8.486  0.0248  0.0673 -0.2923
  668ERGO   ROH10053   6.246   0.005  10.404 -0.1713 -0.1732  0.1349
  668ERGO    R110054   6.269  -0.072  10.133 -0.1676 -0.1622  0.1318
  668ERGO    R210055   6.076  -0.013   9.945 -0.0679  0.0334  0.0901
  668ERGO    R310056   6.286   0.096   9.810  0.0686 -0.1352  0.1547
  668ERGO    R410057   6.096   0.014   9.601 -0.1154  0.3516  0.1092
  668ERGO    R510058   6.307  -0.041   9.615 -0.1824  0.0219  0.0079
  668ERGO    C110059   6.305   0.132   9.274 -0.0151  0.3785  0.1810
  668ERGO    C210060   6.236   0.107   8.928  0.1435  0.0429 -0.1852
  669ERGO   ROH10061   7.931   9.769  10.284  0.1303  0.1119 -0.0248
  669ERGO    R110062   8.046   9.917  10.072  0.0299  0.0881 -0.0947
  669ERGO    R210063   8.177   9.797   9.862  0.0170  0.0736 -0.0848
  669ERGO    R310064   8.002   9.940   9.711 -0.0601 -0.0274 -0.0940
  669ERGO    R410065   8.236   9.902   9.538  0.1420  0.4157  0.0440
  669ERGO    R510066   8.140  10.092   9.588 -0.1484  0.2606  0.1380
  669ERGO    C110067   8.105  10.098   9.208  0.1426  0.5201  0.1104
  669ERGO    C210068   8.180   9.950   8.853 -0.0027 -0.0257  0.0803
  670ERGO   ROH10069  10.676   2.842  10.375  0.1695  0.0186  0.2023
  670ERGO    R110070  10.583   2.791  10.112  0.0278 -0.0627  0.2671
  670ERGO    R210071  10.720   2.873   9.887 -0.2502  0.1464  0.1680
  670ERGO    R310072  10.703   2.611   9.820  0.0325  0.1297  0.1490
  670ERGO    R410073  10.806   2.743   9.579 -0.2672  0.2862  0.1030
  670ERGO    R510074  10.631   2.612   9.591 -0.1034  0.0696  0.1904
  670ERGO    C110075  10.840   2.420   9.337 -0.0117  0.3520  0.0474
  670ERGO    C210076  10.843   2.348   9.066 -0.1759 -0.0369 -0.2061
  671ERGO   ROH10077  17.895   6.486   9.613  0.1282  0.1831  0.0291
  671ERGO    R110078  17.889   6.352   9.363  0.1068  0.1925  0.0250
  671ERGO    R210079  17.667   6.355   9.198  0.0309  0.0502  0.1263
  671ERGO    R310080  17.845   6.447   9.014 -0.1141  0.1812  0.0481
  671ERGO    R410081  17.633   6.321   8.856 -0.0353 -0.0859  0.1451
  671ERGO    R510082  17.846   6.279   8.843  0.0086  0.1293  0.0973
  671ERGO    C110083  17.780   6.388   8.484 -0.2099 -0.0422  0.0829
  671ERGO    C210084  17.639   6.383   8.156  0.0337  0.1357 -0.4333
  672ERGO   ROH10085   3.499   1.414  10.416 -0.1462 -0.1131  0.0590
  672ERGO    R110086   3.511   1.187  10.248  0.1568 -0.0721  0.0193
  672ERGO    R210087   3.360   1.164  10.018  0.0528 -0.3033  0.1064
  672ERGO    R310088   3.602   1.118   9.903  0.0742  0.1436 -0.0469
  672ERGO    R410089   3.406   1.024   9.705  0.1195 -0.1346  0.0393
  672ERGO    R510090   3.574   0.910   9.787  0.3649  0.1245 -0.0900
  672ERGO    C110091   3.659   0.899   9.415  0.1785  0.3831 -0.1437
  672ERGO    C210092   3.685   0.988   9.072  0.0379 -0.3638  0.1494
  673ERGO   ROH10093   5.257  17.092  10.372 -0.0692  0.0438 -0.0986
  673ERGO    R110094   5.339  16.940  10.147 -0.0203  0.0334 -0.0735
  673ERGO    R210095   5.182  16.911   9.922 -0.0540 -0.1364 -0.0283
  673ERGO    R310096   5.404  17.003   9.795 -0.1444 -0.0252 -0.1080
  673ERGO    R410097   5.243  16.880   9.583 -0.1697 -0.0924 -0.0535
  673ERGO    R510098   5.451  16.837   9.629 -0.1294  0.0031 -0.1339
  673ERGO    C110099   5.486  16.949   9.266 -0.3218  0.0377 -0.1429
  673ERGO    C210100   5.531  16.906   8.824  0.0330 -0.1500 -0.4853
  674loPI    C110101  11.263  14.504   5.322 -0.1244 -0.2257 -0.0749
  674loPI    C210102  11.577  14.457   5.080  0.0138 -0.0664  0.0702
  674loPI    C310103  11.487  14.820   5.221 -0.0632 -0.1582  0.2599
  674loPI   PO410104  11.303  14.353   5.483 -0.0128  0.0734  0.1072
  674loPI   GL110105  11.354  14.339   5.883  0.0220  0.1274 -0.1767
  674loPI   GL210106  11.079  14.208   6.008 -0.1565  0.1547 -0.2141
  674loPI   C1A10107  11.392  14.376   6.351  0.0919  0.2415 -0.0927
  674loPI   C2A10108  11.423  14.484   6.823  0.1626  0.1148  0.2176
  674loPI   C3A10109  11.584  14.497   7.205 -0.1744 -0.2463  0.3154
  674loPI   C4A10110  11.582  14.529   7.644  0.2773 -0.1606 -0.0275
  674loPI   C5A10111  11.814  14.643   8.110  0.1265  0.0799  0.3183
  674loPI   C6A10112  12.111  14.646   8.494 -0.1100 -0.1575 -0.2027
  674loPI   C1B10113  10.945  14.167   6.385 -0.0636  0.1402 -0.3080
  674loPI   C2B10114  11.042  13.885   6.826  0.2658 -0.0356  0.0927
  674loPI   C3B10115  11.494  13.567   6.921  0.4604  0.0581 -0.2737
  674loPI   C4B10116  11.739  13.514   7.278 -0.0533  0.0381  0.0638
  675loPI    C110117  11.782   8.048   5.137  0.2995  0.0736  0.0325
  675loPI    C210118  11.745   8.410   4.971  0.2178  0.1041  0.1160
  675loPI    C310119  12.001   8.144   4.817  0.1505  0.1355 -0.0522
  675loPI   PO410120  11.857   8.087   5.421  0.0412 -0.0176  0.3328
  675loPI   GL110121  11.901   7.922   5.797 -0.2571  0.2222  0.0337
  675loPI   GL210122  11.807   7.631   5.982  0.1537 -0.1630  0.0824
  675loPI   C1A10123  11.844   8.146   6.193  0.1825 -0.3101  0.0193
  675loPI   C2A10124  11.871   8.133   6.626  0.0422  0.0626 -0.1499
  675loPI   C3A10125  11.849   8.129   7.103 -0.0337 -0.0724  0.1159
  675loPI   C4A10126  11.865   8.034   7.435 -0.3690  0.2318  0.2241
  675loPI   C5A10127  12.218   8.116   7.724  0.2267  0.3409  0.0094
  675loPI   C6A10128  12.494   8.212   8.037 -0.1677 -0.1740  0.1165
  675loPI   C1B10129  11.904   7.684   6.426 -0.0961  0.1874 -0.1120
  675loPI   C2B10130  11.903   7.653   6.872 -0.3901  0.3212  0.0455
  675loPI   C3B10131  11.904   7.556   7.333  0.3447  0.0934 -0.1528
  675loPI   C4B10132  11.823   7.277   7.699  0.0280  0.0323 -0.0565
  676loPI    C110133   0.430   5.108   4.983 -0.0240  0.1138 -0.1010
  676loPI    C210134   0.567   4.983   4.628 -0.3687  0.0221 -0.2058
  676loPI    C310135   0.477   5.369   4.683  0.2628  0.1549 -0.0232
  676loPI   PO410136   0.212   4.922   5.086  0.0702 -0.0441  0.2575
  676loPI   GL110137   0.032   4.848   5.420  0.0044  0.1559  0.1443
  676loPI   GL210138   0.340   4.643   5.499 -0.2644 -0.0200 -0.0282
  676loPI   C1A10139  -0.090   4.799   5.875  0.1183 -0.0534  0.2935
  676loPI   C2A10140  -0.145   4.502   6.271  0.1011  0.0803 -0.0079
  676loPI   C3A10141  -0.144   4.280   6.716  0.2347  0.0723  0.1955
  676loPI   C4A10142  -0.050   3.920   6.988 -0.0199  0.1448  0.3272
  676loPI   C5A10143  -0.091   3.913   7.489  0.1325 -0.1665 -0.0584
  676loPI   C6A10144  -0.076   3.799   7.833  0.0711 -0.1514 -0.4845
  676loPI   C1B10145   0.440   4.882   5.763  0.2686 -0.0594 -0.0906
  676loPI   C2B10146   0.248   5.161   6.050 -0.1750 -0.0117 -0.2084
  676loPI   C3B10147   0.290   5.237   6.537  0.0650  0.0801  0.3348
  676loPI   C4B10148   0.357   5.185   6.911 -0.2462  0.1137  0.0335
  677loPI    C110149  17.464   5.162   4.706  0.0819 -0.3325 -0.2250
  677loPI    C210150  17.257   5.408   4.468  0.0697 -0.2335 -0.1135
  677loPI    C310151  17.597   5.242   4.338  0.1944  0.0167 -0.1121
  677loPI   PO410152  17.470   5.177   5.051 -0.0265 -0.1759 -0.0163
  677loPI   GL110153  17.562   4.973   5.388 -0.1402  0.1646 -0.0569
  677loPI   GL210154  17.670   5.246   5.630  0.3709  0.0275  0.1651
  677loPI   C1A10155  17.431   4.807   5.772  0.0005 -0.0055  0.0043
  677loPI   C2A10156  17.544   4.811   6.148 -0.0016  0.2555 -0.0478
  677loPI   C3A10157  17.442   4.631   6.607  0.1508 -0.2907 -0.1684
  677loPI   C4A10158  17.491   4.634   7.046 -0.0291  0.3334 -0.2432
  677loPI   C5A10159  17.682   4.704   7.465  0.1319  0.0775 -0.1179
  677loPI   C6A10160  17.848   4.998   7.743 -0.0287 -0.0550  0.0084
  677loPI   C1B10161  17.794   5.242   6.033  0.1521  0.1924 -0.1647
  677loPI   C2B10162  17.885   4.978   6.437  0.1074  0.1237  0.1079
  677loPI   C3B10163  17.952   4.774   6.818 -0.0581  0.0139  0.0066
  677loPI   C4B10164  18.023   4.408   7.242  0.1196  0.0832  0.0325
  678loPI    C110165  18.024  14.026   5.922  0.1136 -0.1289 -0.1722
  678loPI    C210166  18.109  14.326   5.672  0.1413 -0.0486 -0.0671
  678loPI    C310167  18.149  13.947   5.550  0.3989 -0.0118 -0.1042
  678loPI   PO410168  17.768  14.154   6.050  0.0194 -0.2564 -0.0616
  678loPI   GL110169  17.462  14.117   6.410 -0.0833 -0.0765  0.1322
  678loPI   GL210170  17.381  14.269   6.717 -0.0653  0.1157  0.1014
  678loPI   C1A10171  17.799  14.053   6.733 -0.1221 -0.2970  0.1279
  678loPI   C2A10172  17.940  13.916   7.142  0.0528  0.2796  0.1027
  678loPI   C3A10173  18.168  13.858   7.512 -0.1769  0.0755 -0.2506
  678loPI   C4A10174  18.074  13.974   7.910  0.0151 -0.2212 -0.0512
  678loPI   C5A10175  17.945  14.171   8.295 -0.1122  0.0726 -0.3890
  678loPI   C6A10176  17.717  14.447   8.542 -0.3371 -0.0836  0.2569
  678loPI   C1B10177  17.438  14.084   7.095  0.0671 -0.1092  0.1314
  678loPI   C2B10178  17.340  14.345   7.440 -0.2102  0.2316 -0.1957
  678loPI   C3B10179  16.977  14.402   7.703  0.1966  0.3144  0.2119
  678loPI   C4B10180  16.805  14.325   8.041 -0.0636 -0.2520 -0.3160
  679loPI    C110181   7.367   1.540   5.960 -0.1340 -0.1373  0.0419
  679loPI    C210182   7.139   1.849   6.072  0.1395  0.1086 -0.0678
  679loPI    C310183   7.086   1.681   5.713  0.1148  0.1509 -0.0840
  679loPI   PO410184   7.291   1.336   6.106  0.2008  0.2639  0.0450
  679loPI   GL110185   7.069   1.400   6.426 -0.0732  0.0037  0.1159
  679loPI   GL210186   7.297   1.071   6.523  0.0669  0.2233  0.2814
  679loPI   C1A10187   6.695   1.418   6.636 -0.1340  0.1593 -0.3122
  679loPI   C2A10188   6.740   1.570   6.990  0.2442 -0.0182  0.0790
  679loPI   C3A10189   6.823   1.680   7.323  0.0258 -0.1828  0.2708
  679loPI   C4A10190   7.006   1.842   7.752 -0.1342 -0.0251  0.0851
  679loPI   C5A10191   7.130   1.808   8.133  0.0332  0.0635  0.3152
  679loPI   C6A10192   7.322   1.585   8.433 -0.2241 -0.0046 -0.0398
  679loPI   C1B10193   7.218   1.333   6.883 -0.1562 -0.3126 -0.0580
  679loPI   C2B10194   7.046   1.220   7.195  0.0563  0.0996 -0.0139
  679loPI   C3B10195   7.067   1.309   7.700  0.1663  0.0691  0.0393
  679loPI   C4B10196   7.041   1.309   8.206  0.0733  0.1856 -0.2411
  680loPI    C110197  11.898   9.335   4.985  0.1310 -0.0484  0.0925
  680loPI    C210198  11.971   9.508   4.631  0.1502 -0.1376  0.0525
  680loPI    C310199  11.603   9.520   4.787  0.1515 -0.0604  0.0504
  680loPI   PO410200  12.123   9.472   5.167 -0.1318  0.0618 -0.1130
  680loPI   GL110201  12.107   9.362   5.611  0.3831  0.0627 -0.3087
  680loPI   GL210202  12.425   9.131   5.783  0.1029 -0.0976  0.2846
  680loPI   C1A10203  12.216   9.520   6.074  0.1378 -0.0174 -0.1079
  680loPI   C2A10204  12.150   9.437   6.490  0.0570 -0.1014 -0.2123
  680loPI   C3A10205  12.243   9.465   6.969 -0.1758  0.0536 -0.0288
  680loPI   C4A10206  12.239   9.456   7.410 -0.2982 -0.0091  0.0314
  680loPI   C5A10207  12.331   9.652   7.844 -0.1244 -0.0624 -0.6030
  680loPI   C6A10208  12.109   9.881   8.185 -0.1004 -0.0804 -0.0137
  680loPI   C1B10209  12.576   9.214   6.234  0.3763 -0.2816  0.0672
  680loPI   C2B10210  12.745   9.318   6.697  0.0773 -0.0674  0.1360
  680loPI   C3B10211  12.917   9.537   7.025  0.0772 -0.3164 -0.0588
  680loPI   C4B10212  13.202   9.527   7.278 -0.1379  0.1819 -0.2104
  681loPI    C110213   3.989  16.045   5.446  0.3913  0.0353  0.0007
  681loPI    C210214   3.694  16.232   5.252  0.0842 -0.1463  0.2806
  681loPI    C310215   3.993  16.063   5.047 -0.0476 -0.0320 -0.0111
  681loPI   PO410216   3.854  15.931   5.695 -0.3974  0.1630 -0.1264
  681loPI   GL110217   3.842  15.960   6.124 -0.2116 -0.0884  0.0785
  681loPI   GL210218   3.996  15.848   6.379  0.0161 -0.0582  0.0934
  681loPI   C1A10219   3.667  16.098   6.574 -0.1127 -0.1415 -0.0763
  681loPI   C2A10220   3.713  16.102   7.059  0.2312  0.1350  0.1933
  681loPI   C3A10221   3.737  15.831   7.468 -0.3472  0.0447  0.4400
  681loPI   C4A10222   3.568  15.539   7.746 -0.0998 -0.0273 -0.0486
  681loPI   C5A10223   3.414  15.584   8.182  0.0812  0.1252  0.1724
  681loPI   C6A10224   3.271  15.774   8.602  0.2233 -0.4270  0.0375
  681loPI   C1B10225   4.025  15.702   6.870  0.1381  0.1771 -0.0513
  681loPI   C2B10226   4.036  15.458   7.279 -0.0912  0.0804 -0.1510
  681loPI   C3B10227   4.003  15.242   7.703 -0.0122  0.0818  0.0468
  681loPI   C4B10228   3.662  15.080   7.999  0.0772 -0.0384 -0.0705
  682loPI    C110229   2.921  10.495   5.284 -0.1485 -0.1753  0.0024
  682loPI    C210230   2.876  10.616   4.906 -0.0613  0.0553  0.0641
  682loPI    C310231   2.569  10.448   5.100 -0.1766  0.1512 -0.0333
  682loPI   PO410232   3.121  10.604   5.366 -0.1473  0.0347  0.0015
  682loPI   GL110233   3.413  10.790   5.765  0.2786  0.3102  0.3215
  682loPI   GL210234   3.179  10.762   5.831  0.0361 -0.2360 -0.0041
  682loPI   C1A10235   3.522  10.691   6.163 -0.0323 -0.0389 -0.2427
  682loPI   C2A10236   3.512  10.683   6.613 -0.0863 -0.1531 -0.1558
  682loPI   C3A10237   3.542  10.775   7.091 -0.3392  0.1643  0.2236
  682loPI   C4A10238   3.539  10.748   7.526 -0.2651 -0.0317  0.0867
  682loPI   C5A10239   3.525  10.976   7.893  0.0423 -0.1802 -0.0985
  682loPI   C6A10240   3.319  11.020   8.242 -0.3107 -0.2483  0.1240
  682loPI   C1B10241   3.048  10.517   6.129  0.0061 -0.0867  0.1835
  682loPI   C2B10242   3.106  10.442   6.522 -0.1128 -0.1920 -0.1247
  682loPI   C3B10243   3.150  10.515   6.936 -0.0524 -0.0244 -0.2485
  682loPI   C4B10244   2.936  10.427   7.340 -0.1918  0.2692  0.3456
  683loPI    C110245   9.034   1.286   5.386  0.0105  0.0005  0.0448
  683loPI    C210246   8.728   1.123   5.188  0.1785 -0.0743 -0.1575
  683loPI    C310247   8.851   1.493   5.097 -0.3286  0.2597  0.4338
  683loPI   PO410248   9.221   1.145   5.390 -0.1159  0.0461 -0.0256
  683loPI   GL110249   9.677   1.026   5.636  0.0892 -0.0160 -0.1242
  683loPI   GL210250   9.936   1.233   5.841 -0.0039 -0.1545 -0.1949
  683loPI   C1A10251   9.616   0.945   6.127  0.1612 -0.3861 -0.1040
  683loPI   C2A10252   9.554   1.262   6.470  0.0052 -0.0524  0.1959
  683loPI   C3A10253   9.677   1.290   6.913  0.0941  0.1484  0.2131
  683loPI   C4A10254   9.601   1.199   7.373  0.0490  0.1293 -0.1053
  683loPI   C5A10255   9.776   1.186   7.785  0.4629  0.1709 -0.1727
  683loPI   C6A10256   9.555   1.260   8.149  0.1089 -0.0197 -0.2385
  683loPI   C1B10257  10.060   1.367   6.270  0.0634 -0.1004 -0.1267
  683loPI   C2B10258  10.096   1.475   6.633  0.2238  0.0355  0.2339
  683loPI   C3B10259  10.153   1.442   7.034  0.0914  0.1025  0.1202
  683loPI   C4B10260  10.009   1.597   7.398  0.1753 -0.1239  0.1460
  684loPI    C110261   4.676   5.058   5.067  0.1573 -0.0198  0.1748
  684loPI    C210262   5.031   5.012   4.888  0.0917 -0.1451  0.0753
  684loPI    C310263   4.708   5.106   4.671  0.0557 -0.0717  0.1598
  684loPI   PO410264   4.733   4.929   5.268 -0.1502 -0.3871 -0.2651
  684loPI   GL110265   4.612   4.936   5.680  0.1934 -0.4200  0.2195
  684loPI   GL210266   4.828   5.144   5.810  0.0606 -0.3364 -0.1797
  684loPI   C1A10267   4.683   4.714   6.097 -0.1414 -0.0460  0.0396
  684loPI   C2A10268   4.740   4.640   6.551 -0.1088 -0.2333 -0.1469
  684loPI   C3A10269   4.787   4.674   7.065  0.0150 -0.2620 -0.0359
  684loPI   C4A10270   4.729   4.691   7.500  0.0896 -0.0129  0.0258
  684loPI   C5A10271   4.878   4.628   7.850  0.1454  0.0400 -0.0627
  684loPI   C6A10272   4.918   4.523   8.220 -0.0795 -0.3365 -0.1953
  684loPI   C1B10273   5.017   5.108   6.195  0.1177 -0.1455  0.1977
  684loPI   C2B10274   5.137   5.166   6.632 -0.1279  0.0062 -0.1601
  684loPI   C3B10275   4.980   5.148   7.011 -0.0931 -0.1642 -0.0399
  684loPI   C4B10276   4.898   5.155   7.455  0.1256 -0.1235 -0.1769
  685loPI    C110277  13.064  16.816   5.217  0.0548  0.2416 -0.0350
  685loPI    C210278  13.059  16.417   5.188 -0.1954  0.2216  0.2349
  685loPI    C310279  13.320  16.630   4.972 -0.2056 -0.0718 -0.0761
  685loPI   PO410280  13.106  16.906   5.462  0.1629  0.0428 -0.1059
  685loPI   GL110281  12.921  17.015   5.795  0.2191  0.0693 -0.3986
  685loPI   GL210282  13.072  17.244   5.838  0.0621 -0.4201  0.2827
  685loPI   C1A10283  12.791  16.868   6.222  0.1735 -0.0604 -0.1782
  685loPI   C2A10284  12.807  16.861   6.649 -0.1697  0.1019 -0.2710
  685loPI   C3A10285  12.880  16.897   7.091  0.0275  0.1558 -0.1803
  685loPI   C4A10286  12.889  16.849   7.549 -0.1433  0.1707  0.0739
  685loPI   C5A10287  12.893  16.893   8.025 -0.1306  0.1100  0.2019
  685loPI   C6A10288  12.749  16.801   8.429 -0.3336 -0.0278 -0.0511
  685loPI   C1B10289  13.222  17.298   6.201 -0.2419 -0.2584 -0.1019
  685loPI   C2B10290  13.219  17.207   6.610 -0.1079 -0.0171 -0.0747
  685loPI   C3B10291  13.363  17.284   7.074  0.2891  0.0752  0.0236
  685loPI   C4B10292  13.706  17.214   7.418  0.1249  0.0339 -0.1820
  686loPI    C110293   7.456   6.424   5.428 -0.3123  0.0764 -0.0988
  686loPI    C210294   7.629   6.301   5.089 -0.1696  0.0293 -0.0102
  686loPI    C310295   7.481   6.672   5.116 -0.4124 -0.0501 -0.2083
  686loPI   PO410296   7.565   6.447   5.701  0.0064 -0.2419  0.2065
  686loPI   GL110297   7.475   6.717   5.974  0.1541 -0.1025 -0.0227
  686loPI   GL210298   7.613   6.483   6.243 -0.0610  0.3176 -0.3222
  686loPI   C1A10299   7.342   6.909   6.409  0.2463  0.0273 -0.0794
  686loPI   C2A10300   7.546   7.131   6.732  0.2674 -0.2103 -0.0682
  686loPI   C3A10301   7.550   7.115   7.115 -0.3005  0.0013 -0.1594
  686loPI   C4A10302   7.216   7.145   7.483  0.0913  0.0326  0.0522
  686loPI   C5A10303   6.724   7.028   7.618 -0.0870 -0.0460 -0.1473
  686loPI   C6A10304   6.468   6.627   7.824  0.0041  0.0165  0.0003
  686loPI   C1B10305   7.255   6.433   6.479  0.2619  0.1276  0.4584
  686loPI   C2B10306   7.175   6.567   6.845 -0.2301  0.0472 -0.0146
  686loPI   C3B10307   7.370   6.621   7.335  0.0874  0.0066  0.0091
  686loPI   C4B10308   7.624   6.861   7.576  0.0435  0.2697 -0.0556
  687loPI    C110309   6.523  17.539   5.791 -0.0028 -0.0603 -0.1267
  687loPI    C210310   6.804  17.420   6.050 -0.1751  0.2517  0.2141
  687loPI    C310311   6.892  17.458   5.661  0.0804 -0.2483  0.2146
  687loPI   PO410312   6.459  17.747   5.906  0.0113 -0.1171  0.0807
  687loPI   GL110313   6.762  17.904   6.218 -0.0367 -0.3816 -0.0504
  687loPI   GL210314   6.844  18.114   6.432  0.4503  0.0505 -0.1148
  687loPI   C1A10315   6.726  17.538   6.501 -0.1893 -0.1077  0.3284
  687loPI   C2A10316   6.580  17.501   7.000  0.4765 -0.0267 -0.0358
  687loPI   C3A10317   6.545  17.568   7.459 -0.1573  0.0762 -0.2339
  687loPI   C4A10318   6.383  17.314   7.811 -0.2931  0.2925  0.0010
  687loPI   C5A10319   6.286  16.972   8.146  0.1087  0.0726  0.0266
  687loPI   C6A10320   6.288  16.692   8.468  0.2793 -0.2451  0.0545
  687loPI   C1B10321   6.909  18.300   6.895  0.1123 -0.2850  0.1063
  687loPI   C2B10322   7.211  18.245   7.228  0.1335  0.0035 -0.1198
  687loPI   C3B10323   7.007  18.336   7.615 -0.2198  0.1390 -0.1944
  687loPI   C4B10324   6.722  18.326   7.976 -0.1155 -0.0789  0.3606
  688loPI    C110325  15.201   4.924   5.270  0.0515 -0.0394 -0.0235
  688loPI    C210326  15.366   5.056   5.610  0.0849  0.0873 -0.0885
  688loPI    C310327  15.576   5.061   5.269 -0.0190  0.1579 -0.1522
  688loPI   PO410328  15.141   4.679   5.396  0.3928 -0.1156 -0.0160
  688loPI   GL110329  15.067   4.619   5.756 -0.0370 -0.1791 -0.0787
  688loPI   GL210330  14.931   4.853   5.952  0.0824 -0.1524  0.3421
  688loPI   C1A10331  15.094   4.466   6.188  0.0719 -0.1673  0.0515
  688loPI   C2A10332  15.267   4.380   6.580  0.2405  0.0531 -0.1918
  688loPI   C3A10333  15.341   4.387   6.955  0.1260 -0.1094  0.1436
  688loPI   C4A10334  15.342   4.331   7.347 -0.0718 -0.0890  0.4363
  688loPI   C5A10335  15.646   4.588   7.674 -0.1050 -0.0757  0.0972
  688loPI   C6A10336  15.714   4.655   8.119  0.0982  0.0357  0.1328
  688loPI   C1B10337  14.830   5.044   6.295  0.2015  0.1565 -0.1090
  688loPI   C2B10338  14.643   5.010   6.726 -0.1701  0.3498  0.1334
  688loPI   C3B10339  14.315   4.859   6.955 -0.0832 -0.0629 -0.1422
  688loPI   C4B10340  14.019   5.081   7.211  0.3558 -0.1343 -0.2385
  689loPI    C110341  16.932  13.905   5.747 -0.2551 -0.1202 -0.2716
  689loPI    C210342  17.142  13.586   5.627 -0.1003 -0.0666 -0.1467
  689loPI    C310343  17.161  13.928   5.419  0.1449  0.0174  0.0100
  689loPI   PO410344  16.914  13.842   6.059  0.2381  0.3122 -0.0636
  689loPI   GL110345  16.976  13.927   6.351  0.0120 -0.2625 -0.1123
  689loPI   GL210346  16.785  14.156   6.467  0.2804 -0.2854  0.1954
  689loPI   C1A10347  17.085  13.855   6.727 -0.0779  0.3027 -0.0347
  689loPI   C2A10348  16.971  13.919   7.205 -0.2766  0.0286  0.2607
  689loPI   C3A10349  16.968  13.920   7.581 -0.2110 -0.0127  0.0535
  689loPI   C4A10350  17.140  13.984   8.001 -0.0217  0.0364  0.1957
  689loPI   C5A10351  17.286  14.406   8.242  0.0097  0.2111 -0.3644
  689loPI   C6A10352  17.047  14.573   8.446  0.0787 -0.1585 -0.2213
  689loPI   C1B10353  16.634  14.189   6.842  0.2200  0.2035  0.3124
  689loPI   C2B10354  16.678  14.277   7.296  0.0617 -0.0737  0.2610
  689loPI   C3B10355  16.437  14.296   7.642 -0.0352 -0.0880 -0.0017
  689loPI   C4B10356  16.052  14.503   7.636  0.1466  0.1343 -0.2858
  690loPI    C110357  10.261  10.535   5.671 -0.0957  0.1361 -0.0017
  690loPI    C210358   9.908  10.569   5.486 -0.1027 -0.0572 -0.0261
  690loPI    C310359  10.247  10.580   5.274 -0.1007 -0.0297 -0.0214
  690loPI   PO410360  10.174  10.364   5.905  0.2039 -0.0937 -0.0661
  690loPI   GL110361  10.160  10.494   6.336  0.0591 -0.2384  0.0335
  690loPI   GL210362  10.345  10.378   6.621  0.1269 -0.0124  0.2110
  690loPI   C1A10363   9.877  10.251   6.580  0.1961 -0.0411 -0.1337
  690loPI   C2A10364   9.919   9.830   6.654 -0.1948 -0.2202 -0.1881
  690loPI   C3A10365   9.991   9.541   7.044  0.2164  0.0832  0.2163
  690loPI   C4A10366  10.050   9.435   7.402 -0.5032 -0.0195 -0.2401
  690loPI   C5A10367  10.164   9.334   7.842 -0.0669  0.1039 -0.4401
  690loPI   C6A10368  10.105   9.262   8.189  0.0574 -0.1413  0.0782
  690loPI   C1B10369  10.727  10.171   6.686 -0.0646 -0.1557 -0.1402
  690loPI   C2B10370  11.088   9.963   6.723 -0.0025 -0.0970 -0.0663
  690loPI   C3B10371  11.308   9.873   7.165 -0.0704  0.2488  0.1630
  690loPI   C4B10372  11.390   9.855   7.597  0.2010 -0.1342 -0.0088
  691loPI    C110373   2.262   5.719   5.328  0.0848  0.2737  0.0416
  691loPI    C210374   2.597   5.620   5.133  0.0274 -0.1650  0.1538
  691loPI    C310375   2.247   5.621   4.941  0.0889  0.3214  0.0293
  691loPI   PO410376   2.340   5.991   5.457  0.2253  0.3011 -0.0479
  691loPI   GL110377   2.136   6.243   5.753  0.4225  0.2100  0.0229
  691loPI   GL210378   1.899   5.988   5.689 -0.1024  0.0716 -0.2351
  691loPI   C1A10379   2.254   6.327   6.083  0.0815  0.3107  0.0141
  691loPI   C2A10380   2.197   6.423   6.470  0.1941  0.0893 -0.3029
  691loPI   C3A10381   2.191   6.616   6.921 -0.1256  0.2567 -0.2128
  691loPI   C4A10382   2.416   6.796   7.330  0.2034 -0.0304 -0.2020
  691loPI   C5A10383   2.263   7.130   7.650 -0.4033  0.0004  0.5029
  691loPI   C6A10384   2.326   7.198   8.086 -0.0396 -0.0103  0.0520
  691loPI   C1B10385   2.000   5.897   6.107 -0.0245  0.2487  0.2345
  691loPI   C2B10386   1.951   5.979   6.592  0.2549 -0.0129  0.0565
  691loPI   C3B10387   1.895   5.918   6.996  0.0441 -0.0520  0.0005
  691loPI   C4B10388   1.860   5.826   7.381 -0.4167  0.2820 -0.0827
  692loPI    C110389  15.166   6.328   5.149 -0.1460  0.0344 -0.0661
  692loPI    C210390  15.198   5.932   5.103  0.2129  0.0672 -0.1311
  692loPI    C310391  15.265   6.175   4.793  0.1184  0.1853 -0.0599
  692loPI   PO410392  15.275   6.355   5.385 -0.0736  0.0384 -0.1219
  692loPI   GL110393  15.264   6.306   5.833  0.0233 -0.1135  0.0498
  692loPI   GL210394  15.079   6.510   6.001 -0.1038 -0.2765 -0.0068
  692loPI   C1A10395  15.377   6.065   6.141  0.1794  0.2050 -0.0732
  692loPI   C2A10396  15.190   5.854   6.545 -0.0385 -0.0114 -0.1359
  692loPI   C3A10397  15.117   5.881   6.919 -0.0714  0.0674  0.0753
  692loPI   C4A10398  15.155   5.869   7.398  0.0698  0.1470  0.1017
  692loPI   C5A10399  15.115   5.837   7.895  0.1050 -0.1242  0.1855
  692loPI   C6A10400  15.363   5.657   8.117 -0.1721  0.0112  0.1277
  692loPI   C1B10401  15.229   6.457   6.426 -0.2547 -0.1235  0.1773
  692loPI   C2B10402  15.227   6.429   6.837 -0.0322  0.1413  0.1619
  692loPI   C3B10403  15.253   6.381   7.278  0.0082  0.1560  0.0419
  692loPI   C4B10404  15.197   6.340   7.718  0.3791  0.1149 -0.0793
  693loPI    C110405  11.351   0.324   5.013 -0.0829 -0.2383 -0.0673
  693loPI    C210406  10.977   0.232   4.904 -0.1449 -0.0515 -0.0166
  693loPI    C310407  11.285   0.133   4.668 -0.2481  0.0283 -0.1869
  693loPI   PO410408  11.257   0.365   5.285  0.2273  0.1785  0.0475
  693loPI   GL110409  11.140   0.633   5.642  0.0170  0.3135 -0.1016
  693loPI   GL210410  11.200   0.315   5.890 -0.0581  0.1607 -0.0008
  693loPI   C1A10411  11.288   0.878   5.991 -0.2283  0.3207 -0.0688
  693loPI   C2A10412  11.119   1.022   6.437  0.1468  0.2029 -0.1430
  693loPI   C3A10413  11.057   1.115   6.925  0.1382  0.1651  0.1416
  693loPI   C4A10414  11.042   1.112   7.322 -0.1076 -0.1780  0.0334
  693loPI   C5A10415  11.120   0.895   7.742 -0.2966  0.3112  0.3353
  693loPI   C6A10416  11.442   0.555   7.765  0.0598  0.1066  0.1289
  693loPI   C1B10417  11.174   0.445   6.289  0.2344 -0.0985  0.0066
  693loPI   C2B10418  11.105   0.430   6.881 -0.1172  0.0128 -0.0972
  693loPI   C3B10419  11.280   0.205   7.204 -0.0408 -0.1708 -0.0658
  693loPI   C4B10420  11.296   0.123   7.613 -0.1108  0.3147 -0.0925
  694loPI    C110421  12.516   7.057   5.407 -0.3131 -0.1746 -0.1570
  694loPI    C210422  12.773   6.932   5.127 -0.1917  0.0317 -0.1395
  694loPI    C310423  12.909   7.102   5.462 -0.3372 -0.1962  0.0379
  694loPI   PO410424  12.421   6.689   5.547  0.2989 -0.1734 -0.2809
  694loPI   GL110425  12.482   6.602   5.899  0.1107  0.2194 -0.0197
  694loPI   GL210426  12.692   6.861   5.915  0.1555  0.0949  0.0062
  694loPI   C1A10427  12.407   6.374   6.311  0.1769  0.2657 -0.0549
  694loPI   C2A10428  12.559   6.396   6.823  0.2690 -0.1104 -0.2714
  694loPI   C3A10429  12.556   6.309   7.253 -0.1588  0.0662 -0.1838
  694loPI   C4A10430  12.694   6.241   7.630  0.2405  0.0525 -0.0698
  694loPI   C5A10431  12.755   6.367   8.057 -0.1619  0.1315  0.4008
  694loPI   C6A10432  12.803   6.634   8.434 -0.2626 -0.1926 -0.3077
  694loPI   C1B10433  12.746   6.716   6.368  0.0655 -0.0399 -0.2115
  694loPI   C2B10434  12.834   6.823   6.801  0.0999 -0.4586 -0.1753
  694loPI   C3B10435  12.986   6.658   7.123 -0.4623  0.0699 -0.0787
  694loPI   C4B10436  12.996   6.581   7.488  0.0476 -0.1029  0.0032
  695loPI    C110437  13.936  16.506   5.085 -0.0516  0.1881  0.0664
  695loPI    C210438  14.111  16.480   4.726 -0.1813  0.0331  0.0131
  695loPI    C310439  13.782  16.703   4.773 -0.0597  0.2012  0.0786
  695loPI   PO410440  14.054  16.363   5.325 -0.0655  0.2504  0.2136
  695loPI   GL110441  14.078  16.353   5.696  0.2651 -0.3809  0.1624
  695loPI   GL210442  13.790  16.445   5.948 -0.0828  0.3317  0.2358
  695loPI   C1A10443  14.339  16.521   6.102  0.1993  0.0879  0.2193
  695loPI   C2A10444  14.467  16.515   6.504  0.1421  0.2270 -0.3424
  695loPI   C3A10445  14.511  16.472   6.856 -0.0780 -0.2907  0.0568
  695loPI   C4A10446  14.619  16.683   7.239  0.2240  0.1701  0.1031
  695loPI   C5A10447  14.697  16.786   7.740  0.1534 -0.1221  0.0333
  695loPI   C6A10448  14.735  17.241   8.019 -0.0851 -0.1226  0.0980
  695loPI   C1B10449  13.879  16.441   6.338  0.0598 -0.1635 -0.2589
  695loPI   C2B10450  13.816  16.610   6.750  0.0195 -0.2909  0.0092
  695loPI   C3B10451  13.738  16.794   7.146  0.0448 -0.1167 -0.0195
  695loPI   C4B10452  13.796  16.775   7.662  0.2403 -0.1783  0.2843
  696loPI    C110453  16.998  10.634   5.335  0.0368 -0.1892 -0.0496
  696loPI    C210454  16.808  10.345   5.134 -0.1200  0.1518 -0.4018
  696loPI    C310455  17.077  10.575   4.947  0.0895  0.1610 -0.0949
  696loPI   PO410456  16.851  10.632   5.565 -0.2167 -0.2285 -0.0420
  696loPI   GL110457  16.901  10.643   5.986 -0.1157  0.0085  0.2890
  696loPI   GL210458  16.653  10.496   5.980  0.2818  0.2496  0.0216
  696loPI   C1A10459  17.072  10.743   6.414 -0.0759  0.0890 -0.0353
  696loPI   C2A10460  17.041  10.641   6.824  0.1969  0.0608 -0.0913
  696loPI   C3A10461  16.875  10.649   7.284  0.1182 -0.2191  0.3449
  696loPI   C4A10462  16.845  10.808   7.788  0.1999 -0.0639  0.0148
  696loPI   C5A10463  16.901  10.970   8.259  0.2277 -0.0649 -0.1367
  696loPI   C6A10464  16.801  10.721   8.614  0.0772  0.0041  0.0788
  696loPI   C1B10465  16.586  10.461   6.389 -0.2157 -0.0335 -0.0276
  696loPI   C2B10466  16.586  10.410   6.795  0.0182 -0.0731 -0.0712
  696loPI   C3B10467  16.445  10.355   7.182  0.0447 -0.0040 -0.1077
  696loPI   C4B10468  16.511  10.478   7.650  0.1309  0.2693 -0.0021
  697loPI    C110469   3.155  11.561   5.045 -0.0886  0.0524 -0.0901
  697loPI    C210470   3.363  11.288   4.840 -0.3453 -0.4359  0.2766
  697loPI    C310471   3.038  11.455   4.678 -0.1206 -0.2529  0.0051
  697loPI   PO410472   3.373  11.666   5.197  0.0734  0.0286 -0.0176
  697loPI   GL110473   3.548  11.589   5.608  0.1069 -0.0270  0.2774
  697loPI   GL210474   3.376  11.771   5.780 -0.1812 -0.2410  0.2080
  697loPI   C1A10475   3.798  11.588   5.951  0.2073 -0.1225  0.1067
  697loPI   C2A10476   3.970  11.491   6.357  0.0254 -0.0476 -0.2704
  697loPI   C3A10477   4.046  11.609   6.755  0.0837 -0.1051 -0.2064
  697loPI   C4A10478   3.978  11.574   7.249  0.2696  0.0663 -0.1334
  697loPI   C5A10479   4.063  11.601   7.631 -0.1587 -0.2182  0.0354
  697loPI   C6A10480   3.885  11.382   8.011  0.0554  0.0435 -0.4610
  697loPI   C1B10481   3.514  11.865   6.221  0.1551 -0.2111  0.3030
  697loPI   C2B10482   3.571  11.782   6.620 -0.1159 -0.0093 -0.0613
  697loPI   C3B10483   3.507  11.804   7.066 -0.0765  0.1037 -0.1386
  697loPI   C4B10484   3.549  11.807   7.462 -0.1428  0.1916  0.0525
  698loPI    C110485   5.365   2.400   5.389  0.0084 -0.0464  0.1800
  698loPI    C210486   5.187   2.065   5.517 -0.3047 -0.1029 -0.3706
  698loPI    C310487   5.403   2.060   5.180  0.1981  0.1212 -0.0639
  698loPI   PO410488   5.309   2.489   5.730 -0.3442 -0.3092 -0.0462
  698loPI   GL110489   5.504   2.567   6.071  0.2398  0.2200  0.1235
  698loPI   GL210490   5.620   2.322   6.098 -0.1346 -0.1786  0.2846
  698loPI   C1A10491   5.477   2.879   6.364  0.2517 -0.0714  0.1812
  698loPI   C2A10492   5.472   2.912   6.808  0.0364  0.0581 -0.0559
  698loPI   C3A10493   5.405   2.885   7.253 -0.0112  0.2567 -0.0936
  698loPI   C4A10494   5.327   2.907   7.684 -0.1432  0.0306  0.1238
  698loPI   C5A10495   5.284   3.107   7.965  0.0018  0.2743 -0.2015
  698loPI   C6A10496   5.477   3.314   8.369  0.1062 -0.1020 -0.0962
  698loPI   C1B10497   5.696   2.448   6.519  0.0845 -0.0836 -0.1707
  698loPI   C2B10498   5.644   2.486   6.966 -0.2571  0.1585 -0.0423
  698loPI   C3B10499   5.665   2.441   7.424  0.0526 -0.2246  0.1024
  698loPI   C4B10500   5.657   2.359   7.786  0.0470  0.0165  0.0721
  699loPI    C110501  16.613  13.481   5.737  0.0441  0.2021  0.0853
  699loPI    C210502  16.509  13.256   5.423  0.0664 -0.1273  0.3086
  699loPI    C310503  16.636  13.631   5.367 -0.0814 -0.1280 -0.0606
  699loPI   PO410504  16.774  13.308   5.840 -0.1032 -0.1512  0.0129
  699loPI   GL110505  17.122  13.354   6.108  0.0527  0.0454  0.1458
  699loPI   GL210506  17.403  13.197   6.149  0.0783 -0.0735 -0.3796
  699loPI   C1A10507  16.981  13.379   6.543 -0.0572  0.3912 -0.2666
  699loPI   C2A10508  17.070  13.423   7.016  0.0247  0.0534  0.2053
  699loPI   C3A10509  17.024  13.405   7.390  0.1314 -0.1425  0.0553
  699loPI   C4A10510  17.136  13.487   7.781  0.0879  0.1158 -0.1406
  699loPI   C5A10511  16.988  13.477   8.191  0.1319  0.0501  0.0850
  699loPI   C6A10512  17.057  13.569   8.588 -0.0770 -0.1700 -0.0093
  699loPI   C1B10513  17.538  13.045   6.546  0.0443 -0.1744 -0.1225
  699loPI   C2B10514  17.470  13.164   6.998  0.2446 -0.0101  0.0022
  699loPI   C3B10515  17.527  13.060   7.404  0.1364 -0.3470 -0.4377
  699loPI   C4B10516  17.579  13.240   7.794 -0.0321 -0.3292 -0.0539
  700loPI    C110517   9.045   8.819   5.432  0.0849  0.0106  0.0158
  700loPI    C210518   9.356   8.939   5.652  0.0708 -0.0482  0.0683
  700loPI    C310519   9.253   9.143   5.323  0.1419 -0.0075  0.0710
  700loPI   PO410520   8.880   8.849   5.633 -0.0445  0.2115  0.1225
  700loPI   GL110521   9.004   8.960   6.083  0.0295 -0.2422  0.0500
  700loPI   GL210522   8.779   9.114   6.135  0.2802 -0.2049  0.1285
  700loPI   C1A10523   9.120   8.634   6.328 -0.0169  0.1388  0.1575
  700loPI   C2A10524   9.047   8.653   6.696  0.1518  0.0546  0.1733
  700loPI   C3A10525   9.069   8.549   7.117 -0.0788  0.0615  0.1699
  700loPI   C4A10526   9.038   8.433   7.490 -0.0811 -0.1738  0.1600
  700loPI   C5A10527   8.905   8.447   7.922  0.2438  0.1225  0.0095
  700loPI   C6A10528   9.135   8.726   8.192  0.1283 -0.1608  0.0824
  700loPI   C1B10529   9.050   9.121   6.568  0.0391 -0.0968  0.0926
  700loPI   C2B10530   9.092   9.114   6.932 -0.0762 -0.1034  0.0821
  700loPI   C3B10531   9.137   8.989   7.358  0.2599 -0.1278  0.2296
  700loPI   C4B10532   9.160   9.166   7.650 -0.2244  0.2893 -0.0228
  701loPI    C110533  12.038   1.264   5.483  0.0498 -0.1988 -0.0630
  701loPI    C210534  12.091   1.493   5.159  0.1115 -0.1056  0.0125
  701loPI    C310535  11.750   1.289   5.207  0.0765 -0.0689 -0.0795
  701loPI   PO410536  12.183   1.134   5.553 -0.0345  0.1552 -0.0330
  701loPI   GL110537  12.153   0.924   5.860  0.1666 -0.0059  0.6694
  701loPI   GL210538  12.381   0.922   6.030  0.0465  0.2582 -0.2303
  701loPI   C1A10539  11.760   0.747   6.008 -0.0334 -0.0358  0.2948
  701loPI   C2A10540  11.639   0.312   6.181  0.0092  0.0544  0.0793
  701loPI   C3A10541  11.627   0.264   6.609  0.0497 -0.1783 -0.0437
  701loPI   C4A10542  11.771   0.312   7.035 -0.1691 -0.1208  0.1403
  701loPI   C5A10543  11.774   0.401   7.401  0.2883 -0.0267 -0.1457
  701loPI   C6A10544  11.972   0.614   7.702 -0.2164  0.2877  0.0580
  701loPI   C1B10545  12.064   1.115   6.290 -0.1993 -0.1550  0.0065
  701loPI   C2B10546  11.775   0.872   6.481  0.0491  0.0162 -0.0438
  701loPI   C3B10547  11.406   0.782   6.768  0.0312  0.0830  0.0420
  701loPI   C4B10548  11.320   0.704   7.224  0.0272 -0.0194  0.1040
  702loPI    C110549   9.626   1.878   5.364 -0.0381  0.0454  0.3105
  702loPI    C210550   9.322   1.683   5.536 -0.0808 -0.0985  0.0762
  702loPI    C310551   9.645   1.481   5.413 -0.0756 -0.0062 -0.0634
  702loPI   PO410552   9.695   2.047   5.476  0.2828 -0.1918 -0.1736
  702loPI   GL110553   9.812   2.427   5.778 -0.0880  0.2357 -0.0588
  702loPI   GL210554   9.549   2.226   5.984  0.1572 -0.0826 -0.1830
  702loPI   C1A10555   9.950   2.522   6.182  0.0254  0.0930  0.3049
  702loPI   C2A10556   9.956   2.608   6.580  0.0114  0.1081  0.1585
  702loPI   C3A10557   9.960   2.561   7.027 -0.3049  0.0662 -0.0880
  702loPI   C4A10558   9.830   2.569   7.466 -0.3388 -0.1361 -0.2999
  702loPI   C5A10559   9.585   2.554   7.885 -0.0627 -0.2387  0.1112
  702loPI   C6A10560   9.668   2.600   8.261  0.1147  0.1034  0.0299
  702loPI   C1B10561   9.608   2.298   6.436  0.0521  0.3356 -0.1115
  702loPI   C2B10562   9.572   2.259   6.851 -0.0284  0.0575 -0.1102
  702loPI   C3B10563   9.438   2.258   7.264  0.1506  0.0791 -0.0226
  702loPI   C4B10564   9.333   2.133   7.711  0.1774 -0.0460 -0.1897
  703loPI    C110565  14.419  13.375   5.640  0.0580 -0.1417  0.0178
  703loPI    C210566  14.304  13.092   5.381  0.0382 -0.0839 -0.0368
  703loPI    C310567  14.462  13.435   5.247  0.0080 -0.0448  0.0268
  703loPI   PO410568  14.254  13.368   5.844 -0.1298  0.2460 -0.1394
  703loPI   GL110569  14.257  13.308   6.333  0.2277 -0.0046  0.1204
  703loPI   GL210570  14.543  13.099   6.460 -0.1496 -0.0569 -0.0788
  703loPI   C1A10571  14.281  13.345   6.802 -0.1123  0.2067  0.1552
  703loPI   C2A10572  14.303  13.437   7.312  0.0764  0.2305 -0.0947
  703loPI   C3A10573  14.302  13.505   7.795 -0.0228  0.0114 -0.1194
  703loPI   C4A10574  13.947  13.535   8.072 -0.1089  0.0435  0.2143
  703loPI   C5A10575  13.617  13.350   8.268 -0.1045  0.1048 -0.1975
  703loPI   C6A10576  13.307  13.238   8.561  0.1357 -0.1516  0.0970
  703loPI   C1B10577  14.716  13.071   6.837  0.0354  0.3813  0.1823
  703loPI   C2B10578  14.718  13.130   7.305 -0.0568 -0.2389  0.2976
  703loPI   C3B10579  14.701  13.267   7.675  0.2510  0.1028  0.2826
  703loPI   C4B10580  14.688  13.303   8.191 -0.0919  0.0864  0.0370
  704loPI    C110581   9.432  11.544   5.728 -0.1601 -0.0002 -0.1089
  704loPI    C210582   9.380  11.784   5.413  0.0519  0.2473  0.0406
  704loPI    C310583   9.072  11.574   5.556 -0.1117  0.3486 -0.1573
  704loPI   PO410584   9.630  11.672   5.944 -0.1675 -0.1078 -0.0222
  704loPI   GL110585   9.808  11.952   6.241  0.0485  0.0927  0.1026
  704loPI   GL210586   9.453  12.006   6.251  0.0285  0.2343 -0.1869
  704loPI   C1A10587   9.948  12.128   6.568 -0.1806  0.0115  0.0496
  704loPI   C2A10588  10.307  11.976   6.755 -0.2719  0.1928  0.0562
  704loPI   C3A10589  10.555  12.133   7.144 -0.2034  0.2285 -0.0870
  704loPI   C4A10590  10.789  12.191   7.462  0.0867  0.0364  0.1265
  704loPI   C5A10591  10.855  12.448   7.766 -0.1225 -0.0175 -0.1951
  704loPI   C6A10592  10.785  12.786   7.988 -0.0598 -0.2281  0.1938
  704loPI   C1B10593   9.485  11.944   6.652 -0.2126 -0.4284 -0.0522
  704loPI   C2B10594   9.567  11.852   7.060 -0.1918 -0.1298  0.0288
  704loPI   C3B10595   9.822  11.753   7.382 -0.1832 -0.0553 -0.1007
  704loPI   C4B10596  10.248  11.681   7.391  0.1265  0.0817 -0.0102
  705loPI    C110597   1.699   9.680   5.383  0.2034  0.0873 -0.0298
  705loPI    C210598   1.311   9.774   5.407  0.2300  0.2426 -0.1867
  705loPI    C310599   1.454   9.597   5.078  0.2250 -0.1442  0.0145
  705loPI   PO410600   1.711   9.595   5.607 -0.2390 -0.3596  0.0557
  705loPI   GL110601   1.680   9.269   5.873  0.2037 -0.0760  0.1376
  705loPI   GL210602   1.409   9.145   5.968 -0.0041  0.1429  0.1200
  705loPI   C1A10603   1.937   9.387   6.329  0.0845  0.6097  0.0850
  705loPI   C2A10604   1.754   9.610   6.546 -0.1405  0.2536 -0.2289
  705loPI   C3A10605   1.736   9.660   7.015 -0.0029 -0.0680 -0.2749
  705loPI   C4A10606   1.615   9.504   7.440  0.1659  0.0107 -0.2737
  705loPI   C5A10607   1.764   9.212   7.739 -0.0420  0.1418  0.0934
  705loPI   C6A10608   1.732   8.829   7.991 -0.1385 -0.2045 -0.0313
  705loPI   C1B10609   1.538   9.109   6.364  0.1465 -0.1691  0.3038
  705loPI   C2B10610   1.658   9.130   6.797 -0.1832  0.2252 -0.0037
  705loPI   C3B10611   1.718   8.997   7.251 -0.1162 -0.3757 -0.3868
  705loPI   C4B10612   1.644   8.794   7.498 -0.0221 -0.2816  0.3668
  706loPI    C110613   9.576   7.453   5.155 -0.1213 -0.1520 -0.0005
  706loPI    C210614   9.904   7.561   4.952 -0.0209 -0.3170  0.0715
  706loPI    C310615   9.545   7.578   4.777 -0.0226  0.2234  0.1112
  706loPI   PO410616   9.548   7.585   5.446  0.3360  0.0977  0.2536
  706loPI   GL110617   9.610   7.393   5.811 -0.2443  0.2959 -0.2220
  706loPI   GL210618   9.498   7.649   5.939  0.1007 -0.0494  0.1773
  706loPI   C1A10619   9.592   7.271   6.231 -0.2969  0.0018 -0.1490
  706loPI   C2A10620   9.707   7.259   6.600  0.2602 -0.1425 -0.1192
  706loPI   C3A10621   9.649   7.145   7.017  0.1633  0.0825  0.2112
  706loPI   C4A10622   9.618   7.062   7.438 -0.0442  0.1624  0.0665
  706loPI   C5A10623   9.652   7.179   7.853 -0.2019  0.2807 -0.1233
  706loPI   C6A10624   9.816   7.057   8.214 -0.0075 -0.2251 -0.0609
  706loPI   C1B10625   9.519   7.756   6.294  0.0757 -0.0707  0.1475
  706loPI   C2B10626   9.592   7.772   6.751 -0.1881  0.1195 -0.0653
  706loPI   C3B10627   9.527   7.706   7.162 -0.3385 -0.1315 -0.2250
  706loPI   C4B10628   9.328   7.559   7.406 -0.5013  0.0543 -0.1824
  707loPI    C110629  17.441   0.883   5.497 -0.0925 -0.3140  0.0037
  707loPI    C210630  17.537   0.709   5.149  0.0203  0.0377 -0.1457
  707loPI    C310631  17.356   1.066   5.151  0.0905  0.0745  0.1588
  707loPI   PO410632  17.298   0.675   5.644 -0.1384  0.3566  0.1170
  707loPI   GL110633  17.183   0.673   6.017 -0.0706 -0.0236 -0.1512
  707loPI   GL210634  17.513   0.466   6.009  0.0974 -0.1168 -0.3537
  707loPI   C1A10635  17.091   0.753   6.513  0.0620  0.2056 -0.2361
  707loPI   C2A10636  17.104   0.842   6.935  0.1918 -0.1418  0.3053
  707loPI   C3A10637  17.065   0.829   7.293 -0.2664 -0.1297 -0.1002
  707loPI   C4A10638  17.179   0.784   7.660 -0.0611 -0.0685  0.1446
  707loPI   C5A10639  17.091   0.779   8.093 -0.2695 -0.4363 -0.3536
  707loPI   C6A10640  17.106   1.057   8.391  0.3158  0.3954 -0.3295
  707loPI   C1B10641  17.631   0.588   6.401 -0.0481  0.3048  0.1667
  707loPI   C2B10642  17.502   0.594   6.772  0.1312 -0.0643  0.0019
  707loPI   C3B10643  17.502   0.616   7.153 -0.0643 -0.0298  0.1974
  707loPI   C4B10644  17.640   0.568   7.552  0.0883  0.0749 -0.1757
  708loPI    C110645   3.547   6.161   5.226  0.2787  0.0606  0.0117
  708loPI    C210646   3.699   6.471   5.026  0.1806 -0.0334 -0.2123
  708loPI    C310647   3.933   6.162   5.123  0.2322  0.0198 -0.1660
  708loPI   PO410648   3.460   6.238   5.401 -0.0139  0.0175  0.1419
  708loPI   GL110649   3.175   6.249   5.656  0.1139 -0.2595  0.0513
  708loPI   GL210650   3.392   6.414   5.851 -0.1834  0.0741  0.0726
  708loPI   C1A10651   3.058   5.993   6.000  0.0789  0.1585 -0.0554
  708loPI   C2A10652   3.034   5.922   6.432  0.1288 -0.0847 -0.1934
  708loPI   C3A10653   2.870   5.932   6.813 -0.1872  0.0793  0.3092
  708loPI   C4A10654   2.927   5.828   7.251 -0.2111  0.3382 -0.3492
  708loPI   C5A10655   2.910   5.802   7.691 -0.0942 -0.1184 -0.3300
  708loPI   C6A10656   3.170   5.993   8.048 -0.1174 -0.1159  0.0049
  708loPI   C1B10657   3.195   6.448   6.265 -0.0052  0.0542 -0.0978
  708loPI   C2B10658   3.143   6.427   6.716 -0.1258  0.1076  0.2026
  708loPI   C3B10659   3.174   6.357   7.219  0.3257  0.0993  0.0804
  708loPI   C4B10660   3.294   6.316   7.527  0.0214  0.0441 -0.0498
  709loPI    C110661  15.998  12.316   5.797 -0.1240 -0.0783  0.0274
  709loPI    C210662  15.884  12.478   5.449 -0.3885 -0.3210 -0.0027
  709loPI    C310663  16.047  12.113   5.456  0.0623 -0.1254  0.0812
  709loPI   PO410664  16.143  12.567   5.918 -0.0317 -0.3998  0.0207
  709loPI   GL110665  16.014  12.728   6.319 -0.0370  0.0460  0.5374
  709loPI   GL210666  16.104  12.346   6.397 -0.1987 -0.1734  0.0017
  709loPI   C1A10667  15.687  12.577   6.594 -0.1056  0.1886 -0.1467
  709loPI   C2A10668  15.562  12.517   6.994  0.0308 -0.3640 -0.2950
  709loPI   C3A10669  15.528  12.662   7.425 -0.1236 -0.0341 -0.0628
  709loPI   C4A10670  15.500  12.666   7.851 -0.1678  0.0024 -0.1143
  709loPI   C5A10671  15.582  12.701   8.205  0.0318  0.1558  0.2195
  709loPI   C6A10672  15.355  12.908   8.570  0.0464  0.3090 -0.0249
  709loPI   C1B10673  16.060  12.334   6.845  0.0840  0.2381 -0.3470
  709loPI   C2B10674  15.992  12.319   7.242 -0.0440 -0.2287  0.1222
  709loPI   C3B10675  15.932  12.376   7.659  0.1027  0.0017 -0.1850
  709loPI   C4B10676  16.078  12.486   8.080 -0.1601 -0.0985 -0.1531
  710loPI    C110677  14.563  17.937   5.556 -0.1632  0.1027  0.0324
  710loPI    C210678  14.546  18.159   5.224  0.1081 -0.0709 -0.1015
  710loPI    C310679  14.312  17.836   5.262  0.0942 -0.0648 -0.1339
  710loPI   PO410680  14.799  17.992   5.682 -0.0497 -0.0045  0.0397
  710loPI   GL110681  14.990  17.715   5.865 -0.1517 -0.1354 -0.2041
  710loPI   GL210682  14.877  17.464   5.843 -0.0116  0.0006 -0.1489
  710loPI   C1A10683  14.990  17.976   6.305  0.0334 -0.2972  0.0554
  710loPI   C2A10684  14.993  17.991   6.741 -0.0985 -0.0499  0.2836
  710loPI   C3A10685  14.991  18.025   7.205 -0.2298  0.0395  0.1392
  710loPI   C4A10686  15.005  18.033   7.696  0.2041  0.2202 -0.2578
  710loPI   C5A10687  15.104  18.147   8.081 -0.0890  0.1388  0.1013
  710loPI   C6A10688  15.357  18.374   8.375  0.2050  0.2332  0.0074
  710loPI   C1B10689  14.940  17.400   6.280 -0.2431  0.0134 -0.1426
  710loPI   C2B10690  14.946  17.430   6.801 -0.0859  0.0800 -0.0055
  710loPI   C3B10691  15.016  17.553   7.153 -0.0728  0.0467  0.1125
  710loPI   C4B10692  15.020  17.554   7.555  0.2591  0.1544  0.1267
  711loPI    C110693   0.466   6.892   4.696 -0.1360 -0.0911 -0.0277
  711loPI    C210694   0.487   7.116   4.366 -0.0858  0.0930  0.0987
  711loPI    C310695   0.300   6.763   4.356 -0.0039  0.0543 -0.1489
  711loPI   PO410696   0.291   7.041   4.862 -0.0772  0.0105  0.0050
  711loPI   GL110697   0.323   7.216   5.342  0.0615 -0.2398 -0.1574
  711loPI   GL210698   0.471   7.487   5.455  0.2311  0.1244 -0.0026
  711loPI   C1A10699   0.155   7.079   5.711 -0.0739  0.1417 -0.0604
  711loPI   C2A10700   0.064   7.082   6.143  0.0635 -0.0840 -0.1025
  711loPI   C3A10701  -0.044   7.071   6.495  0.1575 -0.2110  0.0419
  711loPI   C4A10702  -0.137   7.206   6.864 -0.1280  0.0688  0.0847
  711loPI   C5A10703  -0.227   7.025   7.235  0.0848  0.0881 -0.1533
  711loPI   C6A10704  -0.497   6.786   7.368  0.0066  0.0587 -0.0953
  711loPI   C1B10705   0.421   7.745   5.848  0.3196 -0.2111 -0.1985
  711loPI   C2B10706   0.289   7.675   6.127  0.3848  0.2741 -0.0674
  711loPI   C3B10707   0.259   7.600   6.547  0.2701 -0.3776  0.1563
  711loPI   C4B10708   0.271   7.512   7.023  0.2296 -0.0993 -0.2421
  712loPI    C110709  15.792   8.775   5.257 -0.0943  0.1226  0.0691
  712loPI    C210710  15.799   8.376   5.235 -0.0331  0.1236  0.0685
  712loPI    C310711  15.451   8.572   5.203 -0.0502  0.0767 -0.0390
  712loPI   PO410712  15.908   8.952   5.543 -0.2240  0.5222  0.0084
  712loPI   GL110713  16.018   9.084   5.942  0.0356  0.1794  0.3305
  712loPI   GL210714  16.195   8.830   5.981 -0.0324 -0.0157 -0.0359
  712loPI   C1A10715  16.001   9.192   6.322 -0.0666  0.0757  0.0648
  712loPI   C2A10716  16.054   9.144   6.736 -0.1583 -0.0249  0.2007
  712loPI   C3A10717  16.030   9.202   7.170  0.1636 -0.1058 -0.2524
  712loPI   C4A10718  15.981   8.932   7.514 -0.1834 -0.1985  0.0482
  712loPI   C5A10719  15.931   8.713   7.961  0.1968  0.0778  0.0257
  712loPI   C6A10720  15.774   8.671   8.357  0.1212 -0.3698 -0.1361
  712loPI   C1B10721  15.801   8.693   6.276 -0.1162 -0.1901 -0.0150
  712loPI   C2B10722  15.614   8.898   6.603  0.0813  0.1334  0.2372
  712loPI   C3B10723  15.634   8.909   7.008  0.1668  0.5573 -0.2521
  712loPI   C4B10724  15.490   8.881   7.383  0.1501  0.0114 -0.2654
  713loPI    C110725  11.745   3.360   4.860  0.0844  0.0271  0.0499
  713loPI    C210726  11.894   3.125   4.573  0.1609  0.0708  0.0534
  713loPI    C310727  11.936   3.522   4.548  0.1024  0.0793  0.0878
  713loPI   PO410728  11.824   3.257   5.135  0.0331 -0.0500  0.0599
  713loPI   GL110729  11.724   3.396   5.562 -0.1295 -0.0759 -0.0373
  713loPI   GL210730  11.718   3.184   5.833  0.2540  0.1709 -0.2559
  713loPI   C1A10731  11.613   3.649   5.947 -0.2267  0.2391 -0.1322
  713loPI   C2A10732  11.719   3.652   6.403  0.0886  0.4686  0.2533
  713loPI   C3A10733  11.678   3.627   6.817 -0.1226 -0.2199 -0.1244
  713loPI   C4A10734  11.663   3.651   7.178  0.0869 -0.4690 -0.0363
  713loPI   C5A10735  11.814   3.620   7.613  0.0770  0.1303 -0.2064
  713loPI   C6A10736  11.730   3.689   8.069  0.1107  0.2386 -0.1232
  713loPI   C1B10737  11.777   3.145   6.238 -0.1474 -0.1254 -0.1410
  713loPI   C2B10738  11.756   3.174   6.596 -0.3354  0.2772  0.2666
  713loPI   C3B10739  11.653   3.133   6.931 -0.0623  0.0942 -0.0993
  713loPI   C4B10740  11.751   3.219   7.292 -0.0683 -0.0562  0.0714
  714loPI    C110741   3.694   4.363   5.353  0.1025  0.0121  0.0980
  714loPI    C210742   3.425   4.274   5.635  0.1334  0.1036  0.1570
  714loPI    C310743   3.322   4.260   5.249  0.1300 -0.1580  0.1651
  714loPI   PO410744   3.789   4.618   5.442  0.0784  0.0145 -0.2019
  714loPI   GL110745   3.627   4.695   5.876 -0.2566  0.3393 -0.2173
  714loPI   GL210746   3.400   4.824   5.727 -0.0594  0.2653 -0.0359
  714loPI   C1A10747   3.715   4.610   6.366 -0.1949 -0.1544  0.3416
  714loPI   C2A10748   3.712   4.613   6.789  0.1832 -0.0075  0.3275
  714loPI   C3A10749   3.600   4.472   7.169 -0.0505 -0.3002 -0.1607
  714loPI   C4A10750   3.530   4.301   7.579  0.1011  0.0991  0.2293
  714loPI   C5A10751   3.616   4.295   8.005  0.0672 -0.0332  0.5554
  714loPI   C6A10752   3.682   3.999   8.318  0.0276  0.0816 -0.0475
  714loPI   C1B10753   3.069   4.974   6.128  0.0266 -0.2151  0.0686
  714loPI   C2B10754   2.921   5.016   6.454  0.2073 -0.1104 -0.3299
  714loPI   C3B10755   2.943   5.018   6.909 -0.1637  0.5115  0.0225
  714loPI   C4B10756   2.658   4.787   7.256 -0.1171  0.2406  0.1761
  715loPI    C110757  15.228   7.356   5.246 -0.1408  0.0848  0.0578
  715loPI    C210758  15.302   7.598   4.936  0.1329  0.1292  0.1553
  715loPI    C310759  15.083   7.729   5.244 -0.1135  0.0952 -0.0029
  715loPI   PO410760  15.419   7.266   5.349 -0.1825  0.1028 -0.2590
  715loPI   GL110761  15.557   7.203   5.786 -0.0379 -0.2037  0.0921
  715loPI   GL210762  15.793   6.995   5.646  0.0192  0.1201 -0.2727
  715loPI   C1A10763  15.532   7.335   6.195  0.1890  0.4774 -0.1889
  715loPI   C2A10764  15.616   7.277   6.618 -0.0973  0.0621 -0.0693
  715loPI   C3A10765  15.648   7.196   7.121 -0.3061 -0.1362 -0.0597
  715loPI   C4A10766  15.697   7.162   7.573 -0.0211 -0.0893  0.0205
  715loPI   C5A10767  16.049   7.020   7.903 -0.0430  0.1885  0.0309
  715loPI   C6A10768  16.410   6.791   8.138 -0.4312 -0.2124  0.1068
  715loPI   C1B10769  15.944   6.877   6.073 -0.1695  0.2272  0.0818
  715loPI   C2B10770  16.100   6.657   6.447  0.0882 -0.0414 -0.2275
  715loPI   C3B10771  16.066   6.531   6.862 -0.0847 -0.1074  0.0538
  715loPI   C4B10772  16.064   6.300   7.198 -0.1647 -0.3998 -0.0142
  716loPI    C110773  14.827   8.860   4.988  0.0900  0.0862  0.2185
  716loPI    C210774  14.457   8.883   5.138 -0.0464 -0.0996 -0.0779
  716loPI    C310775  14.612   9.194   4.940 -0.0115  0.0071  0.1145
  716loPI   PO410776  14.961   8.809   5.209 -0.0575  0.1126 -0.0421
  716loPI   GL110777  14.892   9.051   5.681 -0.0100 -0.1401 -0.2625
  716loPI   GL210778  14.686   9.093   5.494  0.0519  0.1144 -0.1064
  716loPI   C1A10779  14.785   8.975   6.179  0.3793 -0.1294  0.0020
  716loPI   C2A10780  14.676   9.009   6.575  0.0711  0.0432  0.2191
  716loPI   C3A10781  14.662   8.929   6.925 -0.3031  0.0581 -0.2505
  716loPI   C4A10782  14.576   8.856   7.309  0.2361  0.0122  0.4247
  716loPI   C5A10783  14.406   8.875   7.699 -0.1849  0.0056  0.0145
  716loPI   C6A10784  14.439   8.881   8.161  0.2228  0.0381 -0.1925
  716loPI   C1B10785  14.401   8.810   5.690 -0.0756 -0.0992  0.0608
  716loPI   C2B10786  14.241   8.668   6.167 -0.1319  0.0119 -0.0915
  716loPI   C3B10787  14.145   8.692   6.584  0.2213  0.2163  0.1283
  716loPI   C4B10788  14.223   8.637   6.972 -0.1112  0.0327 -0.3031
  717loPI    C110789   2.002  14.196   5.299 -0.0446 -0.0724  0.0033
  717loPI    C210790   2.343  14.367   5.179 -0.0019 -0.1666 -0.0108
  717loPI    C310791   2.048  14.304   4.916  0.0239 -0.2129 -0.0288
  717loPI   PO410792   2.117  14.240   5.645  0.3845  0.1181  0.0240
  717loPI   GL110793   2.191  14.257   5.975  0.3247 -0.0299  0.1165
  717loPI   GL210794   2.333  14.461   6.045 -0.0930  0.0298 -0.2275
  717loPI   C1A10795   2.226  14.053   6.348 -0.2974 -0.1173  0.1212
  717loPI   C2A10796   2.208  13.877   6.685  0.2025 -0.0183 -0.3101
  717loPI   C3A10797   2.058  13.719   7.023  0.0730  0.1117 -0.2992
  717loPI   C4A10798   2.096  13.456   7.462 -0.5434 -0.0572  0.2268
  717loPI   C5A10799   2.042  13.431   7.965 -0.4327 -0.1044 -0.2530
  717loPI   C6A10800   1.903  13.556   8.307  0.0307  0.0809  0.1223
  717loPI   C1B10801   1.968  14.504   6.369  0.1455  0.1636  0.2821
  717loPI   C2B10802   2.033  14.374   6.792 -0.2303  0.0694 -0.1812
  717loPI   C3B10803   1.868  14.343   7.281  0.1297 -0.0518  0.1512
  717loPI   C4B10804   1.940  14.371   7.707 -0.0291 -0.1134 -0.0439
  718loPI    C110805   5.462   6.613   5.631 -0.3062 -0.0112 -0.0383
  718loPI    C210806   5.390   6.511   5.251 -0.2026 -0.1634 -0.0178
  718loPI    C310807   5.383   6.232   5.538 -0.1420 -0.0730  0.0722
  718loPI   PO410808   5.384   6.772   5.717  0.2646 -0.2424  0.0297
  718loPI   GL110809   5.500   6.977   6.135 -0.2429  0.2488  0.1755
  718loPI   GL210810   5.214   7.276   6.123  0.1277  0.2323  0.1471
  718loPI   C1A10811   5.441   7.012   6.527  0.2309 -0.0082  0.0001
  718loPI   C2A10812   5.469   6.915   7.057  0.2947 -0.1731 -0.0953
  718loPI   C3A10813   5.444   6.881   7.442  0.0032  0.1019  0.0054
  718loPI   C4A10814   5.891   6.982   7.656 -0.0359 -0.0898 -0.3257
  718loPI   C5A10815   6.324   7.275   7.747 -0.0120  0.0722  0.2626
  718loPI   C6A10816   6.714   7.460   7.770 -0.0615  0.0050  0.1841
  718loPI   C1B10817   5.125   7.460   6.592 -0.2909 -0.1341 -0.2346
  718loPI   C2B10818   5.202   7.352   7.033  0.1138  0.2337  0.1147
  718loPI   C3B10819   5.218   7.470   7.507 -0.3206  0.2657  0.0134
  718loPI   C4B10820   5.371   7.226   7.810 -0.0454 -0.1629 -0.3567
  719loPI    C110821   5.127   9.556   5.459  0.1310 -0.0040 -0.0065
  719loPI    C210822   5.233   9.677   5.093  0.0114 -0.2971 -0.1418
  719loPI    C310823   5.285   9.295   5.200  0.0836 -0.2049  0.1638
  719loPI   PO410824   5.249   9.653   5.622  0.0088  0.3441  0.1428
  719loPI   GL110825   5.075   9.974   5.923  0.0252 -0.0999  0.0453
  719loPI   GL210826   5.195  10.199   5.744 -0.1218  0.3010  0.4552
  719loPI   C1A10827   5.054  10.015   6.369 -0.0964 -0.1259 -0.1612
  719loPI   C2A10828   4.936  10.022   6.756 -0.0511  0.2135  0.2170
  719loPI   C3A10829   4.912  10.050   7.169 -0.0953  0.0535  0.1741
  719loPI   C4A10830   4.884   9.975   7.657 -0.1511 -0.0372  0.0102
  719loPI   C5A10831   5.198   9.935   8.017  0.1503 -0.1317  0.0937
  719loPI   C6A10832   5.467   9.605   8.124 -0.1807 -0.2031 -0.0160
  719loPI   C1B10833   5.372  10.353   6.125  0.2528 -0.2209  0.1392
  719loPI   C2B10834   5.413  10.348   6.629  0.0930 -0.0077 -0.0400
  719loPI   C3B10835   5.420  10.301   7.072 -0.0371 -0.2289 -0.0937
  719loPI   C4B10836   5.330  10.248   7.486  0.1981 -0.2482  0.1878
  720loPI    C110837   7.234  17.802   5.620  0.1949 -0.3949 -0.3230
  720loPI    C210838   7.448  18.139   5.642 -0.1657 -0.1855  0.1430
  720loPI    C310839   7.174  18.095   5.354  0.0805 -0.2058 -0.0922
  720loPI   PO410840   7.203  17.762   5.888  0.3408  0.2203 -0.0399
  720loPI   GL110841   7.195  17.585   6.333 -0.0770 -0.0208 -0.0443
  720loPI   GL210842   7.290  17.938   6.414  0.0768  0.3529 -0.3207
  720loPI   C1A10843   7.429  17.419   6.686  0.2439 -0.0383 -0.2913
  720loPI   C2A10844   7.589  17.229   7.100  0.0010 -0.2331  0.0879
  720loPI   C3A10845   7.483  17.108   7.477 -0.2716 -0.0161  0.0804
  720loPI   C4A10846   7.512  17.059   7.916  0.1515  0.2530  0.0212
  720loPI   C5A10847   7.742  16.935   8.235 -0.0907  0.1138  0.1014
  720loPI   C6A10848   7.870  16.624   8.561  0.2517  0.1499  0.0223
  720loPI   C1B10849   7.049  17.777   6.815 -0.1746  0.3930 -0.0954
  720loPI   C2B10850   6.883  17.868   7.204 -0.1086  0.0697  0.1095
  720loPI   C3B10851   6.928  17.843   7.642 -0.0781  0.1113  0.0140
  720loPI   C4B10852   7.087  17.945   8.059 -0.0376  0.1111  0.3285
  721loPI    C110853   9.655   8.531   5.817  0.1637 -0.2279 -0.0600
  721loPI    C210854   9.413   8.483   5.502  0.0530  0.1789 -0.0427
  721loPI    C310855   9.258   8.527   5.868  0.1755 -0.1091  0.0462
  721loPI   PO410856   9.807   8.641   5.705 -0.0386  0.1479  0.2535
  721loPI   GL110857  10.111   8.828   5.946  0.1517  0.1013 -0.1976
  721loPI   GL210858  10.335   9.011   5.968 -0.1280  0.1803 -0.2102
  721loPI   C1A10859  10.000   8.577   6.333  0.0442  0.1331 -0.0317
  721loPI   C2A10860  10.005   8.569   6.735 -0.4161 -0.2500  0.0791
  721loPI   C3A10861  10.035   8.510   7.137 -0.0900  0.1027 -0.0777
  721loPI   C4A10862  10.048   8.429   7.525 -0.0755  0.1098 -0.1037
  721loPI   C5A10863  10.222   8.435   7.947  0.0154  0.1537  0.0440
  721loPI   C6A10864  10.239   8.737   8.280  0.4108  0.0990 -0.2954
  721loPI   C1B10865  10.402   8.927   6.411  0.2214  0.1413  0.0132
  721loPI   C2B10866  10.398   8.808   6.913  0.0868  0.0831  0.0042
  721loPI   C3B10867  10.480   8.851   7.332 -0.0686 -0.0819 -0.1112
  721loPI   C4B10868  10.420   8.930   7.737  0.1208 -0.1225  0.0680
  722loPI    C110869  11.300   8.178   5.105 -0.0680 -0.2326  0.1212
  722loPI    C210870  11.277   8.529   4.914 -0.0280 -0.1227  0.3154
  722loPI    C310871  11.387   8.200   4.715 -0.1693 -0.0466  0.1077
  722loPI   PO410872  11.368   8.251   5.320 -0.0693 -0.2741 -0.1717
  722loPI   GL110873  11.388   7.958   5.705  0.1993  0.0660  0.1559
  722loPI   GL210874  11.457   8.049   5.936 -0.0920 -0.2522 -0.0630
  722loPI   C1A10875  10.987   8.106   5.846 -0.2952 -0.2170 -0.0513
  722loPI   C2A10876  10.940   8.120   6.187  0.0461 -0.0184 -0.2872
  722loPI   C3A10877  10.927   8.055   6.630  0.0197  0.0692 -0.0919
  722loPI   C4A10878  11.052   8.102   7.097 -0.0054  0.0562  0.1201
  722loPI   C5A10879  10.931   8.107   7.538  0.0665 -0.0595 -0.1246
  722loPI   C6A10880  10.607   8.131   7.892  0.2166  0.0795  0.2868
  722loPI   C1B10881  11.387   7.873   6.241 -0.2010  0.1083  0.0529
  722loPI   C2B10882  11.413   7.897   6.691  0.0854 -0.0447  0.2537
  722loPI   C3B10883  11.455   7.857   7.210 -0.0399 -0.0673 -0.1274
  722loPI   C4B10884  11.418   7.835   7.641  0.1188  0.0918 -0.0355
  723loPI    C110885   2.628   3.151   5.062  0.1121  0.2218  0.0509
  723loPI    C210886   2.268   3.078   4.902  0.1546 -0.1174  0.1034
  723loPI    C310887   2.464   3.414   4.808 -0.1061 -0.0041 -0.0468
  723loPI   PO410888   2.620   3.003   5.333  0.2045 -0.1831  0.1643
  723loPI   GL110889   2.438   2.801   5.689 -0.1071  0.0722 -0.2147
  723loPI   GL210890   2.089   2.869   5.804  0.1385 -0.1737 -0.2519
  723loPI   C1A10891   2.746   2.861   6.027  0.2468  0.1195  0.0372
  723loPI   C2A10892   2.744   2.856   6.481  0.0382 -0.1012  0.0550
  723loPI   C3A10893   2.741   2.803   6.934  0.0199 -0.3601 -0.1224
  723loPI   C4A10894   2.768   2.752   7.298  0.0363  0.1056 -0.1681
  723loPI   C5A10895   2.566   2.478   7.686 -0.2053  0.0644 -0.0037
  723loPI   C6A10896   2.194   2.510   7.960 -0.1321 -0.0886 -0.0183
  723loPI   C1B10897   2.253   2.686   6.244 -0.0512 -0.2162 -0.1459
  723loPI   C2B10898   2.200   2.583   6.621  0.1430 -0.0600 -0.0840
  723loPI   C3B10899   2.294   2.584   6.989  0.3472 -0.0479  0.0544
  723loPI   C4B10900   2.208   2.583   7.371 -0.0937 -0.0130  0.3011
  724loPI    C110901   0.398  14.850   5.820  0.0807 -0.0570  0.1433
  724loPI    C210902   0.641  15.100   6.017  0.1270 -0.1122  0.1566
  724loPI    C310903   0.763  14.928   5.677 -0.0663  0.2251 -0.0900
  724loPI   PO410904   0.396  14.560   6.013  0.3554 -0.0154 -0.2010
  724loPI   GL110905   0.241  14.269   6.320  0.2188  0.0504 -0.2319
  724loPI   GL210906   0.568  14.232   6.354 -0.1538 -0.3148  0.0114
  724loPI   C1A10907   0.212  14.204   6.831  0.3781 -0.2196 -0.2844
  724loPI   C2A10908   0.505  14.144   7.189  0.2907  0.1807 -0.1971
  724loPI   C3A10909   0.548  14.156   7.687  0.0888 -0.4239  0.1934
  724loPI   C4A10910   0.880  14.005   8.049 -0.0218 -0.2910  0.1731
  724loPI   C5A10911   0.936  14.036   8.458 -0.0451 -0.2509 -0.0172
  724loPI   C6A10912   0.970  14.126   8.919 -0.0069  0.0668 -0.1033
  724loPI   C1B10913   0.722  14.340   6.743  0.1539  0.1895 -0.2422
  724loPI   C2B10914   0.869  14.429   7.156 -0.1307  0.4014  0.2027
  724loPI   C3B10915   0.951  14.498   7.580  0.0782  0.1078 -0.0757
  724loPI   C4B10916   1.132  14.456   7.970 -0.2893 -0.2069  0.3610
  725loPI    C110917   8.833   3.312   5.477  0.2053  0.3077  0.1098
  725loPI    C210918   8.642   3.523   5.196 -0.1156 -0.1238 -0.0089
  725loPI    C310919   8.782   3.159   5.111  0.1778 -0.0813  0.2713
  725loPI   PO410920   8.778   3.469   5.720 -0.1662 -0.2079 -0.0767
  725loPI   GL110921   9.066   3.425   5.997 -0.2758 -0.4763  0.0965
  725loPI   GL210922   9.416   3.299   6.076 -0.3023  0.2316 -0.1265
  725loPI   C1A10923   9.187   3.568   6.379 -0.2016 -0.0790  0.0553
  725loPI   C2A10924   9.101   3.561   6.713  0.2856 -0.0044 -0.0770
  725loPI   C3A10925   8.894   3.515   7.130  0.1005  0.1439  0.1323
  725loPI   C4A10926   8.788   3.474   7.597 -0.1943  0.0536  0.2118
  725loPI   C5A10927   8.655   3.114   7.792 -0.0318  0.0624 -0.4205
  725loPI   C6A10928   8.659   2.614   7.879 -0.1258  0.2743 -0.1351
  725loPI   C1B10929   9.562   3.304   6.499 -0.0447 -0.1758 -0.0472
  725loPI   C2B10930   9.425   3.316   7.000 -0.0848  0.0394  0.0237
  725loPI   C3B10931   9.192   3.235   7.409  0.1331  0.1463  0.1270
  725loPI   C4B10932   9.112   3.331   7.863 -0.0473 -0.0379  0.0487
  726loPI    C110933  14.898  16.532   5.201 -0.0495 -0.2662  0.0778
  726loPI    C210934  15.213  16.776   5.166 -0.1745 -0.0669  0.3116
  726loPI    C310935  14.933  16.769   4.881  0.0684 -0.2893  0.0727
  726loPI   PO410936  15.012  16.281   5.369 -0.0106  0.2451 -0.0301
  726loPI   GL110937  14.915  16.331   5.789  0.2491  0.2016  0.3647
  726loPI   GL210938  14.836  16.655   5.733 -0.1694 -0.1124  0.0584
  726loPI   C1A10939  14.840  16.419   6.199 -0.2843  0.3186  0.3570
  726loPI   C2A10940  14.942  16.308   6.673 -0.1333 -0.1590  0.2200
  726loPI   C3A10941  15.022  16.435   7.036 -0.2363 -0.1144  0.0720
  726loPI   C4A10942  15.106  16.583   7.510  0.2641 -0.0083  0.1025
  726loPI   C5A10943  15.284  16.870   7.848  0.0586  0.0475 -0.2577
  726loPI   C6A10944  15.465  17.233   7.809  0.1088  0.2856 -0.0340
  726loPI   C1B10945  15.068  16.950   6.029  0.1677 -0.3742  0.0748
  726loPI   C2B10946  15.306  17.076   6.455  0.0208 -0.1328 -0.0033
  726loPI   C3B10947  15.396  17.192   6.895 -0.0228 -0.1887  0.1992
  726loPI   C4B10948  15.482  17.350   7.301 -0.1343  0.0594  0.1613
  727loPI    C110949   4.069  17.063   5.753  0.1160 -0.0370 -0.3431
  727loPI    C210950   4.068  17.455   5.672 -0.1276  0.0179 -0.0891
  727loPI    C310951   4.014  17.190   5.377  0.0290  0.1743 -0.2608
  727loPI   PO410952   4.314  17.074   5.955  0.0894  0.3835 -0.0420
  727loPI   GL110953   4.453  16.947   6.338 -0.0646  0.1207  0.0022
  727loPI   GL210954   4.693  17.212   6.256  0.2492  0.0992  0.2516
  727loPI   C1A10955   4.478  17.027   6.793 -0.0886 -0.2416  0.1219
  727loPI   C2A10956   4.550  17.082   7.097  0.4174 -0.1279 -0.0525
  727loPI   C3A10957   4.467  17.015   7.576  0.0565 -0.0184  0.1439
  727loPI   C4A10958   4.491  17.023   8.015 -0.1592 -0.1887 -0.1426
  727loPI   C5A10959   4.760  17.016   8.292 -0.4453 -0.2722  0.1925
  727loPI   C6A10960   5.010  17.278   8.469  0.0969 -0.0274  0.2726
  727loPI   C1B10961   4.897  17.409   6.646  0.1075  0.0914 -0.2981
  727loPI   C2B10962   4.851  17.418   7.060  0.2541  0.2188 -0.2162
  727loPI   C3B10963   4.759  17.465   7.506 -0.3184  0.3133 -0.2548
  727loPI   C4B10964   4.845  17.387   7.919 -0.2992  0.0159  0.0534
  728loPI    C110965   8.715  15.843   5.794 -0.1247 -0.0655 -0.0055
  728loPI    C210966   8.980  15.551   5.727 -0.0834 -0.0213 -0.0357
  728loPI    C310967   9.034  15.912   5.562 -0.0423  0.0544  0.1418
  728loPI   PO410968   8.661  15.839   6.020  0.1142 -0.0437  0.0710
  728loPI   GL110969   8.793  15.850   6.398  0.0091  0.0536  0.2499
  728loPI   GL210970   9.089  15.722   6.303 -0.3122  0.0130 -0.2157
  728loPI   C1A10971   8.629  15.662   6.803  0.0151  0.1135 -0.1740
  728loPI   C2A10972   8.709  15.303   7.097  0.1251  0.0449 -0.0655
  728loPI   C3A10973   8.821  14.986   7.314  0.0061  0.1968  0.0903
  728loPI   C4A10974   8.878  14.515   7.455 -0.2455  0.0022 -0.0356
  728loPI   C5A10975   8.828  14.380   7.892 -0.1391 -0.1716  0.1039
  728loPI   C6A10976   8.867  14.566   8.229 -0.2650 -0.3663  0.0621
  728loPI   C1B10977   9.177  15.644   6.756  0.4099 -0.1600  0.2524
  728loPI   C2B10978   9.324  15.788   7.180  0.0110 -0.0828  0.2504
  728loPI   C3B10979   9.280  15.922   7.454 -0.1267 -0.0081 -0.1793
  728loPI   C4B10980   9.299  15.934   7.849 -0.0424  0.0142 -0.1787
  729loPI    C110981  17.624  16.819   5.580 -0.0661 -0.2458 -0.2542
  729loPI    C210982  17.937  16.574   5.528  0.0961 -0.1247  0.1127
  729loPI    C310983  17.856  16.857   5.256  0.1752 -0.2947 -0.0903
  729loPI   PO410984  17.589  16.832   5.859  0.0049 -0.0145 -0.0613
  729loPI   GL110985  17.578  16.752   6.298 -0.3452  0.2120  0.1629
  729loPI   GL210986  17.245  16.749   6.262  0.1153  0.1528 -0.1043
  729loPI   C1A10987  17.865  16.708   6.648 -0.0584  0.1009 -0.0369
  729loPI   C2A10988  17.776  16.608   7.099  0.0937  0.1341 -0.4099
  729loPI   C3A10989  17.839  16.469   7.437  0.3211  0.2816 -0.0377
  729loPI   C4A10990  18.002  16.689   7.778  0.1642  0.3640  0.0635
  729loPI   C5A10991  18.050  16.852   8.214  0.1259  0.0091  0.0919
  729loPI   C6A10992  17.738  16.846   8.516 -0.2406 -0.0562 -0.3481
  729loPI   C1B10993  17.316  16.648   6.701  0.2703  0.0443  0.2965
  729loPI   C2B10994  17.262  16.722   7.194 -0.1616 -0.2033 -0.2702
  729loPI   C3B10995  17.030  16.586   7.542 -0.1014 -0.3014 -0.1278
  729loPI   C4B10996  16.572  16.449   7.636  0.0244 -0.1116 -0.1515
  730loPI    C110997   1.980   0.483   5.528  0.1746  0.1774  0.0774
  730loPI    C210998   1.861   0.101   5.527 -0.0172  0.2351  0.1814
  730loPI    C310999   1.949   0.285   5.182  0.0684  0.1002  0.1305
  730loPI   PO411000   1.832   0.609   5.711  0.1517 -0.2186 -0.0476
  730loPI   GL111001   1.597   0.799   5.863  0.3666  0.0120  0.0320
  730loPI   GL211002   1.302   0.691   6.065 -0.2301  0.3140  0.0822
  730loPI   C1A11003   1.646   0.979   6.275 -0.1678  0.1785  0.1313
  730loPI   C2A11004   1.635   1.186   6.636 -0.2439 -0.2104  0.0459
  730loPI   C3A11005   1.702   1.158   7.011 -0.2384 -0.0039 -0.0268
  730loPI   C4A11006   1.766   1.306   7.428 -0.0692 -0.4585  0.0499
  730loPI   C5A11007   1.886   1.367   7.873  0.2028  0.2771  0.0820
  730loPI   C6A11008   1.889   1.481   8.237 -0.1431  0.0316 -0.2727
  730loPI   C1B11009   1.252   0.629   6.505 -0.0519  0.1296  0.0371
  730loPI   C2B11010   1.344   0.596   6.885  0.1172  0.3076 -0.3028
  730loPI   C3B11011   1.218   0.470   7.379  0.0186  0.2458  0.2096
  730loPI   C4B11012   1.322   0.370   7.771 -0.0103 -0.0194  0.3528
  731loPI    C111013   3.932  16.685   5.472 -0.0317 -0.0684  0.0668
  731loPI    C211014   4.141  16.500   5.185  0.2032  0.0644  0.1500
  731loPI    C311015   3.840  16.744   5.087  0.1376 -0.0652  0.0261
  731loPI   PO411016   4.009  16.575   5.657  0.3370  0.5430 -0.0901
  731loPI   GL111017   4.097  16.580   6.059  0.1878 -0.3256 -0.2659
  731loPI   GL211018   3.766  16.457   6.209  0.3233  0.0245 -0.0968
  731loPI   C1A11019   4.165  16.611   6.456 -0.0381 -0.2210  0.0400
  731loPI   C2A11020   4.191  16.600   6.893 -0.1924 -0.2146  0.4153
  731loPI   C3A11021   4.160  16.603   7.383  0.0109  0.1841 -0.0181
  731loPI   C4A11022   4.093  16.682   7.738 -0.1785 -0.2433 -0.3003
  731loPI   C5A11023   4.031  16.373   8.028  0.4046  0.0091 -0.2035
  731loPI   C6A11024   4.103  16.034   8.358 -0.0631  0.0155  0.0100
  731loPI   C1B11025   3.714  16.606   6.636  0.2114 -0.2052  0.1872
  731loPI   C2B11026   3.743  16.600   7.061 -0.0143 -0.0894 -0.1930
  731loPI   C3B11027   3.680  16.435   7.545 -0.1605  0.0224 -0.0641
  731loPI   C4B11028   3.510  16.409   7.963  0.2587 -0.0699  0.0986
  732loPI    C111029   0.060   4.418   4.922  0.1529 -0.1967 -0.0305
  732loPI    C211030  -0.279   4.288   4.754  0.0616 -0.0696  0.0537
  732loPI    C311031   0.043   4.358   4.527 -0.0429  0.0446 -0.0611
  732loPI   PO411032   0.058   4.363   5.111  0.0113  0.1508  0.0195
  732loPI   GL111033  -0.011   4.268   5.560 -0.1139 -0.1366 -0.2842
  732loPI   GL211034  -0.052   3.945   5.801  0.0612 -0.1059  0.0467
  732loPI   C1A11035   0.194   4.349   5.926 -0.0204 -0.1788  0.3916
  732loPI   C2A11036   0.380   4.667   6.220  0.0380 -0.0030  0.0330
  732loPI   C3A11037   0.390   4.780   6.657  0.1223  0.2450  0.0922
  732loPI   C4A11038   0.447   4.686   7.115 -0.1834  0.3699  0.2323
  732loPI   C5A11039   0.343   4.625   7.498 -0.1620 -0.0845 -0.1387
  732loPI   C6A11040   0.457   4.303   7.824 -0.2231  0.1032 -0.3459
  732loPI   C1B11041  -0.159   3.983   6.245 -0.1967  0.1380  0.1799
  732loPI   C2B11042  -0.422   3.680   6.577  0.0286 -0.2211  0.1258
  732loPI   C3B11043  -0.451   3.632   6.972  0.0065 -0.2565 -0.0643
  732loPI   C4B11044  -0.498   3.675   7.430  0.1779  0.0164 -0.0507
  733loPI    C111045  17.332   9.255   5.108 -0.0448  0.1576 -0.0492
  733loPI    C211046  17.285   9.636   4.998 -0.1644  0.0922 -0.2300
  733loPI    C311047  17.169   9.342   4.753 -0.3859 -0.0580  0.0496
  733loPI   PO411048  17.572   9.302   5.237 -0.4252  0.1869  0.0787
  733loPI   GL111049  17.589   9.053   5.571 -0.0608  0.1995 -0.2432
  733loPI   GL211050  17.303   9.179   5.779  0.1281 -0.2221 -0.2015
  733loPI   C1A11051  17.807   9.107   5.897 -0.0099  0.1221 -0.0667
  733loPI   C2A11052  17.878   9.187   6.435  0.0908 -0.0854 -0.0206
  733loPI   C3A11053  17.909   9.256   6.900  0.1052  0.2019 -0.0092
  733loPI   C4A11054  17.894   9.157   7.323  0.0442 -0.0962  0.3889
  733loPI   C5A11055  17.877   8.814   7.543  0.0626 -0.3144 -0.0007
  733loPI   C6A11056  17.955   8.735   7.988 -0.0079  0.0294  0.0251
  733loPI   C1B11057  17.433   9.398   6.174 -0.3271 -0.0284  0.1194
  733loPI   C2B11058  17.488   9.444   6.645  0.1414  0.0841  0.0226
  733loPI   C3B11059  17.446   9.458   7.047  0.1512 -0.3544 -0.0401
  733loPI   C4B11060  17.413   9.249   7.447  0.4203  0.0840  0.2127
  734loPI    C111061  13.330   8.884   5.167  0.3410 -0.1105 -0.0013
  734loPI    C211062  13.278   9.192   4.917  0.0962 -0.0194  0.1577
  734loPI    C311063  13.616   8.977   4.903 -0.0212 -0.1845 -0.4317
  734loPI   PO411064  13.297   8.967   5.419  0.0403  0.1448 -0.1653
  734loPI   GL111065  13.474   9.089   5.790  0.1428 -0.3822  0.0354
  734loPI   GL211066  13.491   9.444   5.757  0.0972  0.0798 -0.1186
  734loPI   C1A11067  13.356   8.885   6.070 -0.0144  0.0910 -0.0213
  734loPI   C2A11068  13.172   8.628   6.348 -0.3266  0.0375  0.1512
  734loPI   C3A11069  13.183   8.408   6.739  0.4826  0.0769  0.2113
  734loPI   C4A11070  13.314   8.500   7.113 -0.2604  0.1226  0.1727
  734loPI   C5A11071  13.472   8.466   7.543 -0.0379 -0.0142 -0.0617
  734loPI   C6A11072  13.486   8.240   7.880 -0.3101  0.1092 -0.2138
  734loPI   C1B11073  13.449   9.420   6.226  0.0954 -0.1244  0.2340
  734loPI   C2B11074  13.282   9.529   6.669 -0.0044  0.1538 -0.2027
  734loPI   C3B11075  13.517   9.830   6.961  0.1553  0.0879 -0.3469
  734loPI   C4B11076  13.733   9.916   7.195 -0.0617  0.1618 -0.2832
  735loPI    C111077   7.339  12.928   5.817  0.0160 -0.1749 -0.0387
  735loPI    C211078   7.683  13.002   5.627 -0.0571 -0.2560 -0.2046
  735loPI    C311079   7.554  12.625   5.667 -0.1257 -0.2261 -0.1409
  735loPI   PO411080   7.345  13.043   6.035 -0.0330  0.3352 -0.2557
  735loPI   GL111081   7.162  12.762   6.424 -0.0512 -0.2200 -0.0735
  735loPI   GL211082   6.929  13.025   6.438 -0.0699 -0.2021 -0.1661
  735loPI   C1A11083   7.172  12.776   6.836 -0.2869 -0.0166 -0.2310
  735loPI   C2A11084   7.393  12.807   7.280  0.1050  0.0994 -0.3185
  735loPI   C3A11085   7.526  12.899   7.690  0.2679  0.1072 -0.0720
  735loPI   C4A11086   7.616  12.860   8.160  0.0445 -0.1156  0.0365
  735loPI   C5A11087   7.507  12.763   8.529 -0.0100  0.0688 -0.1395
  735loPI   C6A11088   7.782  12.628   8.859  0.0877  0.1699  0.1548
  735loPI   C1B11089   6.712  12.929   6.823  0.1466  0.0857 -0.3457
  735loPI   C2B11090   6.689  12.912   7.297 -0.0726  0.1359  0.2987
  735loPI   C3B11091   6.958  13.024   7.622  0.0334 -0.2407  0.1382
  735loPI   C4B11092   7.150  12.820   7.954 -0.2524 -0.3291  0.0542
  736loPI    C111093  11.850   6.765   5.061  0.2573 -0.0206 -0.0213
  736loPI    C211094  12.004   6.982   5.360  0.0961 -0.0274  0.0676
  736loPI    C311095  12.246   6.809   5.094  0.2238  0.3694 -0.0813
  736loPI   PO411096  11.574   6.687   5.249  0.2061  0.2507  0.0420
  736loPI   GL111097  11.443   6.965   5.569  0.0093 -0.0088  0.1434
  736loPI   GL211098  11.395   7.287   5.571  0.0928  0.2792  0.0096
  736loPI   C1A11099  11.472   6.930   6.086 -0.2131  0.1491 -0.1059
  736loPI   C2A11100  11.480   6.848   6.469 -0.3974 -0.0013 -0.1173
  736loPI   C3A11101  11.559   6.887   6.928  0.1615  0.2617  0.1616
  736loPI   C4A11102  11.545   6.820   7.292  0.1252  0.5039  0.4547
  736loPI   C5A11103  11.558   6.652   7.682  0.0450  0.1843 -0.2153
  736loPI   C6A11104  11.369   6.491   8.079  0.2170 -0.1244  0.0870
  736loPI   C1B11105  11.418   7.388   5.964  0.0242 -0.0552 -0.0036
  736loPI   C2B11106  11.384   7.371   6.338 -0.1068 -0.0899  0.1280
  736loPI   C3B11107  11.501   7.401   6.794  0.1502  0.2368 -0.1156
  736loPI   C4B11108  11.436   7.401   7.298  0.1273 -0.2632 -0.1052
  737loPI    C111109   6.808   9.260   5.285  0.1455 -0.0829  0.2629
  737loPI    C211110   7.207   9.275   5.252  0.1094  0.0194 -0.1886
  737loPI    C311111   6.977   9.319   4.927 -0.2697 -0.1505  0.0497
  737loPI   PO411112   6.749   9.391   5.481 -0.1062 -0.0355  0.0997
  737loPI   GL111113   6.619   9.440   5.845  0.3929  0.0340 -0.1060
  737loPI   GL211114   6.297   9.263   5.927 -0.0781 -0.0606 -0.3749
  737loPI   C1A11115   6.661   9.674   6.161  0.0762  0.1283  0.0621
  737loPI   C2A11116   6.570   9.721   6.590 -0.3799 -0.1093 -0.0853
  737loPI   C3A11117   6.636   9.621   6.987  0.0726 -0.2458  0.2858
  737loPI   C4A11118   6.756   9.525   7.386  0.1134 -0.1269  0.0342
  737loPI   C5A11119   6.823   9.475   7.783  0.2251 -0.1542 -0.2879
  737loPI   C6A11120   7.082   9.533   8.193  0.0900  0.0888 -0.0309
  737loPI   C1B11121   6.435   9.204   6.283 -0.1328 -0.1067  0.2094
  737loPI   C2B11122   6.417   9.205   6.727 -0.0427 -0.2770  0.2039
  737loPI   C3B11123   6.358   9.276   7.224 -0.1622 -0.1714 -0.0230
  737loPI   C4B11124   6.328   9.302   7.676 -0.2791 -0.0111  0.0045
  738loPI    C111125   5.657   3.390   5.473  0.0018 -0.0362 -0.0213
  738loPI    C211126   5.665   3.670   5.187  0.1250 -0.1531 -0.1341
  738loPI    C311127   5.894   3.709   5.513 -0.2486  0.1380  0.1037
  738loPI   PO411128   5.400   3.371   5.468 -0.1205  0.2092 -0.0935
  738loPI   GL111129   5.123   3.500   5.762 -0.0008  0.3542  0.2490
  738loPI   GL211130   4.870   3.621   5.761 -0.1801  0.0952 -0.1135
  738loPI   C1A11131   5.126   3.327   6.202 -0.0410 -0.0232  0.0859
  738loPI   C2A11132   5.183   3.370   6.643 -0.0806 -0.1350  0.1492
  738loPI   C3A11133   5.150   3.298   7.096 -0.1514  0.0112  0.2392
  738loPI   C4A11134   5.118   3.314   7.501  0.3277  0.0171  0.0355
  738loPI   C5A11135   4.984   3.469   7.872 -0.0285  0.1355  0.1968
  738loPI   C6A11136   4.905   3.461   8.329  0.1105 -0.0633  0.1474
  738loPI   C1B11137   4.652   3.641   6.157 -0.2169  0.1223 -0.0551
  738loPI   C2B11138   4.791   3.733   6.579 -0.1673  0.1204  0.2622
  738loPI   C3B11139   4.745   3.791   6.980 -0.0151 -0.2600 -0.0700
  738loPI   C4B11140   4.714   3.785   7.361  0.0300 -0.0145 -0.1788
  739loPI    C111141  13.924  15.444   5.608  0.1175 -0.0641 -0.0218
  739loPI    C211142  13.909  15.046   5.571 -0.2888 -0.0341 -0.2341
  739loPI    C311143  13.641  15.275   5.382 -0.1157  0.3379 -0.0399
  739loPI   PO411144  13.882  15.434   5.870 -0.1081  0.2711  0.2842
  739loPI   GL111145  14.004  15.317   6.314 -0.0138  0.3956 -0.4090
  739loPI   GL211146  13.763  15.156   6.479 -0.1014  0.1182 -0.0798
  739loPI   C1A11147  14.183  15.231   6.741 -0.1369 -0.2147 -0.2503
  739loPI   C2A11148  14.270  15.213   7.157  0.0607  0.0153  0.2350
  739loPI   C3A11149  14.590  15.167   7.522  0.1017 -0.0367  0.0699
  739loPI   C4A11150  14.773  15.054   7.960  0.0353 -0.0268 -0.0439
  739loPI   C5A11151  14.669  15.147   8.357  0.1427 -0.0852 -0.1864
  739loPI   C6A11152  14.185  15.308   8.526  0.0654 -0.1799 -0.1797
  739loPI   C1B11153  13.740  15.227   6.907  0.3661  0.2300 -0.1464
  739loPI   C2B11154  13.799  15.415   7.350  0.3169  0.0820  0.1116
  739loPI   C3B11155  14.079  15.461   7.635 -0.1553  0.1537  0.0584
  739loPI   C4B11156  14.263  15.150   7.970 -0.0280  0.0979 -0.1442
  740loPI    C111157   3.346  15.451   5.196  0.1079  0.0686 -0.1714
  740loPI    C211158   3.124  15.758   5.068  0.0624  0.0420 -0.1562
  740loPI    C311159   3.523  15.779   5.049  0.0644  0.1761  0.0125
  740loPI   PO411160   3.158  15.371   5.387 -0.0123 -0.2187  0.0077
  740loPI   GL111161   3.160  15.389   5.894 -0.0084  0.3434  0.0326
  740loPI   GL211162   3.344  15.090   5.875  0.0506 -0.0464  0.1354
  740loPI   C1A11163   2.997  15.525   6.288 -0.4683 -0.0578  0.0961
  740loPI   C2A11164   2.950  15.529   6.763 -0.0067 -0.1970 -0.1289
  740loPI   C3A11165   3.031  15.431   7.192  0.0971 -0.1930 -0.1966
  740loPI   C4A11166   3.051  15.535   7.717 -0.0078 -0.0380 -0.1594
  740loPI   C5A11167   3.084  15.106   8.011  0.1144  0.1757 -0.0730
  740loPI   C6A11168   3.330  15.135   8.352  0.0644 -0.0784 -0.0270
  740loPI   C1B11169   3.339  15.121   6.282  0.3728  0.0995  0.2394
  740loPI   C2B11170   3.132  15.061   6.645  0.1425 -0.1772  0.1346
  740loPI   C3B11171   3.235  14.949   6.980  0.2178 -0.2725 -0.0051
  740loPI   C4B11172   3.486  14.703   7.376 -0.5423 -0.1547  0.2933
  741loPI    C111173   0.479  16.021   5.555 -0.0409 -0.0483  0.0321
  741loPI    C211174   0.585  16.251   5.246  0.0411  0.1221  0.1853
  741loPI    C311175   0.526  15.859   5.192  0.0248  0.1556 -0.0517
  741loPI   PO411176   0.629  16.145   5.717  0.0592 -0.0325  0.4345
  741loPI   GL111177   0.609  16.053   6.175  0.1306 -0.1344 -0.0696
  741loPI   GL211178   0.551  16.423   6.182  0.0862 -0.0409 -0.4607
  741loPI   C1A11179   0.621  16.228   6.622 -0.4005 -0.1837  0.0709
  741loPI   C2A11180   0.588  16.352   6.967 -0.0471  0.4284  0.0295
  741loPI   C3A11181   0.741  16.508   7.357 -0.2478 -0.2856 -0.0706
  741loPI   C4A11182   0.886  16.609   7.688  0.2853 -0.1966  0.1867
  741loPI   C5A11183   1.210  16.781   7.980  0.1049  0.1057  0.0569
  741loPI   C6A11184   1.748  16.898   8.063  0.1166  0.1129 -0.1012
  741loPI   C1B11185   0.409  16.677   6.574 -0.2480  0.1576 -0.1468
  741loPI   C2B11186   0.242  16.827   6.938 -0.4310  0.2538  0.2089
  741loPI   C3B11187   0.094  16.925   7.336  0.0481  0.2184  0.0304
  741loPI   C4B11188   0.391  16.900   7.620 -0.0321 -0.0599  0.0594
  742loPI    C111189  17.881   7.324   4.798 -0.0661 -0.0884  0.1555
  742loPI    C211190  17.789   6.936   4.768 -0.2732 -0.0161 -0.2145
  742loPI    C311191  18.021   7.109   4.492  0.1237  0.0456  0.1464
  742loPI   PO411192  17.976   7.345   5.025  0.2228 -0.0147  0.0845
  742loPI   GL111193  17.869   7.385   5.445  0.1037 -0.0596  0.0807
  742loPI   GL211194  17.676   7.203   5.625 -0.1406 -0.0029 -0.0649
  742loPI   C1A11195  17.946   7.560   5.842  0.0805  0.1331  0.2960
  742loPI   C2A11196  17.829   7.587   6.317  0.0063  0.0881  0.0905
  742loPI   C3A11197  17.465   7.509   6.567 -0.2265 -0.0783  0.0794
  742loPI   C4A11198  17.400   7.435   6.880 -0.0809  0.2815  0.0798
  742loPI   C5A11199  17.430   7.375   7.349 -0.1716  0.0216 -0.1939
  742loPI   C6A11200  17.059   7.167   7.373  0.0468  0.0569 -0.0932
  742loPI   C1B11201  17.562   7.036   6.052 -0.0804 -0.2178  0.1530
  742loPI   C2B11202  17.465   7.046   6.465 -0.1571 -0.1082  0.0800
  742loPI   C3B11203  17.282   6.988   6.830  0.1001  0.1081 -0.1689
  742loPI   C4B11204  16.962   7.091   6.903  0.0453  0.1477 -0.3215
  743loPI    C111205  14.520  10.940   5.459 -0.2171  0.3114  0.2019
  743loPI    C211206  14.586  11.191   5.154 -0.0442 -0.1626 -0.1640
  743loPI    C311207  14.244  10.983   5.172 -0.1165 -0.0284  0.0482
  743loPI   PO411208  14.566  11.154   5.705  0.2570  0.0771  0.1820
  743loPI   GL111209  14.347  11.414   5.994  0.3177 -0.1273  0.2205
  743loPI   GL211210  14.323  11.774   6.123 -0.1175  0.2843  0.1045
  743loPI   C1A11211  14.255  11.190   6.436  0.2805 -0.2685  0.3704
  743loPI   C2A11212  14.151  11.247   6.849 -0.0129  0.0172  0.1612
  743loPI   C3A11213  14.219  11.317   7.233 -0.3164 -0.1177 -0.2912
  743loPI   C4A11214  14.078  11.307   7.670  0.3431 -0.0354  0.1542
  743loPI   C5A11215  13.750  11.436   7.891 -0.1641 -0.0775  0.0590
  743loPI   C6A11216  13.732  11.635   8.286  0.0237 -0.1856 -0.0448
  743loPI   C1B11217  14.227  11.781   6.539 -0.0007 -0.2056  0.2065
  743loPI   C2B11218  14.194  11.772   6.954 -0.2017  0.0661 -0.2101
  743loPI   C3B11219  14.245  11.900   7.351  0.3070  0.0227  0.1897
  743loPI   C4B11220  14.249  11.967   7.731  0.0585  0.1919  0.3135
  744loPI    C111221  17.261   0.207   5.430 -0.1583 -0.1286  0.0031
  744loPI    C211222  16.923   0.120   5.234 -0.0587 -0.1770 -0.1488
  744loPI    C311223  17.096   0.477   5.185 -0.0972 -0.1456 -0.0572
  744loPI   PO411224  17.241   0.142   5.682  0.2436  0.1687  0.1009
  744loPI   GL111225  17.033   0.206   6.016 -0.1294  0.1234 -0.0724
  744loPI   GL211226  16.968  -0.002   6.108 -0.1990 -0.3536  0.0594
  744loPI   C1A11227  17.269   0.213   6.451  0.0985  0.1030 -0.1497
  744loPI   C2A11228  17.149   0.319   6.953  0.0101  0.2099  0.0629
  744loPI   C3A11229  17.149   0.348   7.352  0.2308  0.1711 -0.4744
  744loPI   C4A11230  17.094   0.255   7.775  0.0574 -0.0468  0.1341
  744loPI   C5A11231  17.196   0.164   8.167 -0.0238  0.0938  0.1844
  744loPI   C6A11232  17.095   0.124   8.549 -0.4815 -0.0814 -0.0709
  744loPI   C1B11233  16.894  -0.178   6.458  0.0223 -0.0225 -0.0800
  744loPI   C2B11234  16.743  -0.029   6.887 -0.0049  0.1376 -0.1526
  744loPI   C3B11235  16.781   0.044   7.211 -0.0180  0.1591 -0.1306
  744loPI   C4B11236  16.652   0.015   7.568  0.2470 -0.1902 -0.3209
  745loPI    C111237   4.008   3.998   5.136 -0.2070  0.4323 -0.0363
  745loPI    C211238   4.066   4.372   5.008 -0.0843  0.2925 -0.4013
  745loPI    C311239   4.113   4.065   4.756 -0.1999  0.0305 -0.1096
  745loPI   PO411240   4.141   4.073   5.375 -0.0643 -0.2349  0.0024
  745loPI   GL111241   3.928   4.181   5.793  0.1211 -0.1647 -0.1260
  745loPI   GL211242   4.199   4.402   5.899  0.1483 -0.0786 -0.0235
  745loPI   C1A11243   3.657   4.223   6.093 -0.0724  0.2405  0.3063
  745loPI   C2A11244   3.447   4.193   6.499  0.3842  0.0750 -0.2506
  745loPI   C3A11245   3.318   4.114   6.936 -0.0913  0.0402 -0.2289
  745loPI   C4A11246   3.158   4.058   7.324  0.2927  0.3453  0.1403
  745loPI   C5A11247   3.218   3.881   7.578  0.0513 -0.1381 -0.2240
  745loPI   C6A11248   3.211   3.907   7.994  0.1141  0.0010 -0.3860
  745loPI   C1B11249   4.267   4.543   6.320  0.2907 -0.0588 -0.1566
  745loPI   C2B11250   4.282   4.617   6.730 -0.1065 -0.1255 -0.0640
  745loPI   C3B11251   4.195   4.613   7.172 -0.2084  0.0524 -0.1203
  745loPI   C4B11252   3.919   4.662   7.559  0.3508  0.3071 -0.1986
  746loPI    C111253  12.112   7.585   5.430  0.1657  0.1236  0.1715
  746loPI    C211254  12.246   7.356   5.131 -0.0337  0.0734  0.1191
  746loPI    C311255  12.220   7.752   5.083 -0.1294  0.0584  0.0455
  746loPI   PO411256  11.894   7.459   5.534 -0.1941  0.0841  0.0948
  746loPI   GL111257  11.877   7.119   5.847  0.0315  0.0153  0.1271
  746loPI   GL211258  12.287   7.113   5.854  0.0327 -0.2515  0.0540
  746loPI   C1A11259  11.859   7.204   6.296 -0.0048  0.1056 -0.0716
  746loPI   C2A11260  11.897   7.211   6.655 -0.0926  0.2932 -0.2827
  746loPI   C3A11261  12.004   7.051   7.042 -0.0870  0.2796 -0.0766
  746loPI   C4A11262  12.009   6.825   7.452  0.3316 -0.3102 -0.1950
  746loPI   C5A11263  12.031   6.813   7.802 -0.0481 -0.0707  0.1348
  746loPI   C6A11264  11.890   6.794   8.161  0.0217 -0.0698  0.2452
  746loPI   C1B11265  12.285   6.921   6.261 -0.1679 -0.2758  0.1002
  746loPI   C2B11266  12.386   6.896   6.733  0.0988 -0.0632  0.0034
  746loPI   C3B11267  12.484   6.840   7.204 -0.1034 -0.1856 -0.0449
  746loPI   C4B11268  12.502   6.749   7.748 -0.0460  0.1269  0.0877
  747loPI    C111269  13.385   1.417   5.370  0.1173 -0.1171  0.1306
  747loPI    C211270  13.079   1.160   5.351  0.1055 -0.1095  0.2132
  747loPI    C311271  13.072   1.496   5.134  0.1555 -0.2149  0.0467
  747loPI   PO411272  13.566   1.377   5.622 -0.1238 -0.1002 -0.0884
  747loPI   GL111273  13.421   1.253   6.058  0.0350  0.1234  0.1233
  747loPI   GL211274  13.798   1.155   6.096 -0.1118  0.1837  0.1161
  747loPI   C1A11275  13.369   1.124   6.473  0.1858 -0.2236  0.1486
  747loPI   C2A11276  13.612   1.118   6.863  0.0167  0.2000 -0.2393
  747loPI   C3A11277  13.990   1.055   7.136  0.0295  0.0766 -0.1870
  747loPI   C4A11278  14.109   0.941   7.569 -0.0666  0.1285 -0.1216
  747loPI   C5A11279  14.104   1.040   8.037  0.4649  0.0368 -0.3221
  747loPI   C6A11280  14.335   1.117   8.386 -0.0422 -0.0889  0.3312
  747loPI   C1B11281  13.719   0.763   6.348  0.3297  0.1461  0.1446
  747loPI   C2B11282  13.541   0.554   6.748 -0.1616 -0.0676  0.2299
  747loPI   C3B11283  13.572   0.557   7.130 -0.2307  0.3210  0.1161
  747loPI   C4B11284  13.636   0.752   7.526  0.1127  0.0424  0.1638
  748loPI    C111285  13.374  17.429   5.464 -0.2874  0.2177 -0.0490
  748loPI    C211286  13.499  17.631   5.142 -0.2733  0.0389 -0.1569
  748loPI    C311287  13.220  17.346   5.104 -0.1067 -0.1409 -0.0487
  748loPI   PO411288  13.611  17.357   5.578 -0.1008 -0.1046  0.0317
  748loPI   GL111289  13.597  17.595   5.996  0.0789 -0.1678  0.0518
  748loPI   GL211290  13.565  17.917   6.022  0.2475  0.0287 -0.2417
  748loPI   C1A11291  13.753  17.522   6.376  0.1211 -0.0685  0.1274
  748loPI   C2A11292  13.578  17.617   6.790 -0.0717  0.1645  0.0460
  748loPI   C3A11293  13.593  17.698   7.159 -0.4779  0.0270  0.0575
  748loPI   C4A11294  13.556  17.910   7.510 -0.2459 -0.1317  0.2487
  748loPI   C5A11295  13.589  18.290   7.742 -0.0303  0.0813  0.1042
  748loPI   C6A11296  13.672  18.627   7.971 -0.3029  0.1693 -0.3145
  748loPI   C1B11297  13.541  17.942   6.438 -0.1469  0.2568  0.0271
  748loPI   C2B11298  13.440  18.095   6.900  0.0152  0.2453 -0.1231
  748loPI   C3B11299  13.242  18.250   7.303 -0.1271 -0.1234 -0.1992
  748loPI   C4B11300  13.182  18.577   7.493 -0.1539  0.0302 -0.1842
  749loPI    C111301   7.461  10.855   5.631  0.2549  0.1664  0.0397
  749loPI    C211302   7.672  10.575   5.437 -0.1270 -0.0795 -0.0324
  749loPI    C311303   7.461  10.845   5.231 -0.1609 -0.0507  0.0396
  749loPI   PO411304   7.363  10.694   5.830 -0.0432  0.0735 -0.1194
  749loPI   GL111305   7.474  10.702   6.267  0.1888  0.2683 -0.3165
  749loPI   GL211306   7.393  10.336   6.138 -0.0633 -0.3105  0.1009
  749loPI   C1A11307   7.144  10.986   6.391  0.2009 -0.1493  0.0844
  749loPI   C2A11308   6.803  11.114   6.461  0.0539 -0.3132 -0.0788
  749loPI   C3A11309   6.385  10.985   6.366 -0.1841 -0.0520 -0.1531
  749loPI   C4A11310   6.229  10.943   6.735 -0.0459 -0.1008 -0.1273
  749loPI   C5A11311   6.327  10.822   7.236  0.0295 -0.2508 -0.1798
  749loPI   C6A11312   6.354  10.735   7.671  0.3036  0.0423  0.0587
  749loPI   C1B11313   7.137  10.343   6.454  0.0901  0.0044  0.2274
  749loPI   C2B11314   6.819  10.141   6.554 -0.0051 -0.0448  0.1355
  749loPI   C3B11315   6.634  10.130   6.998  0.1962  0.0849 -0.0151
  749loPI   C4B11316   6.701  10.195   7.453  0.2620 -0.3986  0.5990
  750loPI    C111317  15.209   5.433   5.272  0.0401 -0.2298  0.1022
  750loPI    C211318  15.563   5.542   5.119 -0.1312  0.1769 -0.0192
  750loPI    C311319  15.251   5.478   4.877 -0.1749 -0.0613  0.0966
  750loPI   PO411320  15.188   5.600   5.528 -0.0074 -0.0075 -0.2348
  750loPI   GL111321  15.054   5.405   5.918  0.0120  0.0299 -0.0329
  750loPI   GL211322  15.369   5.577   5.971  0.1302 -0.1967  0.0339
  750loPI   C1A11323  14.905   5.517   6.266  0.5350 -0.0991  0.0475
  750loPI   C2A11324  14.731   5.628   6.711 -0.3615 -0.0999 -0.1234
  750loPI   C3A11325  14.718   5.742   7.130 -0.0293  0.1742 -0.1313
  750loPI   C4A11326  14.819   5.530   7.530 -0.2826 -0.2613 -0.0970
  750loPI   C5A11327  14.908   5.359   7.943 -0.2138  0.1008 -0.1128
  750loPI   C6A11328  15.150   5.239   8.317  0.2748 -0.0031  0.0340
  750loPI   C1B11329  15.402   5.370   6.328 -0.0202  0.2679  0.1195
  750loPI   C2B11330  15.165   5.379   6.690 -0.3583 -0.3813 -0.2342
  750loPI   C3B11331  14.849   5.255   7.067  0.0135 -0.2590  0.1635
  750loPI   C4B11332  14.442   5.365   7.259  0.0083 -0.1838  0.0240
  751loPI    C111333   0.916   1.420   5.536  0.0878  0.0411  0.0033
  751loPI    C211334   0.602   1.318   5.761  0.0122  0.1025 -0.0736
  751loPI    C311335   0.670   1.129   5.415  0.1590 -0.0285  0.0258
  751loPI   PO411336   0.867   1.681   5.505 -0.3113  0.0870  0.1027
  751loPI   GL111337   0.745   1.883   5.875 -0.2280 -0.2297  0.1330
  751loPI   GL211338   1.023   1.667   5.972  0.1173  0.0294  0.0991
  751loPI   C1A11339   0.727   1.844   6.349 -0.1870  0.0810 -0.0993
  751loPI   C2A11340   0.870   1.825   6.807  0.0639  0.0038 -0.1638
  751loPI   C3A11341   0.980   1.864   7.207  0.0017  0.0143  0.0666
  751loPI   C4A11342   0.850   1.836   7.583 -0.2013 -0.0480 -0.1461
  751loPI   C5A11343   0.550   1.964   7.969 -0.2020 -0.0016 -0.0940
  751loPI   C6A11344   0.627   2.481   8.043  0.0367 -0.0491  0.0742
  751loPI   C1B11345   1.224   1.655   6.338  0.0120 -0.0454 -0.0939
  751loPI   C2B11346   1.294   1.591   6.660  0.0463 -0.1811  0.0797
  751loPI   C3B11347   1.348   1.568   7.070  0.2579  0.1920 -0.0385
  751loPI   C4B11348   1.303   1.500   7.450 -0.3450  0.0775 -0.1163
  752loPI    C111349   7.968   5.679   5.390  0.0879  0.0438  0.0251
  752loPI    C211350   7.600   5.523   5.406 -0.1110  0.4973  0.0226
  752loPI    C311351   7.765   5.608   5.052  0.1617 -0.0653  0.0031
  752loPI   PO411352   8.111   5.642   5.522  0.1045 -0.0411  0.1378
  752loPI   GL111353   8.323   5.925   5.769  0.1042 -0.3783  0.2122
  752loPI   GL211354   8.450   6.242   5.914  0.0659 -0.1808  0.0915
  752loPI   C1A11355   8.383   5.801   6.232 -0.1438  0.2638  0.1884
  752loPI   C2A11356   8.364   5.929   6.696  0.2284 -0.1640 -0.3306
  752loPI   C3A11357   8.448   6.049   7.043  0.3890  0.0617  0.1388
  752loPI   C4A11358   8.410   6.214   7.419 -0.0149 -0.2637  0.1812
  752loPI   C5A11359   8.345   6.244   7.825  0.2638 -0.0226 -0.0582
  752loPI   C6A11360   8.029   6.369   8.046  0.0540 -0.3240 -0.1313
  752loPI   C1B11361   8.616   6.393   6.286  0.0570 -0.0297 -0.0462
  752loPI   C2B11362   8.529   6.457   6.687 -0.2397 -0.1132 -0.3238
  752loPI   C3B11363   8.342   6.685   7.065 -0.2410 -0.0016  0.0521
  752loPI   C4B11364   8.322   6.799   7.550  0.1221  0.0833 -0.2263
  753loPI    C111365  16.288  17.167   5.404 -0.0486  0.0976 -0.0273
  753loPI    C211366  16.054  17.333   5.125  0.0130  0.1443 -0.0515
  753loPI    C311367  16.447  17.299   5.061 -0.0104 -0.0832 -0.0800
  753loPI   PO411368  16.229  17.252   5.600 -0.3932  0.3107  0.0981
  753loPI   GL111369  16.203  17.306   6.003 -0.0406 -0.2763 -0.1317
  753loPI   GL211370  16.220  17.090   6.196  0.0950  0.0163  0.0535
  753loPI   C1A11371  16.091  17.629   6.332 -0.1754  0.2300  0.1276
  753loPI   C2A11372  16.284  17.689   6.839  0.0071 -0.1520  0.2290
  753loPI   C3A11373  16.368  17.746   7.262  0.0966 -0.1416  0.0200
  753loPI   C4A11374  16.428  17.750   7.831  0.1945 -0.0369 -0.0506
  753loPI   C5A11375  16.183  17.714   8.135  0.0730 -0.1393 -0.1295
  753loPI   C6A11376  16.046  17.547   8.551 -0.1277  0.3253 -0.1918
  753loPI   C1B11377  16.219  17.063   6.583  0.4107  0.3964 -0.1359
  753loPI   C2B11378  16.353  17.237   7.026  0.0217 -0.0124 -0.0497
  753loPI   C3B11379  16.344  17.294   7.474 -0.0379 -0.1688 -0.1414
  753loPI   C4B11380  16.347  17.222   7.929  0.0853 -0.3458  0.0163
  754loPI    C111381   9.296   4.748   5.321 -0.0400 -0.1190  0.1524
  754loPI    C211382   9.060   4.452   5.192 -0.1872 -0.1063  0.3876
  754loPI    C311383   9.135   4.765   4.955  0.0544 -0.3776  0.0967
  754loPI   PO411384   9.252   4.743   5.679 -0.2600  0.1071 -0.0405
  754loPI   GL111385   9.322   4.366   6.017  0.2350  0.1937  0.2937
  754loPI   GL211386   9.544   4.435   6.186  0.1410  0.0945  0.0227
  754loPI   C1A11387   9.081   4.544   6.458 -0.1898  0.2096  0.1385
  754loPI   C2A11388   9.005   4.579   6.839  0.2258  0.0581 -0.1398
  754loPI   C3A11389   8.906   4.458   7.194  0.0668 -0.0374 -0.0447
  754loPI   C4A11390   8.836   4.399   7.616  0.0467  0.0556 -0.1176
  754loPI   C5A11391   8.933   4.334   8.021  0.0407  0.0417  0.2355
  754loPI   C6A11392   8.959   4.429   8.323 -0.1346  0.0073 -0.0812
  754loPI   C1B11393   9.511   4.326   6.565  0.0962 -0.1696 -0.0869
  754loPI   C2B11394   9.416   4.326   6.970  0.1690 -0.1607  0.0214
  754loPI   C3B11395   9.321   4.323   7.353 -0.2912 -0.0531  0.0026
  754loPI   C4B11396   9.384   4.517   7.590 -0.1392  0.1078  0.3725
  755loPI    C111397   4.925  10.977   4.920 -0.1856  0.0364  0.1470
  755loPI    C211398   4.680  10.775   4.678  0.0712 -0.0647 -0.0328
  755loPI    C311399   5.068  10.808   4.587  0.1677 -0.0861  0.3551
  755loPI   PO411400   4.727  10.876   5.243  0.2611 -0.1536  0.0043
  755loPI   GL111401   4.771  11.028   5.572 -0.0215  0.1097  0.3900
  755loPI   GL211402   4.488  10.894   5.750 -0.0676  0.0009  0.1362
  755loPI   C1A11403   4.791  11.191   5.972  0.0946 -0.0049 -0.0811
  755loPI   C2A11404   4.918  11.039   6.324 -0.1701 -0.2288 -0.1424
  755loPI   C3A11405   4.930  11.002   6.737 -0.0901 -0.2177 -0.0583
  755loPI   C4A11406   4.946  10.977   7.136 -0.2643 -0.1498  0.0668
  755loPI   C5A11407   4.934  10.968   7.637  0.0412  0.1735  0.2432
  755loPI   C6A11408   4.665  10.845   7.974 -0.1509  0.2008 -0.2176
  755loPI   C1B11409   4.442  10.757   6.230 -0.1008  0.3890 -0.2013
  755loPI   C2B11410   4.486  10.778   6.670 -0.2497 -0.0163  0.0998
  755loPI   C3B11411   4.504  10.727   7.097  0.2074  0.3050 -0.0299
  755loPI   C4B11412   4.406  10.869   7.530 -0.2678 -0.1422  0.0679
  756loPI    C111413   1.710  10.936   5.420  0.1999 -0.0593 -0.0055
  756loPI    C211414   1.330  10.915   5.298  0.2574 -0.1216 -0.1771
  756loPI    C311415   1.617  11.022   5.041  0.3214  0.1953  0.0208
  756loPI   PO411416   1.730  10.753   5.593 -0.0790  0.1956  0.2456
  756loPI   GL111417   2.029  10.646   5.921  0.0515 -0.1114  0.1022
  756loPI   GL211418   1.775  10.810   6.078 -0.2722  0.0564  0.1140
  756loPI   C1A11419   2.205  10.559   6.306 -0.0308  0.0259  0.0164
  756loPI   C2A11420   2.205  10.495   6.713 -0.0587 -0.0494  0.0356
  756loPI   C3A11421   2.034  10.382   7.175  0.2919  0.1142  0.0736
  756loPI   C4A11422   1.997  10.341   7.592  0.0293 -0.0384 -0.0695
  756loPI   C5A11423   1.880  10.378   7.978  0.0838  0.1216  0.0111
  756loPI   C6A11424   1.476  10.357   8.128 -0.3655  0.0872  0.1770
  756loPI   C1B11425   1.795  10.755   6.475  0.0048  0.2029  0.1866
  756loPI   C2B11426   1.677  10.607   6.927 -0.0424  0.1932 -0.2634
  756loPI   C3B11427   1.585  10.637   7.284 -0.0395 -0.0522 -0.0691
  756loPI   C4B11428   1.629  10.736   7.753 -0.1485  0.1967  0.4230
  757loPI    C111429   3.532  16.876   5.631  0.0888 -0.1540  0.0750
  757loPI    C211430   3.192  16.667   5.660 -0.1456  0.1974 -0.0755
  757loPI    C311431   3.392  16.677   5.314 -0.1067  0.1802 -0.0536
  757loPI   PO411432   3.634  16.822   5.940  0.2541 -0.0997 -0.0498
  757loPI   GL111433   3.911  16.991   6.270  0.1067  0.2206 -0.1508
  757loPI   GL211434   3.742  17.253   6.153  0.0888  0.1713 -0.2800
  757loPI   C1A11435   3.905  17.079   6.645 -0.1323  0.2023  0.1427
  757loPI   C2A11436   3.978  17.040   7.091  0.2490 -0.2027 -0.0759
  757loPI   C3A11437   3.853  17.006   7.440  0.0413  0.1189  0.0184
  757loPI   C4A11438   3.959  17.140   7.883  0.1352  0.0636 -0.0185
  757loPI   C5A11439   3.935  17.439   8.209  0.0655  0.4505 -0.0973
  757loPI   C6A11440   3.597  17.779   8.209  0.1773  0.1895  0.0938
  757loPI   C1B11441   3.726  17.532   6.453  0.1103 -0.2699  0.0564
  757loPI   C2B11442   3.752  17.472   6.880 -0.1838  0.0611 -0.3135
  757loPI   C3B11443   3.756  17.483   7.278  0.1513  0.1263 -0.2312
  757loPI   C4B11444   3.763  17.542   7.699  0.0444  0.3637  0.2770
  758loPI    C111445  15.766   4.560   5.338  0.0135 -0.0326  0.1153
  758loPI    C211446  15.514   4.563   5.028 -0.1360 -0.0319  0.2359
  758loPI    C311447  15.792   4.277   5.057  0.1105  0.1689 -0.0820
  758loPI   PO411448  15.610   4.565   5.509  0.0056 -0.0146 -0.2151
  758loPI   GL111449  15.652   4.783   5.886 -0.1406 -0.3210  0.0564
  758loPI   GL211450  15.390   4.923   6.106 -0.1195  0.0703 -0.0595
  758loPI   C1A11451  15.793   4.786   6.349 -0.0181  0.1460  0.0008
  758loPI   C2A11452  15.704   4.674   6.730  0.2180 -0.3575 -0.0529
  758loPI   C3A11453  15.698   4.678   7.108 -0.1382 -0.0285  0.0523
  758loPI   C4A11454  15.623   5.040   7.368 -0.0286 -0.3371 -0.1762
  758loPI   C5A11455  15.926   5.430   7.623  0.0512  0.1120 -0.0016
  758loPI   C6A11456  16.115   5.824   7.414 -0.0420  0.0137 -0.0620
  758loPI   C1B11457  15.239   4.891   6.497  0.2173  0.1595  0.2325
  758loPI   C2B11458  15.240   4.858   6.933 -0.3050 -0.0202  0.1771
  758loPI   C3B11459  15.137   4.997   7.431 -0.0995 -0.1176 -0.0876
  758loPI   C4B11460  15.102   4.931   7.829  0.1678  0.1572 -0.0933
  759loPI    C111461   5.235   0.502   5.854 -0.0222  0.1300  0.0163
  759loPI    C211462   5.589   0.582   6.021  0.0169 -0.0154  0.0048
  759loPI    C311463   5.495   0.741   5.666  0.0539  0.0554  0.0263
  759loPI   PO411464   5.282   0.193   5.907 -0.1132 -0.3678 -0.1878
  759loPI   GL111465   5.536   0.110   6.178 -0.0021 -0.0206 -0.0704
  759loPI   GL211466   5.819   0.157   6.212  0.0070  0.1207 -0.0247
  759loPI   C1A11467   5.549   0.151   6.687  0.2802  0.2102  0.2067
  759loPI   C2A11468   5.319   0.138   7.039 -0.0516  0.0365 -0.0647
  759loPI   C3A11469   5.480   0.165   7.448  0.1139  0.2029  0.0329
  759loPI   C4A11470   5.487   0.125   7.833  0.0796  0.2238 -0.2808
  759loPI   C5A11471   5.359  -0.098   8.191 -0.1267 -0.1551  0.2792
  759loPI   C6A11472   5.322  -0.227   8.575  0.5883  0.1631 -0.0384
  759loPI   C1B11473   6.007   0.340   6.588 -0.1724 -0.1196 -0.1759
  759loPI   C2B11474   5.912   0.115   7.087  0.1077 -0.1486 -0.1056
  759loPI   C3B11475   5.935   0.217   7.514  0.3146  0.1336 -0.1385
  759loPI   C4B11476   5.991   0.152   7.978 -0.1582  0.0497 -0.0784
  760loPI    C111477   6.051  12.069   5.674 -0.1542 -0.0701 -0.0788
  760loPI    C211478   6.202  11.841   5.382 -0.0642 -0.0199 -0.0719
  760loPI    C311479   6.175  12.237   5.332 -0.2383 -0.0334 -0.0916
  760loPI   PO411480   5.759  12.042   5.760  0.1580 -0.2053  0.1457
  760loPI   GL111481   5.592  11.757   5.888 -0.1663 -0.1846  0.2980
  760loPI   GL211482   5.292  11.855   6.071 -0.2144 -0.0913 -0.1070
  760loPI   C1A11483   5.665  11.357   6.168 -0.1860  0.0090  0.0683
  760loPI   C2A11484   5.820  11.173   6.488  0.1030 -0.1013 -0.0479
  760loPI   C3A11485   5.793  11.205   6.874  0.1761  0.2837  0.3565
  760loPI   C4A11486   5.801  10.996   7.327  0.0117 -0.1964  0.2167
  760loPI   C5A11487   5.850  10.842   7.761  0.0196 -0.3159  0.1306
  760loPI   C6A11488   6.095  10.521   8.110  0.1200 -0.0003  0.0329
  760loPI   C1B11489   5.168  11.804   6.509 -0.1851 -0.3497 -0.0041
  760loPI   C2B11490   4.931  12.005   6.795  0.1379 -0.1103 -0.0772
  760loPI   C3B11491   4.879  12.047   7.290 -0.1024 -0.2318  0.0642
  760loPI   C4B11492   5.218  12.303   7.583  0.2395  0.4050 -0.0760
  761loPI    C111493  11.760  14.280   5.552 -0.0395 -0.0134 -0.1568
  761loPI    C211494  11.678  14.652   5.673  0.2800 -0.1183  0.4205
  761loPI    C311495  11.968  14.588   5.405 -0.0920  0.0766 -0.0440
  761loPI   PO411496  11.813  14.113   5.737  0.0131  0.1128  0.1644
  761loPI   GL111497  11.775  14.150   6.122  0.0042  0.0526 -0.2113
  761loPI   GL211498  11.816  14.452   6.087 -0.0033  0.0862 -0.1255
  761loPI   C1A11499  11.840  14.298   6.622  0.1460 -0.0413 -0.2608
  761loPI   C2A11500  11.986  14.288   7.030  0.1714  0.1577 -0.0274
  761loPI   C3A11501  12.130  14.297   7.350  0.3353 -0.1511 -0.1292
  761loPI   C4A11502  12.387  14.157   7.714 -0.0108 -0.1708 -0.1032
  761loPI   C5A11503  12.594  13.982   7.915 -0.2505  0.2456 -0.0471
  761loPI   C6A11504  12.773  13.886   8.271  0.1282 -0.1163  0.1111
  761loPI   C1B11505  11.648  14.803   6.468  0.1743 -0.1023 -0.2625
  761loPI   C2B11506  11.550  14.930   6.936 -0.1548  0.2758 -0.0913
  761loPI   C3B11507  11.558  14.996   7.382  0.0750 -0.2088  0.0020
  761loPI   C4B11508  11.600  15.469   7.598 -0.2233  0.1254 -0.0574
  762loPI    C111509   2.369  17.714   5.743  0.0385 -0.0354 -0.0591
  762loPI    C211510   2.018  17.568   5.620  0.0854 -0.0974 -0.1207
  762loPI    C311511   2.353  17.357   5.563  0.1607  0.0573 -0.2582
  762loPI   PO411512   2.310  17.818   5.957  0.0501  0.2805 -0.1435
  762loPI   GL111513   2.503  17.715   6.245  0.1190  0.0710 -0.2820
  762loPI   GL211514   2.763  17.654   6.090 -0.1076  0.0148  0.2912
  762loPI   C1A11515   2.519  17.769   6.614 -0.3381 -0.2250 -0.0697
  762loPI   C2A11516   2.389  17.798   6.992  0.1185 -0.2020  0.1371
  762loPI   C3A11517   2.236  17.484   7.324 -0.0191 -0.1261  0.1357
  762loPI   C4A11518   2.107  17.497   7.734 -0.0056 -0.0669  0.2485
  762loPI   C5A11519   2.037  17.622   8.201  0.0937  0.2642 -0.0439
  762loPI   C6A11520   2.090  17.928   8.446  0.2132 -0.2439 -0.4682
  762loPI   C1B11521   2.932  17.397   6.466 -0.0744  0.0134  0.0267
  762loPI   C2B11522   3.178  17.505   6.809 -0.2121  0.3129  0.0915
  762loPI   C3B11523   3.197  17.455   7.282 -0.1480  0.0641 -0.1455
  762loPI   C4B11524   3.249  17.340   7.714  0.0132 -0.0088  0.4767
  763loPI    C111525   5.670  12.991   5.561  0.1266 -0.0515 -0.0257
  763loPI    C211526   5.283  13.039   5.647  0.1961  0.1406  0.1880
  763loPI    C311527   5.400  13.009   5.266 -0.0141  0.2153  0.1160
  763loPI   PO411528   5.712  13.253   5.788  0.2524  0.3031 -0.0188
  763loPI   GL111529   5.854  13.557   6.109  0.2110 -0.1426  0.4242
  763loPI   GL211530   5.983  13.190   6.192 -0.0241  0.2113  0.1046
  763loPI   C1A11531   5.645  13.683   6.483  0.0062 -0.1668 -0.1757
  763loPI   C2A11532   5.633  13.650   6.900 -0.1019 -0.1367  0.0345
  763loPI   C3A11533   5.694  13.732   7.271  0.1255 -0.0126  0.0136
  763loPI   C4A11534   5.678  13.743   7.693  0.0363 -0.1572  0.1538
  763loPI   C5A11535   5.939  13.773   7.970  0.0880 -0.1218  0.0484
  763loPI   C6A11536   6.260  13.665   8.291  0.1760 -0.0797  0.0485
  763loPI   C1B11537   5.881  13.255   6.678 -0.2154  0.0575 -0.1968
  763loPI   C2B11538   5.774  13.234   7.101 -0.2286 -0.1868  0.0312
  763loPI   C3B11539   5.726  13.165   7.529 -0.0616  0.1793  0.2191
  763loPI   C4B11540   5.868  12.911   7.879  0.1760  0.2363  0.0521
  764loPI    C111541  10.467  13.680   5.781  0.0305  0.0153  0.1574
  764loPI    C211542  10.709  13.369   5.712  0.0546  0.0747 -0.0324
  764loPI    C311543  10.578  13.592   5.407 -0.1044  0.1451  0.0858
  764loPI   PO411544  10.236  13.610   5.955  0.0382  0.2348  0.2888
  764loPI   GL111545  10.217  13.860   6.299  0.0728 -0.0071  0.1984
  764loPI   GL211546   9.951  13.887   6.371 -0.1906 -0.3130 -0.2873
  764loPI   C1A11547  10.429  14.047   6.642 -0.0591 -0.0271  0.2216
  764loPI   C2A11548  10.635  13.980   7.139  0.1690  0.1172 -0.0500
  764loPI   C3A11549  10.703  14.023   7.591  0.2961  0.1845  0.1483
  764loPI   C4A11550  10.512  13.880   7.983 -0.1408  0.3023  0.0907
  764loPI   C5A11551  10.715  13.534   8.355 -0.1281 -0.1002 -0.0066
  764loPI   C6A11552  11.112  13.601   8.485  0.1243  0.2890  0.2021
  764loPI   C1B11553   9.948  13.990   6.791  0.3622  0.2082  0.0302
  764loPI   C2B11554  10.104  13.992   7.177 -0.0468  0.0504 -0.0451
  764loPI   C3B11555  10.103  14.136   7.594  0.2007 -0.0249  0.1710
  764loPI   C4B11556  10.230  14.334   7.987  0.0861  0.0678 -0.0443
  765loPI    C111557   8.054   6.638   5.207 -0.1483 -0.0102 -0.0296
  765loPI    C211558   7.897   7.005   5.187  0.1684  0.1275 -0.0422
  765loPI    C311559   7.907   6.774   4.861 -0.0455  0.1004 -0.0306
  765loPI   PO411560   7.959   6.647   5.513 -0.0144 -0.5646 -0.0160
  765loPI   GL111561   8.033   6.504   5.883  0.1705  0.0938  0.0359
  765loPI   GL211562   7.892   6.226   5.988  0.0403  0.5492 -0.2709
  765loPI   C1A11563   8.235   6.711   6.182 -0.4622  0.1628  0.0462
  765loPI   C2A11564   8.134   6.754   6.569  0.0463 -0.1146 -0.0730
  765loPI   C3A11565   8.036   7.022   6.834 -0.0019 -0.0233 -0.0089
  765loPI   C4A11566   8.065   7.108   7.285  0.0081  0.3893  0.0194
  765loPI   C5A11567   8.197   7.390   7.572  0.2335 -0.2246  0.0009
  765loPI   C6A11568   8.454   7.545   7.875  0.1998  0.2187 -0.2512
  765loPI   C1B11569   8.136   6.229   6.384  0.2063 -0.0705  0.0383
  765loPI   C2B11570   8.018   6.295   6.815  0.2244  0.2345  0.0046
  765loPI   C3B11571   7.982   6.047   7.187 -0.2359  0.0598 -0.0529
  765loPI   C4B11572   8.061   5.839   7.527  0.1281 -0.1366  0.1008
  766loPI    C111573  12.559   1.254   5.247 -0.0719 -0.1726 -0.1931
  766loPI    C211574  12.649   1.484   4.932  0.0061 -0.0515 -0.0832
  766loPI    C311575  12.770   1.102   4.942  0.1292 -0.0144 -0.1347
  766loPI   PO411576  12.672   1.382   5.447 -0.0491  0.1118 -0.0225
  766loPI   GL111577  12.453   1.453   5.849  0.2139  0.3132 -0.0970
  766loPI   GL211578  12.599   1.637   5.887 -0.2144 -0.1342 -0.2616
  766loPI   C1A11579  12.497   1.350   6.267 -0.2178  0.1020  0.1076
  766loPI   C2A11580  12.573   1.447   6.610  0.1229  0.0583 -0.0475
  766loPI   C3A11581  12.751   1.832   6.817  0.3685  0.0717  0.3471
  766loPI   C4A11582  12.669   2.225   6.647  0.2457 -0.3092 -0.2851
  766loPI   C5A11583  12.675   2.602   6.817 -0.2662  0.1279 -0.0401
  766loPI   C6A11584  12.762   2.731   7.241 -0.0066 -0.3198  0.1107
  766loPI   C1B11585  12.806   1.859   6.298  0.0499  0.0089  0.0591
  766loPI   C2B11586  13.197   1.837   6.540 -0.1087 -0.0274 -0.0702
  766loPI   C3B11587  13.207   1.992   6.901 -0.3071  0.0656 -0.2376
  766loPI   C4B11588  13.207   1.951   7.306 -0.0770 -0.0215 -0.0968
  767loPI    C111589   9.361   7.070   5.460  0.1566 -0.0831 -0.0656
  767loPI    C211590   9.752   6.989   5.471  0.1938  0.0657 -0.2476
  767loPI    C311591   9.536   6.889   5.150  0.0651 -0.0869 -0.1155
  767loPI   PO411592   9.235   7.001   5.672  0.1841  0.0527  0.1295
  767loPI   GL111593   9.105   7.121   6.105  0.1279  0.4459 -0.1015
  767loPI   GL211594   8.939   7.255   6.116 -0.3530 -0.1132  0.0333
  767loPI   C1A11595   9.208   7.310   6.532  0.2316 -0.0696  0.3637
  767loPI   C2A11596   9.139   7.248   6.982  0.1806  0.1273  0.1949
  767loPI   C3A11597   9.207   6.928   7.236 -0.0488 -0.1377 -0.2807
  767loPI   C4A11598   9.229   6.842   7.635  0.1029  0.1179  0.0378
  767loPI   C5A11599   9.542   6.724   8.023  0.0076  0.0543 -0.2413
  767loPI   C6A11600   9.540   6.560   8.369 -0.4188 -0.1905 -0.0895
  767loPI   C1B11601   8.722   7.556   6.338 -0.0912  0.0139 -0.2480
  767loPI   C2B11602   8.643   7.699   6.766  0.1804 -0.1151 -0.0894
  767loPI   C3B11603   8.340   7.896   6.937  0.0937 -0.0895  0.0221
  767loPI   C4B11604   7.945   7.997   6.830 -0.0568 -0.2924 -0.2585
  768loPI    C111605   9.838   3.294   5.714 -0.1645  0.1199  0.0781
  768loPI    C211606   9.832   3.141   5.345 -0.0553 -0.1424  0.1831
  768loPI    C311607   9.669   2.938   5.649 -0.3868  0.1933  0.2376
  768loPI   PO411608  10.127   3.467   5.642 -0.0575 -0.2451  0.0562
  768loPI   GL111609  10.516   3.315   5.812 -0.0002  0.0214 -0.0085
  768loPI   GL211610  10.794   3.472   5.841  0.2641  0.2229  0.3217
  768loPI   C1A11611  10.357   3.277   6.231 -0.0026 -0.0311  0.1173
  768loPI   C2A11612  10.373   3.369   6.643  0.0864 -0.1724 -0.3280
  768loPI   C3A11613  10.357   3.267   7.107 -0.0062  0.2102 -0.2951
  768loPI   C4A11614  10.227   3.267   7.514  0.0256 -0.3563  0.0639
  768loPI   C5A11615  10.045   3.337   7.885  0.1780 -0.0847 -0.4184
  768loPI   C6A11616   9.842   3.348   8.310 -0.3621  0.0367  0.2570
  768loPI   C1B11617  10.808   3.496   6.277  0.0358  0.2184  0.1250
  768loPI   C2B11618  10.770   3.707   6.650  0.0957 -0.0764 -0.2300
  768loPI   C3B11619  10.824   3.584   7.070 -0.0588 -0.0132  0.0233
  768loPI   C4B11620  10.726   3.589   7.530  0.0711  0.2184  0.1970
  769loPI    C111621   4.533   6.966   5.152 -0.0375 -0.0528 -0.1520
  769loPI    C211622   4.759   6.907   4.827 -0.0766  0.1349 -0.2144
  769loPI    C311623   4.443   7.152   4.809 -0.0858  0.1372 -0.0380
  769loPI   PO411624   4.549   6.785   5.279  0.1912  0.2315  0.0009
  769loPI   GL111625   4.649   6.921   5.704 -0.0626  0.0486 -0.0424
  769loPI   GL211626   4.901   6.980   5.868  0.2616  0.3285  0.0114
  769loPI   C1A11627   4.418   7.070   6.051 -0.2845  0.3905 -0.1400
  769loPI   C2A11628   4.416   7.061   6.485  0.0187  0.2157 -0.1503
  769loPI   C3A11629   4.446   6.968   6.984  0.1156  0.0191 -0.0689
  769loPI   C4A11630   4.473   6.991   7.454  0.1570  0.0646 -0.0389
  769loPI   C5A11631   4.579   7.100   7.935 -0.1456  0.3031 -0.1117
  769loPI   C6A11632   4.383   6.914   8.337  0.1340 -0.3616 -0.0613
  769loPI   C1B11633   4.875   6.934   6.285  0.0731  0.2471 -0.1357
  769loPI   C2B11634   4.887   6.914   6.719  0.1607  0.0290 -0.1685
  769loPI   C3B11635   4.955   6.904   7.185 -0.2129 -0.1067  0.0316
  769loPI   C4B11636   4.939   7.003   7.574 -0.2215 -0.1216  0.0866
  770loPI    C111637   4.787   9.065   5.411  0.1337  0.1785 -0.0957
  770loPI    C211638   4.878   8.811   5.116 -0.2906 -0.0387 -0.0466
  770loPI    C311639   4.609   9.100   5.055 -0.0694  0.1815  0.0052
  770loPI   PO411640   4.914   9.112   5.529  0.0682  0.2886  0.2542
  770loPI   GL111641   5.023   9.340   5.916 -0.1478 -0.4778 -0.0140
  770loPI   GL211642   5.306   9.419   6.015  0.0244 -0.0748 -0.1475
  770loPI   C1A11643   5.019   9.534   6.384  0.0750 -0.0792 -0.0423
  770loPI   C2A11644   5.043   9.532   6.804 -0.0339  0.3133 -0.1702
  770loPI   C3A11645   4.961   9.489   7.305 -0.2360 -0.0699  0.0196
  770loPI   C4A11646   5.098   9.410   7.713 -0.3388  0.0661  0.2933
  770loPI   C5A11647   5.156   9.125   8.031  0.0227 -0.3905  0.0319
  770loPI   C6A11648   4.919   8.734   7.989  0.3238  0.0558  0.2321
  770loPI   C1B11649   5.438   9.207   6.430  0.0003 -0.0609  0.2706
  770loPI   C2B11650   5.439   9.263   6.912  0.3277  0.1960 -0.2183
  770loPI   C3B11651   5.471   9.282   7.348 -0.1468 -0.0724  0.1237
  770loPI   C4B11652   5.672   9.289   7.774  0.2565  0.2733  0.1662
  771loPI    C111653   2.493  17.799   5.258  0.0481 -0.0736 -0.1002
  771loPI    C211654   2.398  18.120   5.038  0.0432 -0.0653 -0.0859
  771loPI    C311655   2.109  17.895   5.199  0.0485  0.0076  0.0267
  771loPI   PO411656   2.718  17.852   5.430 -0.2171  0.2633  0.0192
  771loPI   GL111657   2.804  18.099   5.805 -0.0221  0.0399  0.0568
  771loPI   GL211658   2.556  18.230   6.109  0.2069 -0.0066 -0.1026
  771loPI   C1A11659   2.987  18.047   6.225 -0.0496 -0.2432 -0.0269
  771loPI   C2A11660   3.003  17.951   6.591 -0.0351  0.1919 -0.2521
  771loPI   C3A11661   2.935  17.840   7.070 -0.0839  0.2569 -0.0436
  771loPI   C4A11662   2.816  17.813   7.429  0.2553 -0.1981 -0.0505
  771loPI   C5A11663   2.966  17.835   7.834  0.0868 -0.0304 -0.0107
  771loPI   C6A11664   3.092  17.579   8.146 -0.0360 -0.2394  0.0647
  771loPI   C1B11665   2.689  18.347   6.475 -0.0248  0.2457 -0.0490
  771loPI   C2B11666   2.647  18.237   6.860  0.0089 -0.0186  0.0049
  771loPI   C3B11667   2.712  18.243   7.241 -0.0102  0.0794 -0.2676
  771loPI   C4B11668   2.824  18.286   7.685 -0.0492 -0.0320  0.1277
  772loPI    C111669   8.226   5.286   5.242  0.0652 -0.0881  0.2050
  772loPI    C211670   7.885   5.096   5.156  0.0400  0.0183  0.0637
  772loPI    C311671   8.121   5.225   4.861  0.1152  0.1024  0.1597
  772loPI   PO411672   8.342   5.080   5.407 -0.0395 -0.1304  0.2440
  772loPI   GL111673   8.284   4.901   5.852  0.1551 -0.0283  0.2529
  772loPI   GL211674   8.236   4.529   6.005 -0.2850 -0.2989 -0.1667
  772loPI   C1A11675   8.448   4.982   6.274 -0.1460 -0.1181 -0.0281
  772loPI   C2A11676   8.510   4.838   6.690 -0.0071 -0.0026 -0.1682
  772loPI   C3A11677   8.555   4.738   7.124  0.1568 -0.2140 -0.0287
  772loPI   C4A11678   8.408   4.692   7.558 -0.0131  0.0305  0.1452
  772loPI   C5A11679   8.295   4.819   7.923 -0.0194  0.1565 -0.2325
  772loPI   C6A11680   8.454   4.896   8.375 -0.0765  0.0047  0.0945
  772loPI   C1B11681   8.250   4.508   6.448 -0.1642 -0.1655  0.0981
  772loPI   C2B11682   8.267   4.346   6.878  0.1988  0.0020  0.1079
  772loPI   C3B11683   8.293   4.247   7.353 -0.0697  0.0511 -0.1200
  772loPI   C4B11684   8.196   4.280   7.784  0.3962 -0.0327 -0.2497
  773loPI    C111685   7.436   4.847   5.386 -0.2977  0.1548 -0.0502
  773loPI    C211686   7.212   4.620   5.627 -0.0877 -0.0948 -0.0853
  773loPI    C311687   7.230   4.539   5.236  0.2469 -0.2269 -0.0461
  773loPI   PO411688   7.491   5.031   5.551 -0.1999 -0.0612  0.0778
  773loPI   GL111689   7.304   5.106   5.889 -0.0185 -0.1331  0.0857
  773loPI   GL211690   7.579   5.206   5.997 -0.1036  0.1089 -0.1336
  773loPI   C1A11691   7.201   5.111   6.275  0.1085 -0.1423  0.4043
  773loPI   C2A11692   7.110   5.209   6.729 -0.1315  0.1790 -0.2317
  773loPI   C3A11693   7.019   5.268   7.093 -0.2694  0.1952  0.0424
  773loPI   C4A11694   7.123   5.230   7.523  0.1965 -0.0853  0.2384
  773loPI   C5A11695   7.394   5.072   7.894  0.0810 -0.1970 -0.0692
  773loPI   C6A11696   7.543   5.124   8.329 -0.0401  0.1846  0.2828
  773loPI   C1B11697   7.706   5.299   6.279  0.1132 -0.0313 -0.3616
  773loPI   C2B11698   7.612   5.265   6.690 -0.1522 -0.4529  0.4205
  773loPI   C3B11699   7.583   5.125   7.177  0.1786  0.1163 -0.0271
  773loPI   C4B11700   7.675   4.941   7.503 -0.0996  0.3753 -0.2099
  774loPI    C111701  15.234  10.195   5.644 -0.0546  0.0844 -0.0253
  774loPI    C211702  15.257  10.467   5.936 -0.2485 -0.0117  0.0812
  774loPI    C311703  15.269  10.583   5.554  0.2448  0.0946  0.1221
  774loPI   PO411704  15.375  10.008   5.736 -0.0627 -0.0634  0.1442
  774loPI   GL111705  15.298   9.824   6.201  0.0431  0.2830 -0.2698
  774loPI   GL211706  15.019  10.019   6.129 -0.2700  0.1055 -0.0234
  774loPI   C1A11707  15.156   9.681   6.627  0.0639 -0.0797 -0.0086
  774loPI   C2A11708  15.089   9.631   6.995 -0.1157  0.2109 -0.0155
  774loPI   C3A11709  15.090   9.590   7.437 -0.1686 -0.1473 -0.1366
  774loPI   C4A11710  14.871   9.509   7.799 -0.1283  0.1317  0.0401
  774loPI   C5A11711  14.645   9.300   8.094  0.3508 -0.0394 -0.1813
  774loPI   C6A11712  14.164   9.306   8.129  0.0906  0.0107  0.2343
  774loPI   C1B11713  15.247  10.217   6.506  0.1954  0.1634  0.0321
  774loPI   C2B11714  15.100  10.188   6.920  0.0748  0.5702 -0.2468
  774loPI   C3B11715  15.063  10.128   7.349  0.2803 -0.4117  0.1294
  774loPI   C4B11716  15.118  10.405   7.726  0.1392 -0.1642  0.0201
  775loPI    C111717  11.551   2.771   5.322  0.0261 -0.3083  0.0842
  775loPI    C211718  11.687   2.825   4.950 -0.0120  0.2000  0.1372
  775loPI    C311719  11.342   2.633   5.010  0.1675 -0.1953 -0.0621
  775loPI   PO411720  11.689   2.913   5.451  0.1972  0.0616  0.3032
  775loPI   GL111721  12.034   2.719   5.714 -0.0214 -0.0295  0.0929
  775loPI   GL211722  12.258   2.636   5.845 -0.0781  0.0771 -0.1669
  775loPI   C1A11723  11.747   2.646   6.083  0.0234 -0.1416 -0.0049
  775loPI   C2A11724  11.867   2.627   6.396  0.0251 -0.1236 -0.0782
  775loPI   C3A11725  11.732   2.665   6.794 -0.0715  0.2036  0.0675
  775loPI   C4A11726  11.861   2.665   7.231  0.1773 -0.0129 -0.0006
  775loPI   C5A11727  12.113   2.553   7.548 -0.1013 -0.2400  0.0903
  775loPI   C6A11728  12.471   2.474   7.659 -0.0054  0.0489 -0.0818
  775loPI   C1B11729  12.250   2.925   6.150 -0.2375 -0.2024 -0.0812
  775loPI   C2B11730  12.218   3.002   6.571 -0.1886 -0.2739 -0.0475
  775loPI   C3B11731  12.150   3.012   6.942  0.0819 -0.0556 -0.1788
  775loPI   C4B11732  12.304   2.977   7.373  0.2148 -0.2372  0.0033
  776loPI    C111733   0.555  17.048   5.464 -0.0677  0.0199  0.0817
  776loPI    C211734   0.762  16.712   5.397  0.2682  0.2199  0.0910
  776loPI    C311735   0.785  17.016   5.138 -0.1080  0.2046  0.0343
  776loPI   PO411736   0.584  17.096   5.749  0.1276 -0.1121 -0.0261
  776loPI   GL111737   0.541  17.310   6.053  0.2108 -0.1612 -0.1121
  776loPI   GL211738   0.348  17.484   6.123 -0.0317  0.1518 -0.4309
  776loPI   C1A11739   0.658  17.082   6.389 -0.0119  0.0812  0.1342
  776loPI   C2A11740   0.617  17.180   6.837 -0.0059  0.0482 -0.0169
  776loPI   C3A11741   0.498  17.224   7.232  0.0666  0.0454 -0.0636
  776loPI   C4A11742   0.366  17.602   7.583  0.1340 -0.0616  0.0372
  776loPI   C5A11743   0.401  18.088   7.781  0.0278  0.2363 -0.0538
  776loPI   C6A11744   0.518  18.484   7.897  0.1401 -0.2012 -0.0844
  776loPI   C1B11745   0.417  17.567   6.543  0.1111 -0.1255  0.1492
  776loPI   C2B11746   0.478  17.635   7.018 -0.0322 -0.0236  0.1354
  776loPI   C3B11747   0.584  17.900   7.240 -0.2423 -0.1264 -0.2952
  776loPI   C4B11748   0.750  18.312   7.303  0.0828 -0.0988 -0.0896
  777loPI    C111749   2.224   2.042   5.169 -0.0177  0.1247  0.0290
  777loPI    C211750   2.452   2.290   4.954 -0.0918 -0.0213 -0.2236
  777loPI    C311751   2.074   2.220   4.843 -0.1588 -0.0323  0.0064
  777loPI   PO411752   2.228   2.114   5.387  0.0321  0.1387  0.1829
  777loPI   GL111753   2.347   1.855   5.809 -0.0443  0.0805  0.3091
  777loPI   GL211754   2.660   1.825   6.017  0.1416 -0.3193  0.2546
  777loPI   C1A11755   2.131   1.629   6.149 -0.0370 -0.2668  0.1874
  777loPI   C2A11756   2.315   1.587   6.546  0.1271  0.2153 -0.1490
  777loPI   C3A11757   2.356   1.538   7.041 -0.0538  0.2354 -0.1775
  777loPI   C4A11758   2.279   1.531   7.462  0.1366 -0.1152  0.2119
  777loPI   C5A11759   2.480   1.388   7.772 -0.1960  0.0388 -0.2092
  777loPI   C6A11760   2.824   1.344   8.155 -0.0219  0.2699  0.3577
  777loPI   C1B11761   2.651   1.900   6.496 -0.0750 -0.0066  0.0627
  777loPI   C2B11762   2.716   1.777   6.878  0.1758 -0.0221 -0.0891
  777loPI   C3B11763   2.764   1.577   7.334 -0.0213 -0.3297  0.0974
  777loPI   C4B11764   3.189   1.512   7.447 -0.0844 -0.2390  0.3856
  778loPI    C111765  14.172   8.454   4.898 -0.0326 -0.2580  0.0624
  778loPI    C211766  14.566   8.469   4.828 -0.0307 -0.0541  0.1135
  778loPI    C311767  14.309   8.452   4.522  0.0188 -0.2333  0.0810
  778loPI   PO411768  14.165   8.258   5.110 -0.2701 -0.0483  0.3898
  778loPI   GL111769  14.129   8.367   5.550  0.1245  0.3281 -0.0041
  778loPI   GL211770  14.347   8.050   5.612 -0.0485 -0.0498  0.1283
  778loPI   C1A11771  13.776   8.394   5.972  0.0485 -0.3604  0.1160
  778loPI   C2A11772  13.627   8.429   6.386  0.0606  0.1954  0.2385
  778loPI   C3A11773  13.828   8.360   6.799  0.1130 -0.0451 -0.1044
  778loPI   C4A11774  13.728   8.135   7.183  0.0101  0.1228  0.1257
  778loPI   C5A11775  13.773   7.888   7.628 -0.1525 -0.2933  0.0512
  778loPI   C6A11776  13.702   7.731   7.974 -0.1742 -0.0375  0.2451
  778loPI   C1B11777  14.208   8.179   6.062 -0.1207 -0.2183  0.0914
  778loPI   C2B11778  14.199   8.161   6.486  0.3002 -0.1305  0.1253
  778loPI   C3B11779  14.295   8.050   7.025 -0.0529  0.0703  0.1484
  778loPI   C4B11780  14.435   8.398   7.480  0.0201  0.1906  0.0871
  779loPI    C111781   3.656   0.258   5.129 -0.1498  0.1353  0.2302
  779loPI    C211782   3.914   0.562   5.100 -0.1884  0.1518  0.0439
  779loPI    C311783   3.627   0.517   4.825 -0.1479 -0.0855  0.0386
  779loPI   PO411784   3.610   0.285   5.389 -0.0054 -0.1814 -0.0218
  779loPI   GL111785   3.650   0.291   5.796 -0.3375 -0.2516 -0.0689
  779loPI   GL211786   3.446   0.026   5.862 -0.2064  0.0529  0.1216
  779loPI   C1A11787   3.312   0.417   6.155  0.1409 -0.2401 -0.1780
  779loPI   C2A11788   3.173   0.347   6.580 -0.0796 -0.2544  0.0673
  779loPI   C3A11789   3.197   0.240   7.072  0.0397  0.2947  0.1472
  779loPI   C4A11790   3.343   0.298   7.527 -0.0699  0.0741 -0.1567
  779loPI   C5A11791   3.363   0.159   7.942 -0.1293  0.2860  0.0470
  779loPI   C6A11792   3.711   0.214   8.286  0.0551 -0.3813 -0.0427
  779loPI   C1B11793   3.478  -0.081   6.371  0.0609 -0.1169 -0.4982
  779loPI   C2B11794   3.453  -0.143   6.801  0.0623 -0.0151 -0.1821
  779loPI   C3B11795   3.455  -0.154   7.210  0.0067  0.0902  0.1468
  779loPI   C4B11796   3.399  -0.224   7.600 -0.2135 -0.1837 -0.1400
  780loPI    C111797   6.828   4.136   5.383  0.0342 -0.1150  0.0516
  780loPI    C211798   6.623   4.022   5.058 -0.0124  0.0295  0.0294
  780loPI    C311799   7.000   4.153   5.021  0.0273 -0.0777  0.0500
  780loPI   PO411800   6.870   3.892   5.516 -0.0474  0.1839 -0.0082
  780loPI   GL111801   7.117   3.766   5.767  0.1409 -0.3560  0.0538
  780loPI   GL211802   7.160   4.162   5.837 -0.0004  0.1048  0.2168
  780loPI   C1A11803   7.021   3.817   6.239  0.0378 -0.2155 -0.0841
  780loPI   C2A11804   6.967   3.828   6.699  0.0290 -0.1253  0.1685
  780loPI   C3A11805   6.814   3.880   7.100 -0.2425  0.0255 -0.2052
  780loPI   C4A11806   6.780   3.885   7.562  0.1722  0.0798 -0.1121
  780loPI   C5A11807   6.614   3.897   7.934 -0.1386  0.2338  0.0538
  780loPI   C6A11808   6.234   4.229   8.179  0.0492 -0.0256 -0.2253
  780loPI   C1B11809   7.234   4.289   6.278 -0.1583 -0.1557  0.2414
  780loPI   C2B11810   7.267   4.339   6.676  0.1624 -0.1212 -0.1238
  780loPI   C3B11811   7.112   4.292   6.982  0.2169  0.1469  0.2355
  780loPI   C4B11812   6.982   4.325   7.393 -0.1427  0.0339 -0.1063
  781loPI    C111813  10.816   6.845   4.991  0.1897 -0.1582  0.4086
  781loPI    C211814  10.925   7.006   5.341  0.1767  0.1679  0.2669
  781loPI    C311815  11.191   6.974   5.044  0.1425  0.0512  0.2482
  781loPI   PO411816  10.520   6.917   5.029  0.1472  0.1054 -0.1072
  781loPI   GL111817  10.248   6.929   5.449  0.2115 -0.1870  0.2101
  781loPI   GL211818  10.567   6.858   5.751  0.1285 -0.2723 -0.2598
  781loPI   C1A11819  10.101   7.061   5.915  0.0035  0.1023 -0.1224
  781loPI   C2A11820  10.104   7.038   6.346 -0.1926 -0.1960 -0.2114
  781loPI   C3A11821  10.175   6.988   6.802  0.0636  0.0328 -0.2191
  781loPI   C4A11822  10.139   6.949   7.210  0.1917  0.1831  0.3613
  781loPI   C5A11823  10.105   7.053   7.600 -0.1599  0.3859 -0.0477
  781loPI   C6A11824  10.210   7.282   7.972  0.0995 -0.1115 -0.0702
  781loPI   C1B11825  10.563   6.850   6.175 -0.2305  0.1847 -0.3558
  781loPI   C2B11826  10.638   6.828   6.527 -0.4927 -0.2590  0.0591
  781loPI   C3B11827  10.634   6.744   6.958 -0.1574 -0.1580 -0.1649
  781loPI   C4B11828  10.717   6.795   7.344  0.1666  0.2613  0.0518
  782loPI    C111829   0.294   2.476   5.328  0.0333  0.0693  0.0790
  782loPI    C211830   0.677   2.540   5.421  0.0121 -0.0070  0.2201
  782loPI    C311831   0.504   2.192   5.514  0.0157 -0.1225 -0.1880
  782loPI   PO411832   0.140   2.672   5.469 -0.1344 -0.3794 -0.1259
  782loPI   GL111833   0.121   2.886   5.893 -0.1938 -0.0384 -0.1079
  782loPI   GL211834   0.499   2.847   5.796 -0.0879 -0.0330 -0.1441
  782loPI   C1A11835  -0.113   2.841   6.217 -0.2566 -0.0330 -0.1253
  782loPI   C2A11836  -0.027   2.945   6.599  0.4230 -0.0165 -0.0503
  782loPI   C3A11837  -0.092   2.877   6.971 -0.3046 -0.0888 -0.3212
  782loPI   C4A11838   0.019   2.896   7.414  0.1400 -0.1185  0.0064
  782loPI   C5A11839  -0.169   3.076   7.807  0.1111  0.3294 -0.0136
  782loPI   C6A11840  -0.407   3.461   7.826 -0.1484  0.0575 -0.1659
  782loPI   C1B11841   0.406   2.717   6.265 -0.1200 -0.1979  0.0137
  782loPI   C2B11842   0.378   2.534   6.690  0.1303 -0.1335  0.1573
  782loPI   C3B11843   0.458   2.603   7.156  0.3638  0.2096  0.2982
  782loPI   C4B11844   0.414   2.588   7.640 -0.0374  0.3586  0.0196
  783loPI    C111845  15.486   3.652   5.123 -0.1221 -0.0390 -0.0038
  783loPI    C211846  15.695   3.311   5.123 -0.1415 -0.0509 -0.0249
  783loPI    C311847  15.565   3.466   4.778 -0.1841 -0.0536 -0.0101
  783loPI   PO411848  15.653   3.827   5.266  0.0911  0.2068  0.1642
  783loPI   GL111849  15.644   4.000   5.770  0.2232 -0.3996 -0.1820
  783loPI   GL211850  15.573   4.261   5.842 -0.1620  0.0234 -0.1247
  783loPI   C1A11851  15.705   3.673   6.058  0.0865  0.2546 -0.1427
  783loPI   C2A11852  15.769   3.515   6.541 -0.0934 -0.1084  0.4321
  783loPI   C3A11853  15.764   3.675   6.956  0.1848 -0.1608 -0.2428
  783loPI   C4A11854  15.736   3.575   7.281 -0.0762 -0.0589  0.0035
  783loPI   C5A11855  15.796   3.429   7.663  0.1702  0.0862  0.1394
  783loPI   C6A11856  15.748   2.981   7.852  0.1113 -0.1009  0.1473
  783loPI   C1B11857  15.656   4.206   6.278 -0.0316 -0.0847  0.0851
  783loPI   C2B11858  15.771   4.190   6.698  0.2338  0.1112  0.1431
  783loPI   C3B11859  15.783   4.188   7.140  0.2233  0.3650  0.0301
  783loPI   C4B11860  15.705   4.029   7.525  0.0611  0.1236 -0.0611
  784loPI    C111861   8.639  17.505   5.786 -0.0787  0.0685 -0.0293
  784loPI    C211862   8.460  17.200   5.973  0.2316 -0.1218 -0.0368
  784loPI    C311863   8.388  17.267   5.586  0.0356 -0.0823  0.0054
  784loPI   PO411864   8.577  17.753   6.035  0.0477 -0.0359  0.1831
  784loPI   GL111865   8.559  17.960   6.429  0.0498  0.0328 -0.0454
  784loPI   GL211866   8.565  18.251   6.481  0.1440  0.0927 -0.2023
  784loPI   C1A11867   8.445  17.690   6.840  0.5837  0.1034 -0.0405
  784loPI   C2A11868   8.579  17.542   7.298  0.0170  0.1017  0.0610
  784loPI   C3A11869   8.237  17.767   7.636 -0.0268  0.0306  0.0389
  784loPI   C4A11870   7.920  17.775   7.910 -0.2173  0.0584  0.0004
  784loPI   C5A11871   7.822  18.030   8.220 -0.0850 -0.2778  0.0423
  784loPI   C6A11872   7.932  18.109   8.641  0.1119  0.0121 -0.0120
  784loPI   C1B11873   8.490  18.254   6.886 -0.0007 -0.0400 -0.0006
  784loPI   C2B11874   8.651  18.010   7.210 -0.1981  0.1672  0.0313
  784loPI   C3B11875   8.725  17.985   7.684 -0.2348  0.3580  0.1165
  784loPI   C4B11876   8.796  17.891   8.228 -0.3645  0.0737  0.0694
  785loPI    C111877  11.657   9.710   5.261  0.0416 -0.1868  0.0192
  785loPI    C211878  11.304   9.892   5.216 -0.0654 -0.3486  0.1885
  785loPI    C311879  11.322   9.493   5.238  0.1399 -0.3468  0.0776
  785loPI   PO411880  11.749   9.827   5.450  0.2151  0.0540  0.3060
  785loPI   GL111881  11.876   9.968   5.963 -0.2500  0.0559 -0.0628
  785loPI   GL211882  12.047  10.152   6.088 -0.3081  0.0453  0.0909
  785loPI   C1A11883  11.745   9.682   6.304 -0.1332  0.1003 -0.0777
  785loPI   C2A11884  11.619   9.762   6.768 -0.1022  0.0666 -0.1521
  785loPI   C3A11885  11.791   9.668   7.168  0.0363  0.1426 -0.0010
  785loPI   C4A11886  11.853   9.704   7.600 -0.1332  0.1576 -0.4140
  785loPI   C5A11887  11.743  10.087   7.879 -0.1534  0.0124  0.3655
  785loPI   C6A11888  11.473  10.328   8.052 -0.2651  0.3718 -0.0349
  785loPI   C1B11889  12.104   9.932   6.483 -0.1371 -0.4542  0.5147
  785loPI   C2B11890  12.064  10.053   6.917 -0.1580  0.0056 -0.2328
  785loPI   C3B11891  12.139  10.044   7.366  0.0092  0.1203  0.3804
  785loPI   C4B11892  12.255  10.145   7.765 -0.1703 -0.1043 -0.1921
  786loPI    C111893  11.983  13.623   5.580  0.1626 -0.0648 -0.0551
  786loPI    C211894  11.847  13.860   5.287  0.2119 -0.0597 -0.0741
  786loPI    C311895  12.186  13.953   5.478 -0.0323  0.1598  0.2644
  786loPI   PO411896  11.807  13.593   5.738  0.0405  0.0060 -0.1418
  786loPI   GL111897  11.483  13.465   6.027 -0.0756  0.1761  0.0182
  786loPI   GL211898  11.339  13.838   6.204  0.0522 -0.0388 -0.0601
  786loPI   C1A11899  11.564  13.493   6.410  0.0745  0.3520 -0.0097
  786loPI   C2A11900  11.920  13.307   6.672 -0.1856 -0.1034  0.0662
  786loPI   C3A11901  12.141  13.237   7.135 -0.0648  0.0496 -0.0446
  786loPI   C4A11902  12.109  13.252   7.596 -0.0289 -0.0194  0.0729
  786loPI   C5A11903  12.078  13.042   7.919 -0.0535 -0.1203 -0.2378
  786loPI   C6A11904  12.019  12.757   8.307  0.0540  0.1884  0.0795
  786loPI   C1B11905  11.462  13.963   6.574  0.1127 -0.0224  0.2057
  786loPI   C2B11906  11.573  14.047   7.026  0.0407 -0.2957  0.0394
  786loPI   C3B11907  11.665  14.077   7.443 -0.2445 -0.1002  0.0511
  786loPI   C4B11908  11.911  14.192   7.862 -0.2135  0.2991 -0.2886
  787loPI    C111909   4.369  15.731   5.478 -0.1502  0.3664 -0.2037
  787loPI    C211910   4.706  15.550   5.362 -0.1983  0.2653 -0.1866
  787loPI    C311911   4.409  15.606   5.100 -0.2947  0.0652 -0.1224
  787loPI   PO411912   4.322  15.691   5.644  0.0406  0.0704 -0.1286
  787loPI   GL111913   4.329  15.489   5.995 -0.1548  0.0383 -0.2740
  787loPI   GL211914   4.711  15.492   5.834  0.4467  0.1056 -0.3660
  787loPI   C1A11915   4.083  15.354   6.323  0.0666  0.2681  0.3114
  787loPI   C2A11916   4.130  15.180   6.840 -0.2532 -0.0168  0.0542
  787loPI   C3A11917   4.461  15.205   7.136  0.0395 -0.1458  0.0236
  787loPI   C4A11918   4.515  15.253   7.470  0.0756  0.1346  0.0375
  787loPI   C5A11919   4.317  15.614   7.758  0.2336  0.0723  0.0688
  787loPI   C6A11920   4.492  16.087   7.892  0.2162  0.0984  0.1509
  787loPI   C1B11921   4.689  15.781   6.209  0.1188 -0.1061 -0.2600
  787loPI   C2B11922   4.844  16.036   6.639 -0.2772 -0.2429 -0.0511
  787loPI   C3B11923   4.826  16.033   7.057  0.0614 -0.0576 -0.0420
  787loPI   C4B11924   4.725  16.148   7.409 -0.0863 -0.0905 -0.0859
  788loPI    C111925   5.195  11.577   5.381  0.0022 -0.0876  0.0727
  788loPI    C211926   5.244  11.871   5.114  0.0739  0.0148  0.1970
  788loPI    C311927   5.195  11.493   4.990 -0.1019  0.0894  0.0335
  788loPI   PO411928   5.019  11.707   5.572 -0.0408 -0.1161 -0.0645
  788loPI   GL111929   4.851  11.790   5.887 -0.2116  0.0766 -0.2593
  788loPI   GL211930   4.836  12.107   5.963 -0.0511 -0.1022  0.1609
  788loPI   C1A11931   4.763  11.573   6.259 -0.1213  0.0835  0.1644
  788loPI   C2A11932   4.843  11.475   6.647 -0.0156 -0.2564 -0.1380
  788loPI   C3A11933   4.923  11.530   7.100  0.3942  0.1313  0.4107
  788loPI   C4A11934   4.900  11.454   7.575 -0.1381  0.3490  0.0447
  788loPI   C5A11935   4.888  11.375   7.958  0.1398 -0.2486 -0.0452
  788loPI   C6A11936   5.227  11.113   8.056  0.0505  0.1360 -0.0688
  788loPI   C1B11937   4.680  12.078   6.308 -0.0518  0.0889 -0.2901
  788loPI   C2B11938   4.471  11.841   6.548 -0.0152 -0.1875 -0.1020
  788loPI   C3B11939   4.469  11.788   7.036 -0.0045 -0.0919  0.3110
  788loPI   C4B11940   4.449  11.827   7.454 -0.0165  0.2089  0.1359
  789loPI    C111941   6.178   0.952   5.659 -0.1878  0.2246  0.1583
  789loPI    C211942   6.174   1.350   5.707 -0.4463  0.2426  0.0115
  789loPI    C311943   6.300   1.191   5.362 -0.1644  0.1863  0.1370
  789loPI   PO411944   5.981   0.895   5.826  0.2681 -0.0241  0.2653
  789loPI   GL111945   5.827   1.009   6.204  0.1126 -0.0743 -0.0524
  789loPI   GL211946   5.788   1.054   6.434  0.0819 -0.2659  0.0254
  789loPI   C1A11947   5.601   0.666   6.607 -0.0610 -0.2056 -0.1421
  789loPI   C2A11948   5.610   0.526   6.966 -0.1075  0.1059 -0.0204
  789loPI   C3A11949   5.680   0.621   7.371  0.0877 -0.1280  0.5063
  789loPI   C4A11950   5.722   0.577   7.765  0.0625  0.0388 -0.0072
  789loPI   C5A11951   5.826   0.811   8.167  0.0841 -0.1304 -0.3928
  789loPI   C6A11952   5.764   1.201   8.386  0.0972 -0.1014  0.0541
  789loPI   C1B11953   5.873   1.047   6.852  0.5740 -0.0573 -0.0393
  789loPI   C2B11954   5.931   1.099   7.220 -0.1257 -0.1117  0.0326
  789loPI   C3B11955   5.965   1.039   7.698 -0.0977 -0.0021 -0.3272
  789loPI   C4B11956   6.168   1.130   8.029  0.0101 -0.2123  0.3595
  790loPI    C111957   7.424  14.909   5.668  0.2362 -0.1693 -0.2873
  790loPI    C211958   7.657  15.195   5.513  0.0648  0.0722 -0.1064
  790loPI    C311959   7.304  15.111   5.344 -0.0070  0.1577  0.0003
  790loPI   PO411960   7.424  14.967   5.922  0.1242  0.0499  0.0068
  790loPI   GL111961   7.138  14.738   6.163  0.0777  0.0371  0.0161
  790loPI   GL211962   6.964  14.912   6.262 -0.2741 -0.1338  0.0317
  790loPI   C1A11963   7.334  14.695   6.528  0.1211  0.0917  0.2390
  790loPI   C2A11964   7.372  14.724   6.994  0.1832  0.1515  0.1368
  790loPI   C3A11965   7.207  14.861   7.449  0.1230  0.1323 -0.1162
  790loPI   C4A11966   7.219  14.965   7.879 -0.1435 -0.0714 -0.5412
  790loPI   C5A11967   7.507  15.119   8.221 -0.0037  0.3154 -0.1020
  790loPI   C6A11968   7.739  15.347   8.440 -0.1590  0.2516 -0.1652
  790loPI   C1B11969   6.794  14.724   6.672  0.1882 -0.1172 -0.1537
  790loPI   C2B11970   6.714  14.773   7.095  0.0036  0.1373 -0.1513
  790loPI   C3B11971   6.632  14.871   7.461  0.0151 -0.0125 -0.0297
  790loPI   C4B11972   6.764  14.853   7.852  0.2143 -0.2053 -0.4136
  791loPI    C111973   5.389  16.959   5.607  0.3161  0.2062  0.0569
  791loPI    C211974   5.493  16.902   5.225 -0.0763 -0.0783 -0.0137
  791loPI    C311975   5.770  17.009   5.494  0.2187  0.0475 -0.3588
  791loPI   PO411976   5.225  16.813   5.661  0.1161  0.0242 -0.1616
  791loPI   GL111977   5.111  16.630   6.059 -0.2618 -0.0034  0.6169
  791loPI   GL211978   5.170  16.954   6.180  0.1459  0.0298 -0.1694
  791loPI   C1A11979   5.209  16.473   6.441  0.0343 -0.1016 -0.1812
  791loPI   C2A11980   5.124  16.413   6.870  0.1395 -0.2880  0.3525
  791loPI   C3A11981   5.102  16.505   7.218 -0.1723 -0.0974  0.0161
  791loPI   C4A11982   5.174  16.427   7.655  0.1325  0.2771  0.0570
  791loPI   C5A11983   5.351  16.495   8.077 -0.1380 -0.0261  0.1598
  791loPI   C6A11984   5.191  16.661   8.528  0.1117  0.0231  0.1284
  791loPI   C1B11985   4.993  16.959   6.516 -0.1679 -0.1454  0.0680
  791loPI   C2B11986   5.020  16.945   6.990  0.1418 -0.1751 -0.0912
  791loPI   C3B11987   5.010  17.016   7.421 -0.0597 -0.0767  0.1001
  791loPI   C4B11988   5.056  16.929   7.875 -0.3016 -0.0388 -0.0659
  792loPI    C111989  13.710   8.542   5.224  0.0371 -0.0302 -0.1474
  792loPI    C211990  13.736   8.737   5.572  0.0823 -0.3472  0.0307
  792loPI    C311991  13.997   8.815   5.280  0.0145 -0.0448  0.0468
  792loPI   PO411992  13.424   8.379   5.348  0.0655  0.1794 -0.2142
  792loPI   GL111993  13.288   8.470   5.796 -0.1619  0.0257 -0.3834
  792loPI   GL211994  12.943   8.527   5.910 -0.1704  0.3351  0.2677
  792loPI   C1A11995  13.306   8.156   6.097 -0.2493  0.2844 -0.0161
  792loPI   C2A11996  13.242   7.978   6.465 -0.1586  0.2120  0.2296
  792loPI   C3A11997  13.335   7.925   6.887  0.0186  0.1432 -0.1346
  792loPI   C4A11998  13.278   8.004   7.345  0.0770 -0.1848  0.0366
  792loPI   C5A11999  13.023   8.131   7.603 -0.1941 -0.0107 -0.0929
  792loPI   C6A12000  12.646   8.127   7.502 -0.1743  0.1632 -0.2588
  792loPI   C1B12001  12.791   8.339   6.260 -0.3346 -0.1556 -0.1719
  792loPI   C2B12002  12.695   8.171   6.605  0.2140  0.0596 -0.4327
  792loPI   C3B12003  12.793   8.210   6.998 -0.1494 -0.5498  0.1108
  792loPI   C4B12004  12.888   8.594   7.382  0.1248  0.0437  0.0870
  793loPI    C112005  14.726   4.306   5.148 -0.0074 -0.1343 -0.0871
  793loPI    C212006  15.061   4.406   4.954  0.1488  0.0035  0.2452
  793loPI    C312007  14.786   4.685   5.034 -0.0410 -0.1058 -0.0099
  793loPI   PO412008  14.851   4.245   5.409  0.1486 -0.0151  0.0865
  793loPI   GL112009  15.107   4.080   5.807 -0.0818  0.0457 -0.3871
  793loPI   GL212010  14.779   4.128   5.937  0.2532 -0.0872 -0.0228
  793loPI   C1A12011  15.243   3.875   6.246  0.0461  0.1634  0.1360
  793loPI   C2A12012  15.341   3.883   6.731  0.0388  0.2684  0.0220
  793loPI   C3A12013  15.263   3.887   7.138  0.0218 -0.0429  0.0041
  793loPI   C4A12014  15.301   3.763   7.504 -0.1216 -0.0110  0.1448
  793loPI   C5A12015  15.316   3.355   7.744 -0.2874  0.1164  0.1005
  793loPI   C6A12016  15.003   3.118   8.001  0.0370 -0.2254 -0.0974
  793loPI   C1B12017  14.723   4.118   6.351 -0.0955  0.5217  0.2630
  793loPI   C2B12018  14.889   4.103   6.727  0.3288 -0.0597 -0.0912
  793loPI   C3B12019  14.888   4.163   7.190 -0.0385 -0.1039 -0.1287
  793loPI   C4B12020  14.871   4.449   7.632 -0.0119  0.4248  0.3209
  794loPI    C112021   6.239   1.933   5.445  0.1842 -0.1778  0.0786
  794loPI    C212022   5.986   1.960   5.137  0.0474 -0.1081  0.1960
  794loPI    C312023   6.302   1.716   5.115  0.0563 -0.0800 -0.0110
  794loPI   PO412024   6.145   1.841   5.607  0.0077  0.1727  0.0297
  794loPI   GL112025   6.173   1.769   5.953 -0.0492  0.1712  0.1957
  794loPI   GL212026   6.091   2.091   6.000  0.0438  0.1218 -0.2125
  794loPI   C1A12027   6.230   1.540   6.347 -0.1108 -0.1803 -0.2003
  794loPI   C2A12028   6.212   1.480   6.827 -0.0054  0.0311  0.0583
  794loPI   C3A12029   6.302   1.585   7.230 -0.2482 -0.0889 -0.2621
  794loPI   C4A12030   6.257   1.475   7.635  0.0080 -0.1742  0.0035
  794loPI   C5A12031   6.200   1.667   7.982  0.1585 -0.0165  0.0887
  794loPI   C6A12032   5.969   1.772   8.443 -0.1328 -0.0498 -0.0307
  794loPI   C1B12033   5.916   2.054   6.327  0.2161  0.1016  0.1794
  794loPI   C2B12034   5.936   2.110   6.878 -0.4325  0.3543  0.0622
  794loPI   C3B12035   5.905   2.042   7.246 -0.0256  0.0833  0.1432
  794loPI   C4B12036   6.063   2.023   7.618 -0.2949 -0.1085  0.0129
  795loPI    C112037  17.249  17.681   5.725 -0.1612  0.0803  0.0731
  795loPI    C212038  17.178  17.412   5.438 -0.0117 -0.0084  0.1179
  795loPI    C312039  17.335  17.768   5.344 -0.1364  0.0344  0.0682
  795loPI   PO412040  17.143  17.553   5.916 -0.1493  0.3433  0.0385
  795loPI   GL112041  17.016  17.396   6.239 -0.0944 -0.2999  0.0356
  795loPI   GL212042  17.345  17.264   6.234  0.0751 -0.2331  0.0038
  795loPI   C1A12043  17.215  17.456   6.721  0.1918 -0.1619 -0.0523
  795loPI   C2A12044  17.256  17.276   7.214 -0.0054 -0.2386  0.2072
  795loPI   C3A12045  17.185  17.187   7.579 -0.0736 -0.0636  0.2006
  795loPI   C4A12046  17.126  16.929   8.016 -0.1648 -0.0454 -0.1710
  795loPI   C5A12047  17.166  17.273   8.357  0.1961 -0.3823 -0.0497
  795loPI   C6A12048  17.075  17.719   8.299 -0.2099 -0.0090  0.0744
  795loPI   C1B12049  17.530  17.087   6.668 -0.0429  0.2971  0.0748
  795loPI   C2B12050  17.727  17.132   7.120  0.4419  0.0653  0.1191
  795loPI   C3B12051  17.643  16.989   7.461  0.0059  0.0962  0.1098
  795loPI   C4B12052  17.454  16.791   7.727 -0.0569 -0.0795 -0.0883
  796loPI    C112053  10.220   6.044   5.297  0.0641  0.2401  0.0469
  796loPI    C212054   9.884   5.961   5.097  0.0529  0.1784  0.0912
  796loPI    C312055  10.215   6.061   4.897  0.0986 -0.0881  0.0293
  796loPI   PO412056  10.239   5.897   5.440 -0.0685 -0.0206  0.3163
  796loPI   GL112057  10.115   5.582   5.867 -0.0478  0.2085 -0.1155
  796loPI   GL212058  10.011   5.285   5.849 -0.2480  0.0086 -0.1065
  796loPI   C1A12059  10.205   5.501   6.303  0.2104 -0.2844  0.3082
  796loPI   C2A12060  10.249   5.426   6.748  0.0133 -0.0534  0.2207
  796loPI   C3A12061  10.282   5.416   7.206 -0.2942  0.1345 -0.0004
  796loPI   C4A12062  10.358   5.360   7.635  0.1003 -0.0320 -0.2335
  796loPI   C5A12063  10.501   5.780   7.871 -0.1529  0.1819 -0.2187
  796loPI   C6A12064  10.452   6.204   7.869 -0.0121  0.4174  0.2363
  796loPI   C1B12065   9.946   5.032   6.247 -0.1492  0.3549  0.3538
  796loPI   C2B12066   9.859   5.184   6.589  0.1108  0.3526 -0.1181
  796loPI   C3B12067   9.882   5.096   6.995  0.2833 -0.2071  0.0285
  796loPI   C4B12068   9.679   4.890   7.445  0.3625 -0.1965  0.0569
  797loPI    C112069  16.142   6.571   5.044  0.0480  0.0916 -0.1393
  797loPI    C212070  15.922   6.766   4.773 -0.0093  0.0712 -0.1077
  797loPI    C312071  16.321   6.788   4.759 -0.0066 -0.0725 -0.2999
  797loPI   PO412072  16.104   6.618   5.254 -0.1841  0.1477 -0.0160
  797loPI   GL112073  16.082   6.375   5.711 -0.0482  0.1559 -0.1229
  797loPI   GL212074  15.713   6.475   5.660 -0.3204  0.0823  0.0368
  797loPI   C1A12075  16.418   6.599   6.083  0.2308  0.2850  0.0447
  797loPI   C2A12076  16.855   6.722   6.191  0.0716  0.2159  0.1369
  797loPI   C3A12077  16.967   6.644   6.629  0.2747 -0.4614  0.0728
  797loPI   C4A12078  17.004   6.507   7.065  0.1700  0.3841 -0.1193
  797loPI   C5A12079  17.000   6.705   7.456 -0.4428  0.0643 -0.0666
  797loPI   C6A12080  17.294   6.553   7.757  0.2522 -0.1874 -0.0620
  797loPI   C1B12081  15.766   6.411   6.116  0.1856 -0.0832 -0.0179
  797loPI   C2B12082  15.664   6.222   6.526 -0.0155  0.3064 -0.3173
  797loPI   C3B12083  15.628   6.192   6.844  0.0486  0.0483 -0.1869
  797loPI   C4B12084  15.685   5.893   7.262 -0.0008  0.3613  0.0906
  798loPI    C112085  12.140  15.346   5.840  0.1341 -0.1975  0.0391
  798loPI    C212086  12.093  14.949   5.859  0.0817 -0.1954 -0.0410
  798loPI    C312087  12.375  15.106   5.624  0.0719 -0.1833 -0.0448
  798loPI   PO412088  11.912  15.445   5.886  0.0377 -0.1034  0.0964
  798loPI   GL112089  11.735  15.748   6.207  0.0437 -0.2067  0.1234
  798loPI   GL212090  11.576  15.348   6.258  0.1853  0.0061 -0.3631
  798loPI   C1A12091  11.542  15.953   6.555  0.0822 -0.1203  0.0579
  798loPI   C2A12092  11.562  16.086   6.955 -0.4979  0.1706 -0.2716
  798loPI   C3A12093  11.711  16.027   7.341 -0.0146 -0.1520  0.1160
  798loPI   C4A12094  11.629  15.979   7.733 -0.0658  0.1359 -0.0665
  798loPI   C5A12095  11.528  15.940   8.201 -0.2298 -0.0342 -0.0644
  798loPI   C6A12096  11.193  15.960   8.296 -0.0095 -0.2836 -0.1000
  798loPI   C1B12097  11.402  15.333   6.759  0.1178 -0.2094 -0.4162
  798loPI   C2B12098  11.454  15.551   7.132  0.0792  0.1158  0.3976
  798loPI   C3B12099  11.256  15.781   7.402  0.2777 -0.0418 -0.0142
  798loPI   C4B12100  11.174  15.700   7.861  0.2194 -0.1034  0.4584
  799loPI    C112101  12.847  15.075   5.720  0.1370 -0.2124 -0.0205
  799loPI    C212102  13.133  15.031   5.444 -0.0151  0.0875 -0.2316
  799loPI    C312103  12.779  15.187   5.342 -0.0888  0.1625  0.1258
  799loPI   PO412104  13.046  14.902   5.923  0.0387 -0.3194 -0.1676
  799loPI   GL112105  12.936  14.620   6.372  0.2222  0.0258 -0.1836
  799loPI   GL212106  13.151  14.380   6.503 -0.0061 -0.0893 -0.0903
  799loPI   C1A12107  12.955  14.765   6.776  0.2575  0.1936  0.0050
  799loPI   C2A12108  12.972  14.801   7.266  0.0929  0.4464  0.0124
  799loPI   C3A12109  13.095  14.759   7.663 -0.1722  0.0330  0.0350
  799loPI   C4A12110  13.301  14.487   7.951  0.0872 -0.2722  0.0024
  799loPI   C5A12111  13.352  14.187   8.309  0.0101 -0.1457 -0.0029
  799loPI   C6A12112  13.381  13.794   8.310 -0.1415  0.3525 -0.1252
  799loPI   C1B12113  12.988  14.283   6.952 -0.0888 -0.0378  0.2774
  799loPI   C2B12114  13.059  14.372   7.349  0.1096 -0.1181  0.1190
  799loPI   C3B12115  12.823  14.416   7.821  0.2521 -0.0533  0.0571
  799loPI   C4B12116  12.902  14.436   8.207  0.0611 -0.0804 -0.0704
  800loPI    C112117   7.391  14.180   5.341  0.1842 -0.1625 -0.0681
  800loPI    C212118   7.622  14.505   5.370 -0.0574  0.0396 -0.3484
  800loPI    C312119   7.624  14.288   5.034  0.0385 -0.2037 -0.1941
  800loPI   PO412120   7.355  13.991   5.585  0.0299  0.2896  0.0950
  800loPI   GL112121   7.230  14.002   6.073  0.0356  0.1641 -0.3180
  800loPI   GL212122   7.396  14.283   6.285 -0.0996  0.1998 -0.3645
  800loPI   C1A12123   7.161  13.891   6.494 -0.3074 -0.0057 -0.0205
  800loPI   C2A12124   7.049  13.879   6.863  0.3071 -0.1339  0.0883
  800loPI   C3A12125   7.161  13.928   7.137 -0.0957 -0.0656 -0.1372
  800loPI   C4A12126   7.101  13.877   7.560  0.2353 -0.0721  0.2286
  800loPI   C5A12127   7.175  14.041   8.034 -0.1574  0.3507  0.3025
  800loPI   C6A12128   6.938  14.294   8.278  0.1185 -0.2848  0.0173
  800loPI   C1B12129   7.485  14.251   6.658  0.0632  0.1252  0.1058
  800loPI   C2B12130   7.572  14.262   7.077  0.0377 -0.3411 -0.0588
  800loPI   C3B12131   7.463  14.244   7.591  0.1400  0.1670  0.0745
  800loPI   C4B12132   7.249  14.491   7.790  0.1479  0.0419 -0.1072
  801loPI    C112133   4.791   4.193   5.307 -0.1148 -0.0789 -0.0057
  801loPI    C212134   4.909   4.068   4.946  0.1305  0.1607 -0.0124
  801loPI    C312135   4.519   4.092   5.032  0.0737 -0.1725 -0.1606
  801loPI   PO412136   4.982   4.024   5.538  0.1075 -0.0580 -0.1808
  801loPI   GL112137   5.079   4.110   5.955  0.3296  0.0239  0.0331
  801loPI   GL212138   5.226   3.915   6.079  0.1246  0.0136  0.0715
  801loPI   C1A12139   5.019   4.242   6.374 -0.0447 -0.3669  0.1690
  801loPI   C2A12140   4.938   4.243   6.719  0.0948 -0.0440 -0.4042
  801loPI   C3A12141   5.009   4.244   7.154 -0.0395 -0.1463  0.1969
  801loPI   C4A12142   4.900   4.187   7.612 -0.1606 -0.0307 -0.1081
  801loPI   C5A12143   4.922   4.020   8.027  0.1731  0.0526  0.0558
  801loPI   C6A12144   4.935   3.993   8.462  0.0208  0.1741 -0.1784
  801loPI   C1B12145   5.338   3.824   6.459 -0.0329 -0.1533  0.0026
  801loPI   C2B12146   5.278   3.760   6.865  0.3779 -0.0529 -0.0947
  801loPI   C3B12147   5.307   3.751   7.238  0.1480  0.1762 -0.0728
  801loPI   C4B12148   5.231   3.817   7.687  0.1682  0.3462 -0.0875
  802loPI    C112149   4.120  18.018   5.577 -0.0301 -0.0629 -0.2844
  802loPI    C212150   4.169  18.157   5.205 -0.1025  0.1373 -0.2201
  802loPI    C312151   4.164  18.411   5.515  0.1140 -0.0426 -0.0662
  802loPI   PO412152   3.874  17.904   5.628  0.1084  0.0378  0.2011
  802loPI   GL112153   3.927  17.752   6.078  0.4121  0.0468  0.1499
  802loPI   GL212154   4.014  18.022   6.089 -0.3476 -0.2484  0.1017
  802loPI   C1A12155   4.018  17.946   6.556 -0.1367 -0.1018  0.0336
  802loPI   C2A12156   3.940  17.884   6.986 -0.2663  0.1466  0.1463
  802loPI   C3A12157   3.992  17.939   7.423 -0.2447 -0.0081  0.4267
  802loPI   C4A12158   3.912  17.979   7.780 -0.1635 -0.3008  0.4526
  802loPI   C5A12159   4.116  17.901   8.023 -0.0467  0.2688 -0.2108
  802loPI   C6A12160   4.035  17.862   8.438  0.3739 -0.3119 -0.1094
  802loPI   C1B12161   4.366  18.259   6.304  0.0475  0.1707  0.1296
  802loPI   C2B12162   4.387  18.257   6.732  0.0658  0.0718 -0.0055
  802loPI   C3B12163   4.295  18.346   7.174  0.0132 -0.1581  0.1459
  802loPI   C4B12164   4.359  18.398   7.644 -0.2640  0.3441  0.5058
  803loPI    C112165   3.425   3.349   5.285  0.0216  0.1572 -0.0125
  803loPI    C212166   3.129   3.372   5.016 -0.1125  0.0884  0.1274
  803loPI    C312167   3.462   3.589   4.967 -0.2018  0.1959 -0.0110
  803loPI   PO412168   3.361   3.369   5.494 -0.0786 -0.1882  0.2357
  803loPI   GL112169   3.351   3.514   5.869  0.2353 -0.0080  0.1968
  803loPI   GL212170   3.679   3.736   5.987 -0.1343  0.1396 -0.0340
  803loPI   C1A12171   2.943   3.460   5.988  0.0958  0.1323 -0.1148
  803loPI   C2A12172   2.842   3.367   6.303 -0.1974  0.2197  0.1035
  803loPI   C3A12173   2.763   3.311   6.723  0.3209  0.0283 -0.0461
  803loPI   C4A12174   2.773   3.270   7.167  0.0033  0.0881  0.2321
  803loPI   C5A12175   2.831   3.189   7.527  0.1510 -0.3104 -0.0780
  803loPI   C6A12176   3.021   3.287   7.938  0.0109 -0.0952  0.0202
  803loPI   C1B12177   3.740   3.759   6.419  0.0178 -0.4318  0.0938
  803loPI   C2B12178   3.685   3.793   6.827  0.0052 -0.0337  0.1192
  803loPI   C3B12179   3.606   3.854   7.244 -0.1271  0.5792  0.2398
  803loPI   C4B12180   3.630   3.840   7.761 -0.0269 -0.1086 -0.2580
  804loPI    C112181  17.282  14.306   5.765 -0.2239 -0.2720 -0.1479
  804loPI    C212182  17.592  14.559   5.766 -0.1292 -0.3837  0.1595
  804loPI    C312183  17.387  14.493   5.428 -0.2079  0.1635  0.0910
  804loPI   PO412184  17.252  14.262   5.970 -0.1779  0.1262 -0.1814
  804loPI   GL112185  17.070  14.522   6.304  0.0040  0.0822  0.1777
  804loPI   GL212186  17.438  14.601   6.254  0.2551 -0.1910 -0.0327
  804loPI   C1A12187  16.977  14.600   6.786  0.1011 -0.2643  0.0554
  804loPI   C2A12188  16.966  14.662   7.193  0.0766 -0.0887  0.1210
  804loPI   C3A12189  17.194  14.805   7.583 -0.2364  0.1090  0.0482
  804loPI   C4A12190  17.236  14.882   8.021 -0.0572  0.0354  0.0292
  804loPI   C5A12191  17.430  15.004   8.341 -0.2501 -0.0125 -0.1471
  804loPI   C6A12192  17.523  15.454   8.272  0.3702  0.1614 -0.2640
  804loPI   C1B12193  17.694  14.586   6.541  0.0160 -0.0801 -0.2401
  804loPI   C2B12194  18.086  14.647   6.729 -0.1794 -0.0906 -0.1775
  804loPI   C3B12195  18.377  14.608   7.008  0.0316 -0.1490 -0.1631
  804loPI   C4B12196  18.423  14.638   7.434  0.1410 -0.0941  0.1359
  805loPI    C112197   1.728   9.182   5.356 -0.2055  0.2920 -0.0638
  805loPI    C212198   1.645   8.856   5.141 -0.0619  0.1586  0.0806
  805loPI    C312199   1.730   9.200   4.956  0.1365  0.0268 -0.0782
  805loPI   PO412200   1.873   9.003   5.534 -0.1078 -0.1573  0.0702
  805loPI   GL112201   1.894   8.801   5.903  0.0867 -0.0122 -0.1896
  805loPI   GL212202   2.151   9.049   5.968 -0.0110 -0.2715 -0.1564
  805loPI   C1A12203   1.644   8.701   6.088 -0.1036 -0.1936 -0.3871
  805loPI   C2A12204   1.543   8.616   6.524  0.0637  0.0622 -0.0731
  805loPI   C3A12205   1.638   8.599   6.942 -0.0831 -0.1591  0.0958
  805loPI   C4A12206   1.632   8.313   7.334  0.0705 -0.1742 -0.0114
  805loPI   C5A12207   1.754   8.218   7.660 -0.2990  0.2144  0.1301
  805loPI   C6A12208   1.722   7.868   7.950 -0.0856 -0.0851  0.1714
  805loPI   C1B12209   2.077   8.911   6.358  0.0229  0.0996 -0.1168
  805loPI   C2B12210   2.280   8.826   6.753 -0.2394  0.2159  0.3334
  805loPI   C3B12211   2.216   8.970   7.166  0.0571  0.0051 -0.0188
  805loPI   C4B12212   2.189   9.055   7.593 -0.0709  0.0510 -0.1136
  806loPI    C112213   6.181  15.028   5.287  0.0904 -0.1160 -0.0754
  806loPI    C212214   5.818  15.078   5.126  0.0340  0.0124  0.0889
  806loPI    C312215   5.969  14.710   5.169  0.0595 -0.0228 -0.2756
  806loPI   PO412216   6.150  15.142   5.523  0.1910 -0.0978 -0.1283
  806loPI   GL112217   6.043  15.267   5.918  0.0528  0.1202  0.3940
  806loPI   GL212218   6.221  15.448   5.933  0.2233  0.2833  0.1209
  806loPI   C1A12219   5.754  15.027   6.237  0.0496 -0.1473 -0.1171
  806loPI   C2A12220   5.745  14.994   6.676 -0.0125 -0.3025  0.2341
  806loPI   C3A12221   5.643  15.015   7.036 -0.2108  0.2605 -0.1448
  806loPI   C4A12222   5.626  15.095   7.437  0.1188  0.1492  0.2758
  806loPI   C5A12223   5.893  15.193   7.901 -0.1931 -0.3543 -0.1251
  806loPI   C6A12224   6.077  15.471   8.143  0.1465  0.1365 -0.1598
  806loPI   C1B12225   6.109  15.487   6.320  0.0495  0.2723  0.0984
  806loPI   C2B12226   6.117  15.375   6.723 -0.0609 -0.1537 -0.2865
  806loPI   C3B12227   6.037  15.399   7.094 -0.1974 -0.0054 -0.0631
  806loPI   C4B12228   6.015  15.497   7.545 -0.0355  0.1100  0.2028
  807loPI    C112229  15.741  14.720   5.859  0.2478 -0.1555 -0.0638
  807loPI    C212230  15.903  14.831   5.511  0.3499 -0.0124  0.0280
  807loPI    C312231  16.075  14.939   5.855  0.0178  0.2081  0.1300
  807loPI   PO412232  15.554  14.537   5.924  0.1011  0.0920 -0.1827
  807loPI   GL112233  15.783  14.254   6.283  0.0977  0.2087  0.1723
  807loPI   GL212234  15.575  13.911   6.278  0.0755 -0.1663 -0.0571
  807loPI   C1A12235  15.560  14.328   6.647 -0.3223  0.0354  0.2108
  807loPI   C2A12236  15.675  14.117   6.931 -0.1225  0.0089  0.0549
  807loPI   C3A12237  15.699  14.251   7.395  0.0682 -0.1756 -0.0860
  807loPI   C4A12238  15.598  14.233   7.798  0.2919 -0.1188 -0.1816
  807loPI   C5A12239  15.769  14.178   8.146 -0.1974  0.1003  0.1745
  807loPI   C6A12240  15.826  14.271   8.577  0.2381 -0.1280 -0.2007
  807loPI   C1B12241  15.539  13.638   6.645  0.1346  0.0629  0.1577
  807loPI   C2B12242  15.592  13.592   7.080  0.0732 -0.1679  0.2756
  807loPI   C3B12243  15.676  13.671   7.513  0.1578 -0.0271 -0.3707
  807loPI   C4B12244  15.583  13.670   8.023 -0.1008  0.2960 -0.0687
  808loPI    C112245  13.282  14.161   5.424 -0.2458 -0.1090  0.1379
  808loPI    C212246  13.126  14.529   5.431  0.2889  0.1269  0.1422
  808loPI    C312247  13.235  14.365   5.083 -0.0748 -0.0895  0.1250
  808loPI   PO412248  13.344  14.039   5.676  0.0725 -0.0194  0.1526
  808loPI   GL112249  13.333  13.988   6.236  0.0421  0.3900 -0.0169
  808loPI   GL212250  12.998  13.884   6.133 -0.1055  0.1348 -0.0728
  808loPI   C1A12251  13.279  13.780   6.586  0.3344 -0.0303  0.0261
  808loPI   C2A12252  13.323  13.396   6.868 -0.2053  0.0259  0.0751
  808loPI   C3A12253  13.421  13.082   7.157  0.1179  0.5270  0.0957
  808loPI   C4A12254  13.404  12.986   7.550 -0.1477 -0.1351  0.0894
  808loPI   C5A12255  13.274  13.147   7.984  0.0677 -0.1083 -0.3552
  808loPI   C6A12256  12.903  13.281   8.164 -0.1158 -0.0060  0.2281
  808loPI   C1B12257  12.775  14.026   6.437  0.0098 -0.0237 -0.1014
  808loPI   C2B12258  12.580  14.407   6.612  0.1771  0.1249  0.1756
  808loPI   C3B12259  12.472  14.540   6.972 -0.0142 -0.4512  0.1745
  808loPI   C4B12260  12.579  14.517   7.383  0.3550 -0.3903  0.2182
  809loPI    C112261   2.377  15.397   5.581 -0.1067 -0.0800  0.0338
  809loPI    C212262   2.437  15.178   5.251  0.0270 -0.1475  0.1021
  809loPI    C312263   2.704  15.169   5.549 -0.0644 -0.0423  0.1883
  809loPI   PO412264   2.122  15.482   5.838 -0.1385  0.0008  0.2713
  809loPI   GL112265   2.101  15.577   6.251  0.1563  0.0646 -0.0844
  809loPI   GL212266   1.838  15.615   6.335  0.0969 -0.2423 -0.0520
  809loPI   C1A12267   2.168  15.353   6.621  0.0082 -0.0144  0.2989
  809loPI   C2A12268   2.077  15.260   7.016  0.2178 -0.3272 -0.0077
  809loPI   C3A12269   2.341  15.074   7.282 -0.3285  0.0381  0.2120
  809loPI   C4A12270   2.586  15.117   7.730  0.0988  0.0480 -0.0740
  809loPI   C5A12271   2.690  14.778   7.931 -0.1036  0.2086  0.0298
  809loPI   C6A12272   2.860  14.331   7.965  0.0641  0.2489  0.1111
  809loPI   C1B12273   1.829  15.728   6.714  0.2566 -0.2086  0.2332
  809loPI   C2B12274   1.851  15.698   7.178 -0.3390 -0.1013 -0.1258
  809loPI   C3B12275   2.036  15.562   7.522  0.0220 -0.2315  0.3016
  809loPI   C4B12276   1.949  15.217   7.833 -0.0881 -0.2195  0.1254
  810loPI    C112277   6.361  16.671   5.379  0.0989 -0.1733  0.0373
  810loPI    C212278   6.644  16.811   5.134 -0.0938  0.0948 -0.0369
  810loPI    C312279   6.398  16.521   5.010  0.0695 -0.0554 -0.0139
  810loPI   PO412280   6.225  16.793   5.440 -0.1015 -0.0754 -0.1070
  810loPI   GL112281   5.991  16.798   5.880  0.2270  0.2613 -0.2690
  810loPI   GL212282   5.642  16.838   5.995 -0.1694  0.0873 -0.2652
  810loPI   C1A12283   6.090  16.786   6.326  0.1810  0.3075  0.0268
  810loPI   C2A12284   5.995  16.779   6.710  0.2251  0.3213 -0.1255
  810loPI   C3A12285   6.011  16.796   7.191  0.1255 -0.0718 -0.5097
  810loPI   C4A12286   6.115  16.840   7.666 -0.2365 -0.1233  0.0325
  810loPI   C5A12287   5.911  16.643   8.098  0.1209  0.3160 -0.0369
  810loPI   C6A12288   5.665  16.608   8.483 -0.0044 -0.5188  0.1191
  810loPI   C1B12289   5.572  16.901   6.461 -0.2722  0.0481  0.1285
  810loPI   C2B12290   5.553  16.803   6.905  0.2602  0.2979 -0.2126
  810loPI   C3B12291   5.505  16.789   7.327 -0.4771  0.1669  0.4238
  810loPI   C4B12292   5.484  16.895   7.689 -0.0769  0.0953  0.3828
  811loPI    C112293  10.394  11.079   5.764 -0.0922  0.0523  0.0749
  811loPI    C212294  10.555  10.980   5.412  0.0622  0.3787  0.0504
  811loPI    C312295  10.162  11.051   5.439  0.0310  0.2413 -0.0308
  811loPI   PO412296  10.465  10.896   5.920  0.0638  0.2883 -0.0088
  811loPI   GL112297  10.485  10.895   6.340 -0.3634  0.1438 -0.0266
  811loPI   GL212298  10.852  10.881   6.228 -0.2157  0.1239  0.1848
  811loPI   C1A12299  10.307  10.925   6.721 -0.0312 -0.1113  0.1477
  811loPI   C2A12300  10.042  10.712   7.017 -0.2161 -0.1154 -0.1737
  811loPI   C3A12301   9.980  10.797   7.403  0.3814 -0.3275 -0.1282
  811loPI   C4A12302   9.863  10.715   7.838  0.1718  0.1873  0.0440
  811loPI   C5A12303   9.650  10.867   8.237  0.1151  0.3362  0.0464
  811loPI   C6A12304   9.904  11.042   8.528  0.0033 -0.1806  0.1136
  811loPI   C1B12305  11.139  11.025   6.551 -0.4013  0.1624 -0.0150
  811loPI   C2B12306  11.208  11.070   6.970 -0.1205 -0.2096  0.2066
  811loPI   C3B12307  10.954  10.980   7.367 -0.1157 -0.0994  0.0334
  811loPI   C4B12308  10.675  11.052   7.653 -0.0354  0.1591 -0.1250
  812loPI    C112309  15.050  11.238   5.429  0.3217  0.0271  0.2377
  812loPI    C212310  14.998  10.878   5.261  0.0932  0.1457  0.0487
  812loPI    C312311  15.179  11.170   5.056  0.0553  0.2116  0.1085
  812loPI   PO412312  15.131  11.200   5.664 -0.2093  0.0011 -0.0048
  812loPI   GL112313  15.352  11.058   5.992  0.1404  0.2333 -0.3052
  812loPI   GL212314  15.290  11.383   6.089  0.0371  0.1734 -0.2261
  812loPI   C1A12315  15.182  10.720   6.318 -0.3554  0.1327 -0.0797
  812loPI   C2A12316  15.267  10.704   6.712 -0.0754 -0.1022  0.0688
  812loPI   C3A12317  15.210  10.733   7.110  0.0675  0.2609  0.0399
  812loPI   C4A12318  15.009  10.837   7.501 -0.3201  0.0138  0.1092
  812loPI   C5A12319  14.841  10.829   7.898 -0.0553  0.0226 -0.1453
  812loPI   C6A12320  14.770  11.267   8.242  0.4495 -0.0736 -0.0679
  812loPI   C1B12321  15.333  11.287   6.510 -0.1806 -0.2894  0.0539
  812loPI   C2B12322  15.266  11.216   6.932 -0.3040 -0.1133  0.0417
  812loPI   C3B12323  15.012  11.303   7.251  0.2411 -0.0517 -0.1966
  812loPI   C4B12324  15.025  11.387   7.694  0.2354  0.0005 -0.1160
  813loPI    C112325   9.317   2.969   5.183  0.2355  0.1783  0.0905
  813loPI    C212326   9.300   2.644   4.950 -0.3593  0.0294  0.3243
  813loPI    C312327   9.646   2.840   4.995 -0.0970 -0.2948 -0.1874
  813loPI   PO412328   9.160   2.854   5.439  0.1429  0.2059 -0.2200
  813loPI   GL112329   9.343   2.648   5.927 -0.0012  0.0086  0.1409
  813loPI   GL212330   9.078   2.482   5.919  0.2533  0.0080 -0.0275
  813loPI   C1A12331   9.574   2.792   6.142  0.0838  0.0920 -0.0618
  813loPI   C2A12332   9.521   2.809   6.498  0.1067 -0.2244  0.0237
  813loPI   C3A12333   9.456   2.796   6.888  0.0899  0.1060  0.0036
  813loPI   C4A12334   9.416   2.814   7.314  0.4130  0.0283  0.0663
  813loPI   C5A12335   9.236   2.792   7.692  0.1372  0.1180 -0.0779
  813loPI   C6A12336   9.091   2.548   8.036 -0.0414  0.1098 -0.1136
  813loPI   C1B12337   9.141   2.463   6.362 -0.0944 -0.0921 -0.0711
  813loPI   C2B12338   9.120   2.372   6.689  0.0485 -0.0677  0.3528
  813loPI   C3B12339   9.045   2.475   7.041  0.0411  0.1285 -0.1651
  813loPI   C4B12340   8.993   2.440   7.479  0.0599  0.2245  0.1726
  814loPI    C112341  14.303  13.912   5.682  0.0523 -0.2368 -0.0275
  814loPI    C212342  14.149  14.202   5.453  0.1416  0.0127  0.2230
  814loPI    C312343  14.417  13.946   5.300  0.2036  0.1788  0.0501
  814loPI   PO412344  14.341  14.029   5.932  0.0352 -0.2502  0.1421
  814loPI   GL112345  14.462  14.218   6.306  0.3867 -0.0321  0.4387
  814loPI   GL212346  14.128  14.184   6.386 -0.2056 -0.4158  0.3304
  814loPI   C1A12347  14.727  14.128   6.672 -0.1061 -0.3362 -0.0260
  814loPI   C2A12348  14.789  14.089   7.056  0.2016 -0.0936  0.0359
  814loPI   C3A12349  14.772  14.159   7.489  0.1554 -0.2238 -0.0190
  814loPI   C4A12350  14.754  14.287   7.857 -0.0489 -0.1885 -0.1254
  814loPI   C5A12351  14.451  14.381   8.198  0.0018  0.3388  0.0395
  814loPI   C6A12352  14.189  14.777   8.336 -0.2056 -0.0738 -0.1359
  814loPI   C1B12353  14.236  14.195   6.720 -0.0055  0.3305 -0.2411
  814loPI   C2B12354  14.055  14.254   7.098  0.0835  0.2249  0.0012
  814loPI   C3B12355  13.934  14.347   7.436 -0.3013  0.0351  0.0582
  814loPI   C4B12356  13.528  14.517   7.495  0.1088  0.1590 -0.1510
  815loPI    C112357   2.721  12.698   5.379 -0.2547 -0.1216 -0.0606
  815loPI    C212358   2.872  12.878   5.055 -0.0716 -0.1421  0.0116
  815loPI    C312359   2.868  12.478   5.079 -0.3417 -0.1478 -0.0844
  815loPI   PO412360   2.835  12.846   5.581 -0.1827 -0.1136 -0.1707
  815loPI   GL112361   2.824  12.895   6.054 -0.3164  0.0719  0.0229
  815loPI   GL212362   3.154  12.994   5.937 -0.0960 -0.0093  0.1100
  815loPI   C1A12363   2.758  12.849   6.500 -0.3119 -0.1084 -0.0685
  815loPI   C2A12364   2.503  12.911   6.754  0.1610 -0.1990 -0.0291
  815loPI   C3A12365   2.376  12.665   7.039 -0.1446 -0.0930  0.1052
  815loPI   C4A12366   2.158  12.433   7.385  0.0751  0.3370 -0.0627
  815loPI   C5A12367   2.148  12.342   7.763  0.3466 -0.2171 -0.1436
  815loPI   C6A12368   2.463  12.412   8.151  0.0494 -0.1450  0.0013
  815loPI   C1B12369   3.223  13.212   6.332  0.1603  0.0765  0.2343
  815loPI   C2B12370   3.156  13.103   6.691 -0.2655  0.0152  0.2571
  815loPI   C3B12371   2.946  12.975   7.010 -0.5358 -0.1778 -0.2602
  815loPI   C4B12372   2.671  13.201   7.276 -0.1027 -0.0471  0.0901
  816loPI    C112373   4.312  15.195   5.433  0.1637 -0.3846  0.0332
  816loPI    C212374   4.373  14.865   5.215 -0.1457 -0.3035 -0.1823
  816loPI    C312375   4.174  15.175   5.058 -0.0190 -0.0848  0.0813
  816loPI   PO412376   4.238  15.119   5.618  0.1433 -0.0930 -0.1355
  816loPI   GL112377   4.291  14.940   6.029 -0.2308  0.0200 -0.1044
  816loPI   GL212378   4.606  14.972   5.876 -0.2977 -0.1931  0.0867
  816loPI   C1A12379   4.280  14.876   6.501  0.2032 -0.1378  0.3834
  816loPI   C2A12380   4.281  14.735   6.964  0.1716 -0.1173  0.1897
  816loPI   C3A12381   4.360  14.712   7.336 -0.0387  0.0596  0.1327
  816loPI   C4A12382   4.043  14.723   7.702  0.3704 -0.0960 -0.3208
  816loPI   C5A12383   3.633  14.567   7.849 -0.2539  0.1572 -0.2187
  816loPI   C6A12384   3.357  14.224   7.808 -0.2577 -0.0704 -0.0093
  816loPI   C1B12385   4.651  15.168   6.249  0.0585 -0.1649 -0.1438
  816loPI   C2B12386   4.584  15.263   6.626  0.2959 -0.0932  0.0154
  816loPI   C3B12387   4.574  15.615   6.842  0.1409  0.1603 -0.0371
  816loPI   C4B12388   4.448  15.707   7.269  0.1808 -0.1740 -0.1212
  817loPI    C112389   6.142   2.405   5.520  0.1766  0.0683  0.0819
  817loPI    C212390   5.793   2.214   5.560  0.3387 -0.2674 -0.0670
  817loPI    C312391   5.857   2.448   5.242  0.0495  0.2445  0.2364
  817loPI   PO412392   6.166   2.539   5.711 -0.3230  0.1867  0.3644
  817loPI   GL112393   6.375   2.437   6.065 -0.1412 -0.1557  0.2453
  817loPI   GL212394   6.709   2.465   6.130  0.1420  0.0582  0.1943
  817loPI   C1A12395   6.175   2.412   6.508  0.0652 -0.2267  0.1836
  817loPI   C2A12396   6.156   2.506   6.948 -0.0970 -0.0381  0.0129
  817loPI   C3A12397   6.162   2.445   7.336 -0.0234 -0.0157 -0.1389
  817loPI   C4A12398   6.152   2.584   7.846 -0.1205  0.1027  0.1969
  817loPI   C5A12399   5.918   2.639   8.117  0.2486 -0.1554 -0.1067
  817loPI   C6A12400   5.500   2.789   8.243 -0.0496  0.3888  0.1964
  817loPI   C1B12401   6.733   2.456   6.562  0.3842  0.0339  0.0463
  817loPI   C2B12402   6.643   2.396   6.971 -0.2755  0.0651  0.3483
  817loPI   C3B12403   6.661   2.497   7.365 -0.1830  0.2220  0.0072
  817loPI   C4B12404   6.676   2.625   7.833  0.2256  0.2627  0.0342
  818loPI    C112405  16.454   4.442   5.071 -0.0512 -0.2980  0.1014
  818loPI    C212406  16.205   4.385   4.763 -0.0996 -0.1505  0.1119
  818loPI    C312407  16.533   4.158   4.801 -0.0556 -0.1224 -0.0872
  818loPI   PO412408  16.345   4.411   5.275 -0.1737 -0.1001  0.3355
  818loPI   GL112409  16.261   4.578   5.616 -0.2326 -0.1651 -0.0959
  818loPI   GL212410  16.037   4.466   5.779 -0.0687  0.0366  0.0114
  818loPI   C1A12411  16.579   4.676   5.983  0.1562  0.1581  0.0508
  818loPI   C2A12412  16.596   4.617   6.471 -0.1050  0.0742 -0.0277
  818loPI   C3A12413  16.664   4.590   6.956  0.0611  0.2993 -0.1891
  818loPI   C4A12414  16.614   4.657   7.392  0.0300 -0.1676  0.0779
  818loPI   C5A12415  16.593   4.771   7.820 -0.0695 -0.5480 -0.1775
  818loPI   C6A12416  16.669   4.769   8.310 -0.1728  0.4129 -0.2026
  818loPI   C1B12417  16.094   4.419   6.267 -0.1069 -0.0488 -0.1265
  818loPI   C2B12418  16.210   4.397   6.725 -0.3667 -0.4474  0.4099
  818loPI   C3B12419  16.233   4.403   7.191  0.0731 -0.1163  0.2002
  818loPI   C4B12420  16.140   4.451   7.587  0.1181 -0.1294 -0.2407
  819loPI    C112421  13.643  12.621   5.601 -0.0979  0.1959  0.0761
  819loPI    C212422  13.795  12.800   5.277  0.0888  0.1739  0.1505
  819loPI    C312423  13.421  12.659   5.271  0.2439 -0.2450 -0.2160
  819loPI   PO412424  13.602  12.645   5.816 -0.0074 -0.2496  0.1765
  819loPI   GL112425  13.429  12.370   6.118  0.0005 -0.0993  0.0939
  819loPI   GL212426  13.758  12.498   6.261  0.0812 -0.0567  0.0484
  819loPI   C1A12427  13.398  12.215   6.467  0.3489 -0.6290  0.3494
  819loPI   C2A12428  13.407  12.393   7.005  0.2852 -0.3588  0.1225
  819loPI   C3A12429  13.358  12.434   7.424 -0.0666 -0.0078  0.0717
  819loPI   C4A12430  13.179  12.473   7.757  0.0762 -0.0577 -0.0949
  819loPI   C5A12431  13.220  12.403   8.089  0.0967 -0.1135 -0.1354
  819loPI   C6A12432  13.201  12.383   8.561  0.3979  0.1868  0.1380
  819loPI   C1B12433  13.759  12.534   6.660  0.0754  0.1609  0.3385
  819loPI   C2B12434  13.833  12.636   7.068 -0.2482  0.3165 -0.0249
  819loPI   C3B12435  13.873  12.755   7.456  0.0053  0.2198 -0.0345
  819loPI   C4B12436  13.694  12.458   7.813  0.1815 -0.1119 -0.0865
  820loPI    C112437  17.745   1.365   5.241 -0.0409  0.0156  0.0930
  820loPI    C212438  17.435   1.569   5.090  0.0462  0.3412  0.3429
  820loPI    C312439  17.806   1.716   5.059  0.1400  0.1056  0.3227
  820loPI   PO412440  17.729   1.287   5.447  0.1251 -0.0586 -0.0931
  820loPI   GL112441  17.676   1.263   5.831  0.1957 -0.3381 -0.0555
  820loPI   GL212442  17.499   1.040   5.979  0.0685  0.1065 -0.0010
  820loPI   C1A12443  17.520   1.598   6.246 -0.0504 -0.4250  0.0561
  820loPI   C2A12444  17.532   1.625   6.639  0.0973 -0.1274  0.1187
  820loPI   C3A12445  17.580   1.548   7.067  0.0187  0.0974  0.0653
  820loPI   C4A12446  17.639   1.573   7.511  0.0824  0.0607  0.2451
  820loPI   C5A12447  17.857   1.722   7.855  0.2391  0.0229 -0.0285
  820loPI   C6A12448  18.090   2.039   7.775 -0.2196 -0.2123 -0.0396
  820loPI   C1B12449  17.569   1.144   6.392  0.0052 -0.1564 -0.2051
  820loPI   C2B12450  17.605   1.090   6.917  0.0992  0.4387  0.0889
  820loPI   C3B12451  17.560   1.068   7.388  0.2582  0.0952 -0.0186
  820loPI   C4B12452  17.747   1.026   7.742 -0.0156  0.1836 -0.1807
  821loPI    C112453  16.977   9.884   5.404 -0.0261 -0.0593 -0.0337
  821loPI    C212454  17.089  10.183   5.645  0.1629 -0.2402  0.1066
  821loPI    C312455  17.239  10.158   5.275  0.1506 -0.1640  0.0964
  821loPI   PO412456  17.145   9.656   5.554 -0.0808 -0.0464  0.0797
  821loPI   GL112457  17.196   9.766   5.906 -0.0528  0.2439 -0.0176
  821loPI   GL212458  16.924   9.468   5.973 -0.1588  0.0817  0.0586
  821loPI   C1A12459  17.029   9.710   6.399  0.0710 -0.2767  0.3314
  821loPI   C2A12460  17.021   9.685   6.817  0.0493  0.3637  0.0999
  821loPI   C3A12461  16.953   9.671   7.224  0.3292  0.0936 -0.1211
  821loPI   C4A12462  16.895   9.619   7.576  0.1856  0.0758 -0.2667
  821loPI   C5A12463  16.839   9.596   8.088  0.2157  0.1003  0.1616
  821loPI   C6A12464  16.926   9.525   8.491 -0.1491  0.1880 -0.0859
  821loPI   C1B12465  17.032   9.245   6.432  0.0023  0.0318 -0.2218
  821loPI   C2B12466  17.025   9.207   6.902 -0.2543 -0.0689  0.0002
  821loPI   C3B12467  16.925   9.153   7.287 -0.3399  0.3430 -0.2586
  821loPI   C4B12468  16.872   9.074   7.706 -0.2661 -0.0251  0.0719
  822loPI    C112469   3.227  10.119   5.219 -0.1035  0.1384  0.1906
  822loPI    C212470   3.127   9.794   5.009 -0.1120  0.1382  0.1950
  822loPI    C312471   2.961  10.147   4.922  0.1022  0.1950  0.0094
  822loPI   PO412472   3.280  10.039   5.441 -0.5183  0.3065  0.0385
  822loPI   GL112473   3.126  10.255   5.727 -0.0307 -0.3726 -0.1339
  822loPI   GL212474   3.484  10.252   5.921 -0.0387 -0.0288  0.2786
  822loPI   C1A12475   3.123   9.990   6.144 -0.1300  0.2303  0.0403
  822loPI   C2A12476   3.118   9.858   6.596  0.0444 -0.0453  0.1949
  822loPI   C3A12477   3.028   9.972   7.007 -0.1632  0.0144  0.1459
  822loPI   C4A12478   2.903   9.900   7.479 -0.0846 -0.0049 -0.0200
  822loPI   C5A12479   3.138   9.919   7.832 -0.0268  0.0170  0.2231
  822loPI   C6A12480   3.499   9.709   7.746 -0.0667 -0.1524  0.0910
  822loPI   C1B12481   3.621  10.213   6.400 -0.1339 -0.0692 -0.2006
  822loPI   C2B12482   3.527  10.131   6.691  0.1198 -0.2087  0.1342
  822loPI   C3B12483   3.551  10.264   7.079 -0.1016  0.2036  0.1922
  822loPI   C4B12484   3.503  10.228   7.573 -0.1660  0.0620 -0.0799
  823loPI    C112485  12.172  11.032   5.220 -0.0507  0.1768  0.0392
  823loPI    C212486  12.020  11.177   4.880  0.1445  0.0600 -0.1002
  823loPI    C312487  12.313  10.906   4.867  0.1945  0.0995  0.1626
  823loPI   PO412488  12.193  11.218   5.365  0.2875  0.0985 -0.0623
  823loPI   GL112489  12.189  11.222   5.875  0.1093  0.3001 -0.1204
  823loPI   GL212490  12.489  11.251   5.810  0.3690 -0.0711  0.0200
  823loPI   C1A12491  12.040  11.039   6.242 -0.0809  0.0691 -0.1510
  823loPI   C2A12492  12.049  11.065   6.745 -0.3311 -0.3187  0.2666
  823loPI   C3A12493  12.071  11.047   7.145  0.0694  0.1489  0.4174
  823loPI   C4A12494  12.019  11.040   7.582 -0.2916 -0.0720  0.2422
  823loPI   C5A12495  12.039  11.258   7.975  0.2781 -0.0303  0.1040
  823loPI   C6A12496  11.788  11.257   8.377 -0.0817  0.1071 -0.0265
  823loPI   C1B12497  12.536  11.337   6.344  0.0254 -0.0178  0.0324
  823loPI   C2B12498  12.483  11.359   6.845  0.2476  0.0299  0.0038
  823loPI   C3B12499  12.471  11.261   7.258  0.0216 -0.2983  0.2645
  823loPI   C4B12500  12.506  11.332   7.700 -0.0253 -0.1860  0.2358
  824loPI    C112501   0.669  18.035   5.506  0.2086 -0.0684  0.0533
  824loPI    C212502   0.882  17.837   5.232  0.0684  0.1138 -0.1906
  824loPI    C312503   0.967  18.220   5.313  0.2311  0.0073  0.1597
  824loPI   PO412504   0.652  17.876   5.711 -0.0023  0.1972  0.3787
  824loPI   GL112505   0.704  18.049   6.016 -0.2080 -0.0140  0.0837
  824loPI   GL212506   0.452  18.226   5.972 -0.1655 -0.3286  0.1773
  824loPI   C1A12507   0.779  17.701   6.269 -0.1714 -0.1417 -0.0386
  824loPI   C2A12508   1.015  17.568   6.635  0.0718 -0.0898 -0.0521
  824loPI   C3A12509   0.989  17.489   7.114 -0.1529  0.1591 -0.1310
  824loPI   C4A12510   0.865  17.615   7.532  0.1698 -0.4149  0.1533
  824loPI   C5A12511   0.986  18.072   7.758  0.3272  0.0476  0.0824
  824loPI   C6A12512   0.881  18.234   8.184  0.0664  0.0165  0.2623
  824loPI   C1B12513   0.347  18.030   6.334  0.0399  0.2994 -0.1205
  824loPI   C2B12514   0.148  17.950   6.747  0.3165 -0.0355  0.0278
  824loPI   C3B12515   0.063  17.932   7.154 -0.2122  0.2803  0.2878
  824loPI   C4B12516  -0.060  17.864   7.574 -0.3417  0.2146  0.2261
  825loPI    C112517   4.087   2.686   5.143 -0.2540  0.1299  0.2068
  825loPI    C212518   4.128   2.348   4.933 -0.1350  0.0351  0.3789
  825loPI    C312519   3.912   2.651   4.785  0.0364  0.0124  0.0727
  825loPI   PO412520   4.054   2.596   5.359 -0.0789  0.3249  0.0195
  825loPI   GL112521   4.151   2.898   5.724 -0.1321 -0.1069 -0.1812
  825loPI   GL212522   3.914   2.669   5.820 -0.0878 -0.0535 -0.3762
  825loPI   C1A12523   4.197   2.994   6.056  0.1578 -0.0203  0.0993
  825loPI   C2A12524   4.119   3.003   6.521 -0.0331  0.1458  0.1736
  825loPI   C3A12525   4.077   2.989   6.920 -0.3917  0.0138  0.0980
  825loPI   C4A12526   4.196   3.021   7.304  0.1389 -0.0903 -0.0619
  825loPI   C5A12527   4.386   2.891   7.552 -0.1826 -0.1729  0.2806
  825loPI   C6A12528   4.373   2.699   7.969 -0.1513  0.0201 -0.0619
  825loPI   C1B12529   4.024   2.551   6.266 -0.0852 -0.1261 -0.1054
  825loPI   C2B12530   4.036   2.529   6.737 -0.0160 -0.0410 -0.0669
  825loPI   C3B12531   4.010   2.477   7.139 -0.3939  0.2112  0.2033
  825loPI   C4B12532   4.070   2.379   7.558 -0.1091 -0.1790  0.0369
  826loPI    C112533   4.137  14.229   5.344 -0.1352  0.0777  0.0773
  826loPI    C212534   4.517  14.347   5.304 -0.1596  0.1380  0.0208
  826loPI    C312535   4.265  14.378   4.995 -0.1511 -0.1214 -0.0149
  826loPI   PO412536   4.209  14.160   5.641  0.1558 -0.0892  0.2327
  826loPI   GL112537   3.927  14.136   5.966  0.0624  0.1750 -0.1687
  826loPI   GL212538   3.904  14.442   6.105 -0.1035  0.1283 -0.1361
  826loPI   C1A12539   3.917  13.952   6.336 -0.1344 -0.0318  0.0655
  826loPI   C2A12540   3.861  13.893   6.732  0.1461 -0.1663 -0.2191
  826loPI   C3A12541   3.970  13.818   7.178 -0.3111  0.0741  0.1951
  826loPI   C4A12542   4.291  13.800   7.441 -0.0327 -0.0689 -0.0556
  826loPI   C5A12543   4.351  14.147   7.864  0.1602  0.0612 -0.0316
  826loPI   C6A12544   4.480  14.597   7.899 -0.3107  0.0315  0.1109
  826loPI   C1B12545   3.926  14.417   6.552  0.1345  0.0828 -0.0698
  826loPI   C2B12546   3.919  14.303   7.048 -0.2239  0.2127 -0.0186
  826loPI   C3B12547   3.918  14.234   7.504 -0.1908 -0.0811 -0.0769
  826loPI   C4B12548   3.845  14.063   7.908 -0.1103 -0.2088  0.0860
  827loPI    C112549  12.775  10.796   5.001 -0.1474  0.0013 -0.0505
  827loPI    C212550  13.038  10.996   4.776  0.0342  0.0344  0.1866
  827loPI    C312551  12.740  10.793   4.603  0.1073  0.1467 -0.0763
  827loPI   PO412552  12.727  10.997   5.180  0.1467 -0.1970 -0.0294
  827loPI   GL112553  12.942  11.117   5.508  0.0099  0.0673 -0.1260
  827loPI   GL212554  13.169  11.328   5.688  0.5038 -0.2014  0.0320
  827loPI   C1A12555  12.893  11.067   5.982  0.1203 -0.0623 -0.2924
  827loPI   C2A12556  12.908  10.972   6.374  0.0844  0.1133  0.3351
  827loPI   C3A12557  12.896  11.018   6.743 -0.0456 -0.3941 -0.3056
  827loPI   C4A12558  12.915  11.037   7.211 -0.1351 -0.1981  0.1601
  827loPI   C5A12559  12.925  11.034   7.683  0.1313 -0.1621  0.0231
  827loPI   C6A12560  12.781  11.000   8.009 -0.1137  0.0056 -0.1273
  827loPI   C1B12561  13.292  11.268   6.195 -0.3468 -0.1951  0.1714
  827loPI   C2B12562  13.293  11.267   6.670 -0.1016  0.1929 -0.3632
  827loPI   C3B12563  13.281  11.356   7.100 -0.1988  0.2201  0.1772
  827loPI   C4B12564  13.339  11.465   7.561  0.0426  0.1161  0.1969
  828loPI    C112565   1.528   5.760   4.872  0.0675  0.0771  0.0243
  828loPI    C212566   1.674   6.078   4.678  0.0352 -0.0923 -0.2854
  828loPI    C312567   1.859   5.725   4.650  0.0580 -0.1088  0.0382
  828loPI   PO412568   1.411   5.821   5.128  0.2799 -0.0036 -0.1819
  828loPI   GL112569   1.427   5.842   5.503 -0.1201 -0.1215  0.1231
  828loPI   GL212570   1.255   6.169   5.585 -0.0813 -0.0844 -0.2457
  828loPI   C1A12571   1.462   5.920   5.934 -0.2255  0.1097  0.0255
  828loPI   C2A12572   1.488   5.885   6.399  0.1446  0.0578  0.1747
  828loPI   C3A12573   1.407   6.020   6.703  0.0530  0.0804 -0.0261
  828loPI   C4A12574   1.359   5.782   7.058 -0.2015 -0.1480  0.3045
  828loPI   C5A12575   1.437   5.660   7.455  0.1374 -0.0562  0.2219
  828loPI   C6A12576   1.600   5.823   7.865  0.0540 -0.1752 -0.2494
  828loPI   C1B12577   1.098   6.371   5.998  0.0684 -0.1400  0.0915
  828loPI   C2B12578   1.208   6.386   6.389  0.1112  0.0145  0.0908
  828loPI   C3B12579   1.137   6.431   6.779  0.0892 -0.0054  0.0832
  828loPI   C4B12580   1.248   6.316   7.089 -0.1212  0.3256  0.2702
  829loPI    C112581  16.429  15.324   5.425  0.0381  0.0863 -0.0259
  829loPI    C212582  16.363  14.936   5.354  0.1120  0.0249  0.2290
  829loPI    C312583  16.606  15.144   5.114  0.1850 -0.1216  0.1743
  829loPI   PO412584  16.277  15.365   5.694  0.2396 -0.0689  0.0402
  829loPI   GL112585  16.444  15.262   6.108 -0.1068 -0.1879 -0.1447
  829loPI   GL212586  16.584  15.431   6.238  0.1737 -0.1694 -0.1525
  829loPI   C1A12587  16.221  15.086   6.440 -0.1755 -0.2109  0.2036
  829loPI   C2A12588  16.155  14.988   6.877 -0.3607 -0.0400  0.0537
  829loPI   C3A12589  16.091  14.973   7.299  0.1930 -0.1053  0.0770
  829loPI   C4A12590  16.189  14.945   7.757 -0.0144  0.2569 -0.1975
  829loPI   C5A12591  16.023  15.158   8.123  0.1244  0.0772  0.2518
  829loPI   C6A12592  15.745  15.011   8.370 -0.0508  0.0068 -0.1852
  829loPI   C1B12593  16.356  15.494   6.663 -0.0626 -0.1202 -0.1140
  829loPI   C2B12594  16.184  15.396   7.069 -0.2457 -0.1195 -0.2554
  829loPI   C3B12595  16.311  15.368   7.481 -0.0727  0.1588  0.2745
  829loPI   C4B12596  16.510  15.352   7.876  0.0672 -0.1355  0.0861
  830loPI    C112597   2.822  15.716   5.552  0.1679 -0.2313 -0.1253
  830loPI    C212598   2.687  16.016   5.325  0.2040 -0.1227 -0.0042
  830loPI    C312599   2.642  15.638   5.203  0.1331 -0.0699 -0.1443
  830loPI   PO412600   2.759  15.749   5.735  0.0968 -0.0695  0.1358
  830loPI   GL112601   2.609  15.753   6.121 -0.4540 -0.2117  0.2872
  830loPI   GL212602   2.557  15.423   6.050  0.1840 -0.1191  0.1867
  830loPI   C1A12603   2.552  15.678   6.531  0.0001 -0.0590  0.2598
  830loPI   C2A12604   2.395  15.646   6.961 -0.0994  0.0767 -0.1255
  830loPI   C3A12605   2.550  15.519   7.433 -0.0576 -0.2620  0.1682
  830loPI   C4A12606   2.491  15.571   7.917 -0.0266  0.0308 -0.0793
  830loPI   C5A12607   2.465  15.274   8.295  0.0288  0.1235  0.2405
  830loPI   C6A12608   2.346  14.998   8.585 -0.0502 -0.2105  0.0471
  830loPI   C1B12609   2.604  15.229   6.422  0.4404 -0.4278 -0.0323
  830loPI   C2B12610   2.632  15.175   6.891 -0.2701 -0.2037 -0.0612
  830loPI   C3B12611   2.858  14.991   7.329 -0.1698 -0.1648 -0.1830
  830loPI   C4B12612   3.027  14.668   7.591  0.0282 -0.2261  0.0535
  831loPI    C112613   8.398  10.456   5.779 -0.2382 -0.0837  0.0733
  831loPI    C212614   8.622  10.733   5.597 -0.1870  0.0654  0.3568
  831loPI    C312615   8.692  10.344   5.532 -0.0693  0.1146  0.1819
  831loPI   PO412616   8.388  10.532   5.980 -0.3177 -0.1127  0.2308
  831loPI   GL112617   8.330  10.713   6.372 -0.0003  0.0170  0.3885
  831loPI   GL212618   8.309  11.139   6.389  0.0670  0.0663 -0.2979
  831loPI   C1A12619   8.260  10.684   6.800  0.2602 -0.2489  0.0977
  831loPI   C2A12620   8.471  10.454   7.160 -0.0223  0.2154 -0.0853
  831loPI   C3A12621   8.315  10.359   7.530  0.2120  0.2455 -0.1883
  831loPI   C4A12622   8.293  10.652   7.806  0.1303  0.0472  0.1509
  831loPI   C5A12623   8.655  10.654   8.140 -0.1824 -0.0280  0.0661
  831loPI   C6A12624   9.087  10.623   8.379  0.1246  0.2047  0.3714
  831loPI   C1B12625   7.900  10.931   6.554 -0.0927  0.2087  0.3266
  831loPI   C2B12626   7.522  10.945   6.723 -0.0466 -0.1637  0.1147
  831loPI   C3B12627   7.212  10.673   6.863 -0.2654 -0.0581  0.0446
  831loPI   C4B12628   6.799  10.556   7.146  0.0632  0.3955  0.0993
  832loPI    C112629   7.791  15.853   5.551  0.2051 -0.2261  0.0039
  832loPI    C212630   7.658  15.958   5.189  0.0447  0.0379  0.1362
  832loPI    C312631   8.045  16.003   5.280  0.0794  0.0017  0.0095
  832loPI   PO412632   7.642  15.985   5.786  0.0816  0.2673  0.2293
  832loPI   GL112633   7.371  15.981   6.078 -0.0516 -0.1008  0.1472
  832loPI   GL212634   7.543  16.260   6.353  0.1731 -0.0344  0.1357
  832loPI   C1A12635   7.364  15.728   6.488 -0.1965 -0.0989  0.1185
  832loPI   C2A12636   7.347  15.779   6.878  0.0079  0.0317 -0.0530
  832loPI   C3A12637   7.374  15.801   7.278 -0.0044  0.0604 -0.1399
  832loPI   C4A12638   7.337  15.711   7.641 -0.1300 -0.1983 -0.2950
  832loPI   C5A12639   7.408  15.565   8.119  0.3326  0.1469  0.1495
  832loPI   C6A12640   7.343  15.690   8.546 -0.0711 -0.2154 -0.0350
  832loPI   C1B12641   7.485  16.310   6.808  0.0182  0.0822  0.1854
  832loPI   C2B12642   7.263  16.338   7.136 -0.0723  0.0340  0.0593
  832loPI   C3B12643   7.225  16.202   7.602 -0.0517 -0.2839 -0.1529
  832loPI   C4B12644   7.311  16.032   8.048 -0.0802  0.0034 -0.2078
  833loPI    C112645   0.138  11.897   5.633 -0.2350 -0.1263  0.1143
  833loPI    C212646  -0.253  11.816   5.604 -0.1438 -0.4231 -0.4003
  833loPI    C312647  -0.031  11.855   5.273  0.2055  0.0619 -0.1224
  833loPI   PO412648   0.242  12.108   5.734  0.1423 -0.2434 -0.0636
  833loPI   GL112649   0.541  12.141   6.095 -0.2740 -0.0984  0.0202
  833loPI   GL212650   0.442  12.403   6.259  0.3723 -0.0159  0.0528
  833loPI   C1A12651   0.453  12.001   6.583 -0.0360  0.1157  0.0943
  833loPI   C2A12652   0.371  12.116   7.007  0.1517  0.1151 -0.1287
  833loPI   C3A12653   0.310  11.853   7.420 -0.0480  0.0376 -0.0403
  833loPI   C4A12654   0.220  11.812   7.863  0.0598 -0.0775  0.0718
  833loPI   C5A12655   0.254  11.655   8.175  0.1609 -0.0412  0.1385
  833loPI   C6A12656   0.123  11.329   8.423 -0.2737  0.0773  0.2197
  833loPI   C1B12657   0.490  12.502   6.669 -0.1389 -0.3010 -0.1746
  833loPI   C2B12658   0.389  12.750   6.917  0.1705  0.0694  0.0418
  833loPI   C3B12659   0.349  12.557   7.395 -0.2781  0.0575  0.3623
  833loPI   C4B12660   0.367  12.259   7.722  0.0427 -0.0461  0.3413
  834loPI    C112661  15.962  14.267   5.778 -0.0897  0.0291 -0.0502
  834loPI    C212662  16.032  13.920   5.964  0.1777  0.0591 -0.0918
  834loPI    C312663  15.719  13.955   5.718  0.1013 -0.1269 -0.0228
  834loPI   PO412664  16.171  14.400   5.906  0.2587 -0.0654  0.1821
  834loPI   GL112665  16.032  14.667   6.261  0.1297 -0.3538  0.2152
  834loPI   GL212666  16.362  14.681   6.188 -0.1942  0.0241  0.1311
  834loPI   C1A12667  16.079  14.429   6.646  0.4438 -0.0605  0.2016
  834loPI   C2A12668  16.174  14.243   7.014  0.1827  0.2529 -0.1155
  834loPI   C3A12669  16.180  13.974   7.361 -0.4530  0.0810  0.1529
  834loPI   C4A12670  16.054  13.893   7.711 -0.0328 -0.1470 -0.0564
  834loPI   C5A12671  16.302  14.035   8.091  0.0923  0.1364 -0.0817
  834loPI   C6A12672  16.471  14.249   8.424  0.1483  0.0432 -0.0237
  834loPI   C1B12673  16.514  14.646   6.634  0.1919  0.0637 -0.0831
  834loPI   C2B12674  16.500  14.721   7.075  0.0038  0.1702  0.0514
  834loPI   C3B12675  16.598  14.839   7.454  0.1430  0.0504  0.0430
  834loPI   C4B12676  16.760  14.872   7.862  0.0663  0.0161 -0.0755
  835loPI    C112677   8.279   8.850   5.221 -0.0905  0.1259  0.1300
  835loPI    C212678   8.578   9.116   5.232  0.1507 -0.1253 -0.1542
  835loPI    C312679   8.462   8.960   4.883 -0.2586 -0.0969 -0.0362
  835loPI   PO412680   8.457   8.694   5.481 -0.1466 -0.2579  0.1754
  835loPI   GL112681   8.456   8.616   5.873 -0.0142  0.2044  0.0900
  835loPI   GL212682   8.744   8.544   6.024 -0.0462 -0.3009  0.0428
  835loPI   C1A12683   8.209   8.428   6.228 -0.3422 -0.1729 -0.4687
  835loPI   C2A12684   8.246   8.431   6.576 -0.0017  0.2908 -0.0255
  835loPI   C3A12685   8.206   8.423   7.037  0.3014 -0.1698  0.1099
  835loPI   C4A12686   8.080   8.144   7.350 -0.0975  0.1051 -0.1098
  835loPI   C5A12687   8.386   7.832   7.450  0.1160 -0.0438  0.0874
  835loPI   C6A12688   8.722   7.549   7.279 -0.1208  0.1412  0.0174
  835loPI   C1B12689   8.628   8.689   6.414  0.1594  0.0332 -0.0733
  835loPI   C2B12690   8.598   8.795   6.803 -0.0235 -0.0622  0.1573
  835loPI   C3B12691   8.535   8.805   7.237 -0.1937  0.0050 -0.0324
  835loPI   C4B12692   8.668   8.847   7.625  0.0822  0.1436 -0.2569
  836loPI    C112693  12.824   5.258   5.448  0.0849 -0.1463  0.0027
  836loPI    C212694  13.064   5.099   5.170 -0.1867  0.1068 -0.3888
  836loPI    C312695  12.694   5.214   5.072 -0.3099  0.1490  0.0979
  836loPI   PO412696  12.876   5.176   5.649  0.4276 -0.1731  0.0141
  836loPI   GL112697  12.965   4.991   5.932  0.4683 -0.2718 -0.0766
  836loPI   GL212698  13.271   5.135   5.958  0.1712 -0.1651  0.1012
  836loPI   C1A12699  12.921   5.063   6.372 -0.0073 -0.1337 -0.1308
  836loPI   C2A12700  12.949   5.086   6.809 -0.1431 -0.0582  0.0286
  836loPI   C3A12701  13.031   5.180   7.218 -0.0036  0.0506 -0.0458
  836loPI   C4A12702  13.022   5.102   7.583 -0.0193 -0.1187  0.0214
  836loPI   C5A12703  12.786   5.160   7.931 -0.1749 -0.0118  0.1156
  836loPI   C6A12704  12.594   5.022   8.410 -0.0845 -0.0357  0.2090
  836loPI   C1B12705  13.447   5.231   6.367 -0.0437  0.2006 -0.0276
  836loPI   C2B12706  13.362   5.318   6.647  0.0778  0.2888 -0.0935
  836loPI   C3B12707  13.456   5.324   7.064  0.0681  0.2092  0.1093
  836loPI   C4B12708  13.427   5.365   7.489 -0.0558 -0.0359 -0.1611
  837loPI    C112709  10.404  18.000   5.107  0.0648 -0.0039 -0.0242
  837loPI    C212710  10.466  18.214   4.774  0.0068 -0.1864 -0.1537
  837loPI    C312711  10.101  18.072   4.856 -0.0183  0.0070  0.0787
  837loPI   PO412712  10.416  18.112   5.296  0.1656  0.0610 -0.2480
  837loPI   GL112713  10.509  17.895   5.731 -0.0858  0.0930 -0.1683
  837loPI   GL212714  10.369  17.840   5.939 -0.1844 -0.0049  0.1497
  837loPI   C1A12715  10.495  18.333   6.139 -0.0145 -0.0120  0.0177
  837loPI   C2A12716  10.221  18.433   6.527  0.3479  0.1181 -0.0130
  837loPI   C3A12717   9.930  18.406   6.867  0.0297  0.2367  0.0127
  837loPI   C4A12718   9.619  18.381   7.240 -0.2584  0.1363 -0.3002
  837loPI   C5A12719   9.633  18.412   7.619 -0.0548  0.1267 -0.1976
  837loPI   C6A12720   9.619  18.199   8.006 -0.2957 -0.1041  0.0940
  837loPI   C1B12721  10.423  17.786   6.217  0.0579  0.0614 -0.1316
  837loPI   C2B12722  10.382  17.897   6.577  0.0719  0.1252 -0.0999
  837loPI   C3B12723  10.261  18.060   7.082 -0.3048  0.1733  0.1032
  837loPI   C4B12724  10.043  18.096   7.399 -0.1108 -0.0195 -0.1702
  838loPI    C112725   6.671   4.549   5.233 -0.0536  0.1878 -0.1667
  838loPI    C212726   6.870   4.671   4.909 -0.0152 -0.1180 -0.2613
  838loPI    C312727   6.505   4.513   4.872 -0.2074  0.2741 -0.1057
  838loPI   PO412728   6.678   4.723   5.432  0.1131 -0.1355  0.0004
  838loPI   GL112729   6.829   4.963   5.719 -0.2908 -0.1827  0.0128
  838loPI   GL212730   6.809   5.250   6.004  0.2035  0.1636 -0.0404
  838loPI   C1A12731   7.026   4.701   6.063 -0.1337  0.1427 -0.2072
  838loPI   C2A12732   6.950   4.703   6.513 -0.2155  0.5893 -0.0937
  838loPI   C3A12733   6.839   4.812   6.971  0.2905 -0.4402 -0.0173
  838loPI   C4A12734   6.766   4.776   7.367 -0.0973 -0.0892 -0.1652
  838loPI   C5A12735   6.699   4.863   7.814  0.2738  0.0580 -0.2393
  838loPI   C6A12736   6.940   4.848   8.198  0.1694 -0.0771  0.1033
  838loPI   C1B12737   6.689   5.037   6.316  0.1947 -0.1891 -0.0212
  838loPI   C2B12738   6.558   5.147   6.712  0.2347  0.1086 -0.3001
  838loPI   C3B12739   6.542   5.175   7.114 -0.3581  0.1084  0.0729
  838loPI   C4B12740   6.475   5.136   7.500 -0.1574  0.1270  0.1743
  839loPI    C112741   8.634   5.622   5.502  0.1535  0.0286 -0.2688
  839loPI    C212742   8.862   5.633   5.174  0.0005  0.0489 -0.3755
  839loPI    C312743   8.468   5.701   5.146 -0.0235 -0.0126 -0.1967
  839loPI   PO412744   8.655   5.405   5.681  0.0227 -0.0499 -0.0140
  839loPI   GL112745   8.509   5.377   6.046 -0.0752 -0.2201 -0.0044
  839loPI   GL212746   8.216   5.393   5.984 -0.1120 -0.0460  0.0780
  839loPI   C1A12747   8.682   5.436   6.428 -0.1532  0.1508 -0.2184
  839loPI   C2A12748   8.864   5.586   6.801  0.1876 -0.3050 -0.1169
  839loPI   C3A12749   8.979   5.540   7.312 -0.2026  0.1753  0.1247
  839loPI   C4A12750   8.898   5.403   7.686 -0.0937 -0.0340 -0.3097
  839loPI   C5A12751   8.640   5.326   8.129 -0.1353 -0.4746 -0.0671
  839loPI   C6A12752   8.350   5.579   8.424  0.0697 -0.5147  0.1627
  839loPI   C1B12753   8.180   5.356   6.487  0.1863 -0.0939 -0.1173
  839loPI   C2B12754   8.384   5.299   6.876 -0.0261  0.0155  0.5209
  839loPI   C3B12755   8.430   5.603   7.115  0.1084 -0.4533  0.0637
  839loPI   C4B12756   8.547   5.705   7.473  0.1074 -0.1339 -0.1490
  840loPI    C112757  10.640   8.981   5.549 -0.1283 -0.0558  0.2179
  840loPI    C212758  10.755   9.295   5.330  0.1885 -0.2187  0.1453
  840loPI    C312759  10.604   8.971   5.151 -0.1420 -0.1102  0.2204
  840loPI   PO412760  10.834   9.008   5.768  0.2038  0.1556 -0.0709
  840loPI   GL112761  10.842   9.098   6.093 -0.1708  0.1652 -0.1345
  840loPI   GL212762  10.851   9.200   6.366  0.3458 -0.2076  0.2235
  840loPI   C1A12763  10.949   8.648   6.270  0.0647  0.2988  0.0558
  840loPI   C2A12764  10.911   8.543   6.742 -0.1140  0.0301 -0.0342
  840loPI   C3A12765  10.962   8.585   7.170  0.2296 -0.0244 -0.2114
  840loPI   C4A12766  10.833   8.594   7.623 -0.0035  0.0224  0.1269
  840loPI   C5A12767  10.742   8.621   8.061  0.2016  0.1054  0.1594
  840loPI   C6A12768  10.574   8.457   8.401 -0.0537 -0.1699  0.0369
  840loPI   C1B12769  10.812   9.056   6.753  0.1850  0.1373  0.3055
  840loPI   C2B12770  10.914   9.124   7.099 -0.1081 -0.0588 -0.4472
  840loPI   C3B12771  10.925   9.031   7.429 -0.2084  0.2998  0.2429
  840loPI   C4B12772  10.851   9.070   7.925  0.1399 -0.0472 -0.0262
  841loPI    C112773   0.218  17.563   5.412  0.0208  0.0497  0.0515
  841loPI    C212774   0.164  17.261   5.155 -0.2197  0.3633 -0.2763
  841loPI    C312775   0.513  17.458   5.164 -0.0259  0.0179  0.0093
  841loPI   PO412776   0.220  17.480   5.655 -0.0474 -0.0222  0.0848
  841loPI   GL112777  -0.075  17.452   5.924 -0.2269 -0.2016  0.0163
  841loPI   GL212778  -0.162  17.239   6.203 -0.1867 -0.2578 -0.1510
  841loPI   C1A12779  -0.039  17.680   6.356 -0.0681  0.3297 -0.0464
  841loPI   C2A12780  -0.302  17.585   6.688 -0.0942  0.0999  0.0436
  841loPI   C3A12781  -0.352  17.647   7.112  0.1306  0.2439 -0.1177
  841loPI   C4A12782  -0.484  17.566   7.582  0.0964 -0.2630  0.1875
  841loPI   C5A12783  -0.524  17.360   7.912  0.2342 -0.0973  0.0674
  841loPI   C6A12784  -0.417  17.084   8.099  0.1243  0.0442 -0.3657
  841loPI   C1B12785   0.150  17.131   6.488 -0.1969  0.2072 -0.2896
  841loPI   C2B12786   0.075  17.296   6.868 -0.1484  0.0355 -0.0500
  841loPI   C3B12787   0.030  17.427   7.313 -0.0740  0.0073 -0.1162
  841loPI   C4B12788  -0.019  17.228   7.718  0.0722  0.1029 -0.1943
  842loPI    C112789  13.772   7.668   5.168  0.0214  0.1627 -0.2197
  842loPI    C212790  13.811   8.003   5.384  0.2264  0.0336 -0.0519
  842loPI    C312791  13.649   8.018   5.018  0.0109  0.2771  0.0502
  842loPI   PO412792  13.583   7.482   5.399 -0.1762 -0.0414 -0.1255
  842loPI   GL112793  13.726   7.295   5.870  0.3485  0.1253  0.1091
  842loPI   GL212794  13.515   7.545   5.970  0.1391  0.3375 -0.0432
  842loPI   C1A12795  13.618   6.927   6.152  0.0205  0.0086  0.1810
  842loPI   C2A12796  13.300   6.998   6.495 -0.1889 -0.0438 -0.2435
  842loPI   C3A12797  13.323   6.999   6.912 -0.1319  0.2000  0.0878
  842loPI   C4A12798  13.445   6.859   7.362 -0.0387 -0.2049 -0.2819
  842loPI   C5A12799  13.494   6.940   7.822  0.1523 -0.2254  0.2390
  842loPI   C6A12800  13.748   7.174   8.087  0.0203 -0.2167  0.2122
  842loPI   C1B12801  13.693   7.379   6.369 -0.3016  0.0842  0.0174
  842loPI   C2B12802  13.776   7.176   6.761 -0.2760 -0.1885  0.1132
  842loPI   C3B12803  13.836   7.188   7.221 -0.0843  0.2505 -0.1535
  842loPI   C4B12804  13.910   7.381   7.681  0.1860  0.3910 -0.0803
  843loPI    C112805  14.351  10.112   5.140 -0.1638 -0.0073 -0.2438
  843loPI    C212806  13.990  10.257   5.044 -0.1319  0.2633  0.0277
  843loPI    C312807  14.320  10.456   4.937 -0.0643  0.0692 -0.1308
  843loPI   PO412808  14.328  10.071   5.386  0.1016  0.2066 -0.0847
  843loPI   GL112809  14.298  10.061   5.818  0.1824 -0.2233 -0.2170
  843loPI   GL212810  14.103  10.262   5.998 -0.0604 -0.2040 -0.1485
  843loPI   C1A12811  14.286   9.776   6.244  0.5354  0.0745  0.0619
  843loPI   C2A12812  14.209   9.701   6.603  0.1012  0.2531  0.0597
  843loPI   C3A12813  14.107   9.595   7.004  0.2342  0.2948  0.1871
  843loPI   C4A12814  14.048   9.663   7.517 -0.1951 -0.0211  0.1363
  843loPI   C5A12815  13.718   9.895   7.692  0.2180 -0.1045  0.0925
  843loPI   C6A12816  13.610  10.142   8.179 -0.2991  0.0308  0.2779
  843loPI   C1B12817  13.848  10.444   6.434 -0.0324 -0.0509 -0.0880
  843loPI   C2B12818  13.976  10.601   6.787  0.1840 -0.0039  0.1215
  843loPI   C3B12819  14.132  10.718   7.131  0.3141  0.3586  0.1613
  843loPI   C4B12820  14.121  10.840   7.510 -0.0848 -0.0873 -0.0282
  844loPI    C112821  10.313  14.623   5.808  0.0365  0.0240  0.0625
  844loPI    C212822  10.537  14.830   5.548 -0.2315  0.1960 -0.0359
  844loPI    C312823  10.329  14.513   5.424  0.2501 -0.1989  0.1328
  844loPI   PO412824  10.393  14.676   6.028 -0.0742  0.0747  0.1588
  844loPI   GL112825  10.484  14.956   6.361 -0.4608  0.3179 -0.1441
  844loPI   GL212826  10.646  14.561   6.484  0.2137 -0.1964 -0.2390
  844loPI   C1A12827  10.212  14.876   6.740  0.2315 -0.2022 -0.2930
  844loPI   C2A12828  10.149  14.724   7.230 -0.1255 -0.2103  0.0292
  844loPI   C3A12829  10.210  14.775   7.666 -0.0459 -0.2883 -0.1130
  844loPI   C4A12830  10.307  14.815   8.113  0.0045 -0.1296  0.0758
  844loPI   C5A12831  10.536  14.526   8.411 -0.0830 -0.0316  0.0589
  844loPI   C6A12832  10.246  14.171   8.531 -0.1215 -0.1905  0.0407
  844loPI   C1B12833  10.900  14.397   6.828  0.2021  0.3049 -0.0965
  844loPI   C2B12834  11.140  14.236   7.205 -0.0165 -0.0787  0.3606
  844loPI   C3B12835  11.161  14.090   7.667  0.0869  0.0488  0.0827
  844loPI   C4B12836  11.025  13.716   7.912 -0.2519  0.0343 -0.1170
  845loPI    C112837   6.580   2.133   5.732 -0.0300  0.0743 -0.0017
  845loPI    C212838   6.973   2.179   5.674 -0.0020 -0.0627  0.0761
  845loPI    C312839   6.726   2.490   5.627  0.1170  0.0268  0.0396
  845loPI   PO412840   6.623   1.913   5.962  0.1696 -0.0678 -0.0840
  845loPI   GL112841   6.717   1.954   6.321 -0.4394  0.1390  0.2587
  845loPI   GL212842   6.409   1.966   6.418 -0.1488 -0.0122 -0.1071
  845loPI   C1A12843   6.986   1.822   6.646  0.0228  0.0739 -0.0494
  845loPI   C2A12844   7.347   1.787   6.867  0.1008  0.1085 -0.0150
  845loPI   C3A12845   7.572   1.563   7.148  0.3499 -0.2474 -0.0299
  845loPI   C4A12846   7.560   1.114   7.331 -0.1763 -0.0234 -0.2244
  845loPI   C5A12847   7.885   0.833   7.562 -0.1344 -0.0055  0.0887
  845loPI   C6A12848   7.937   0.568   7.880 -0.0050  0.2739 -0.1038
  845loPI   C1B12849   6.484   1.953   6.802  0.0472 -0.2438  0.1433
  845loPI   C2B12850   6.448   2.033   7.309 -0.1062 -0.0985 -0.1393
  845loPI   C3B12851   6.555   2.167   7.735 -0.1908  0.0623  0.1626
  845loPI   C4B12852   6.578   2.145   8.141  0.4107  0.4148  0.2415
  846loPI    C112853   7.890  11.079   5.562  0.0333  0.3016  0.0787
  846loPI    C212854   8.274  11.125   5.458  0.0604 -0.1420 -0.0394
  846loPI    C312855   8.119  10.758   5.493 -0.2499  0.0223  0.4017
  846loPI   PO412856   7.860  11.179   5.779  0.0186  0.1523  0.3283
  846loPI   GL112857   7.896  11.370   6.137  0.0383 -0.0624 -0.1434
  846loPI   GL212858   8.059  11.565   6.488 -0.1521  0.0461 -0.0354
  846loPI   C1A12859   7.559  11.328   6.455 -0.3100 -0.3878  0.3168
  846loPI   C2A12860   7.690  11.369   6.925  0.0001 -0.1228  0.1271
  846loPI   C3A12861   7.814  11.437   7.336 -0.1590 -0.1386 -0.0959
  846loPI   C4A12862   8.146  11.704   7.475  0.1883  0.0449  0.2305
  846loPI   C5A12863   8.269  11.733   7.850 -0.0254  0.1670 -0.3546
  846loPI   C6A12864   8.562  11.846   8.103 -0.2310 -0.1630  0.1991
  846loPI   C1B12865   8.232  11.307   6.853 -0.0961  0.0229  0.3450
  846loPI   C2B12866   8.036  11.060   7.089 -0.0106 -0.0446 -0.3396
  846loPI   C3B12867   7.701  10.981   7.355 -0.0065  0.2179  0.1238
  846loPI   C4B12868   7.690  10.913   7.870 -0.0840 -0.1635 -0.0528
  847loPI    C112869  16.284   0.996   4.925 -0.2692  0.2495 -0.0610
  847loPI    C212870  16.174   0.612   4.942 -0.1599  0.2321  0.3654
  847loPI    C312871  16.454   0.728   4.681 -0.0770 -0.0086  0.3439
  847loPI   PO412872  16.278   1.039   5.147  0.2222 -0.0721  0.0620
  847loPI   GL112873  16.344   1.025   5.625  0.2575 -0.0890 -0.1614
  847loPI   GL212874  16.550   0.804   5.784 -0.2611 -0.0111  0.4946
  847loPI   C1A12875  16.263   1.252   6.047  0.0942  0.2400  0.1422
  847loPI   C2A12876  16.200   1.249   6.468 -0.0439  0.6176 -0.0200
  847loPI   C3A12877  16.229   1.280   6.869  0.2015  0.1275 -0.0841
  847loPI   C4A12878  16.262   1.319   7.311 -0.0340 -0.2708 -0.0731
  847loPI   C5A12879  16.242   1.368   7.813  0.3391  0.0369  0.0299
  847loPI   C6A12880  16.372   1.436   8.254  0.1529  0.0136  0.0513
  847loPI   C1B12881  16.680   0.899   6.170 -0.3869  0.0919  0.0772
  847loPI   C2B12882  16.660   1.033   6.654 -0.0713  0.0060  0.1806
  847loPI   C3B12883  16.656   1.129   7.119  0.0653  0.1525 -0.0993
  847loPI   C4B12884  16.730   1.069   7.560 -0.1221  0.2989  0.2444
  848loPI    C112885   1.706  12.882   5.521  0.0328  0.0892 -0.0972
  848loPI    C212886   1.773  12.695   5.174 -0.0400  0.1883 -0.1651
  848loPI    C312887   1.398  12.753   5.301 -0.0085 -0.1336  0.0876
  848loPI   PO412888   1.918  12.832   5.721 -0.3091  0.4098  0.2394
  848loPI   GL112889   1.781  12.878   6.031 -0.1745 -0.0701 -0.3686
  848loPI   GL212890   1.637  12.690   6.142 -0.0646  0.0015 -0.0574
  848loPI   C1A12891   1.519  13.068   6.466  0.1046 -0.1842  0.1836
  848loPI   C2A12892   1.337  13.023   6.876  0.1209  0.0343  0.1025
  848loPI   C3A12893   1.318  13.027   7.325 -0.1110  0.2274 -0.1491
  848loPI   C4A12894   1.249  13.094   7.756  0.3856 -0.0813 -0.1603
  848loPI   C5A12895   1.059  13.549   7.956 -0.0838 -0.1221  0.0301
  848loPI   C6A12896   0.729  13.528   8.287  0.1598  0.0533  0.0437
  848loPI   C1B12897   1.796  12.342   6.391 -0.2434 -0.1827 -0.2937
  848loPI   C2B12898   1.736  12.243   6.881  0.0772 -0.0203  0.1938
  848loPI   C3B12899   1.743  12.180   7.375  0.0699 -0.2602 -0.1141
  848loPI   C4B12900   1.705  12.182   7.821 -0.0250 -0.1148 -0.1281
  849loPI    C112901   1.415  11.882   5.526  0.2883 -0.1796  0.0221
  849loPI    C212902   1.084  11.785   5.323  0.0581  0.1794  0.2155
  849loPI    C312903   1.411  11.906   5.127  0.0454 -0.0808  0.0290
  849loPI   PO412904   1.331  12.029   5.663 -0.2907  0.0684  0.1010
  849loPI   GL112905   1.099  12.017   6.064 -0.0629  0.0086 -0.1043
  849loPI   GL212906   1.289  12.236   6.195 -0.2212  0.2239  0.1385
  849loPI   C1A12907   0.913  11.825   6.272  0.2774  0.1389 -0.0300
  849loPI   C2A12908   0.820  11.713   6.728  0.0209  0.0765 -0.0170
  849loPI   C3A12909   0.790  11.763   7.213  0.0314 -0.0183 -0.2400
  849loPI   C4A12910   0.741  11.758   7.696  0.1495 -0.0984  0.3208
  849loPI   C5A12911   0.733  11.800   8.134 -0.6446 -0.1592  0.0435
  849loPI   C6A12912   0.609  11.720   8.593  0.1384 -0.0638  0.0146
  849loPI   C1B12913   1.318  12.023   6.589  0.0527 -0.0407  0.0444
  849loPI   C2B12914   1.262  11.928   7.098  0.2952 -0.1107 -0.2561
  849loPI   C3B12915   1.283  11.956   7.570  0.1662 -0.2578  0.1380
  849loPI   C4B12916   1.200  11.749   7.946 -0.1743 -0.2073 -0.0747
  850loPI    C112917  12.195  16.364   5.293 -0.1497 -0.0693  0.0551
  850loPI    C212918  12.260  15.981   5.197 -0.1319 -0.0456 -0.0275
  850loPI    C312919  12.026  16.208   4.966 -0.0620  0.0208 -0.0334
  850loPI   PO412920  12.336  16.329   5.614  0.2231  0.2671 -0.1057
  850loPI   GL112921  12.348  16.187   6.088 -0.1934  0.3171 -0.2132
  850loPI   GL212922  12.049  16.222   6.229 -0.1622  0.3591 -0.2396
  850loPI   C1A12923  12.597  16.096   6.507  0.1236  0.2579  0.3221
  850loPI   C2A12924  12.556  16.126   6.949  0.3317 -0.2290 -0.0207
  850loPI   C3A12925  12.588  16.084   7.351 -0.1292  0.2086  0.3535
  850loPI   C4A12926  12.414  16.018   7.731 -0.3099 -0.0899 -0.0941
  850loPI   C5A12927  12.479  15.982   8.184 -0.0704 -0.0542 -0.1018
  850loPI   C6A12928  12.381  15.706   8.483 -0.0189  0.0707  0.3832
  850loPI   C1B12929  11.980  16.251   6.656 -0.0206  0.2156 -0.1273
  850loPI   C2B12930  12.016  16.361   7.112 -0.1582  0.0557  0.0946
  850loPI   C3B12931  12.137  16.303   7.497  0.0485 -0.0772  0.0244
  850loPI   C4B12932  12.005  16.251   7.928  0.0230 -0.1165  0.1341
  851loPI    C112933  17.282   3.649   4.968 -0.0419  0.3035 -0.0010
  851loPI    C212934  17.509   3.879   4.731  0.2464  0.0472  0.0205
  851loPI    C312935  17.449   3.494   4.639 -0.0122  0.0601  0.1265
  851loPI   PO412936  17.324   3.747   5.229 -0.3423 -0.0712 -0.1331
  851loPI   GL112937  17.416   3.938   5.597 -0.1518 -0.1170  0.0102
  851loPI   GL212938  17.062   3.978   5.692 -0.1736 -0.0402  0.1864
  851loPI   C1A12939  17.509   3.710   6.015 -0.2518 -0.2444  0.0044
  851loPI   C2A12940  17.193   3.490   6.269 -0.3333  0.1188  0.1637
  851loPI   C3A12941  17.106   3.389   6.673 -0.2312 -0.1001  0.1121
  851loPI   C4A12942  17.104   3.419   7.047 -0.3645 -0.0442  0.1695
  851loPI   C5A12943  17.147   3.374   7.396  0.2605 -0.3360 -0.0560
  851loPI   C6A12944  17.104   3.557   7.849  0.2002  0.1786 -0.3465
  851loPI   C1B12945  17.077   3.949   6.111 -0.1817  0.1062 -0.1227
  851loPI   C2B12946  17.051   3.891   6.592  0.1803  0.0807  0.2432
  851loPI   C3B12947  17.086   3.939   7.112 -0.5009  0.2325  0.1494
  851loPI   C4B12948  17.083   3.915   7.509  0.4348  0.0934 -0.1791
  852loPI    C112949   8.988   9.709   5.427 -0.0963  0.2120 -0.0220
  852loPI    C212950   8.846   9.547   5.090  0.1062  0.2158 -0.1108
  852loPI    C312951   9.231   9.651   5.115  0.1424  0.0221  0.1947
  852loPI   PO412952   8.821   9.854   5.583  0.2189  0.1076 -0.0371
  852loPI   GL112953   8.650   9.649   5.972  0.1910  0.1995 -0.1762
  852loPI   GL212954   8.444   9.433   6.132 -0.0311 -0.0391  0.0641
  852loPI   C1A12955   8.883   9.589   6.398  0.2320 -0.0766 -0.0977
  852loPI   C2A12956   9.042   9.629   6.775 -0.2886  0.0405 -0.1926
  852loPI   C3A12957   9.111   9.585   7.161 -0.0665 -0.0193  0.2503
  852loPI   C4A12958   9.274   9.620   7.602  0.1781 -0.1328 -0.2321
  852loPI   C5A12959   9.118   9.424   8.028  0.2843  0.4027  0.0328
  852loPI   C6A12960   8.781   9.076   8.155  0.2696 -0.0159  0.3749
  852loPI   C1B12961   8.505   9.250   6.576 -0.1783 -0.1846  0.1396
  852loPI   C2B12962   8.596   9.319   6.959 -0.0803 -0.2869 -0.2612
  852loPI   C3B12963   8.738   9.314   7.392  0.1427  0.0290 -0.0164
  852loPI   C4B12964   8.741   9.429   7.720 -0.2866 -0.2886 -0.0294
  853loPI    C112965   0.194   1.351   5.219 -0.0561 -0.0640 -0.0089
  853loPI    C212966   0.548   1.532   5.179 -0.0402 -0.0539  0.1706
  853loPI    C312967   0.296   1.515   4.869  0.0719  0.0342  0.0738
  853loPI   PO412968   0.237   1.210   5.439  0.3654  0.1817 -0.0156
  853loPI   GL112969   0.112   1.158   5.901 -0.0905 -0.0476  0.0547
  853loPI   GL212970   0.336   1.122   6.139 -0.2701  0.1049 -0.1136
  853loPI   C1A12971  -0.056   1.330   6.223 -0.0451  0.0203 -0.1639
  853loPI   C2A12972  -0.101   1.368   6.689  0.2400  0.2547  0.0174
  853loPI   C3A12973  -0.049   1.308   7.086  0.2254  0.1447 -0.2644
  853loPI   C4A12974   0.045   1.365   7.552  0.1220  0.1774 -0.2520
  853loPI   C5A12975   0.054   1.322   8.026 -0.0314  0.1498  0.2428
  853loPI   C6A12976  -0.051   1.582   8.316  0.1045 -0.0298 -0.0283
  853loPI   C1B12977   0.392   1.072   6.582  0.0898  0.0307  0.0123
  853loPI   C2B12978   0.471   1.092   7.008 -0.0214 -0.1586 -0.4459
  853loPI   C3B12979   0.405   1.072   7.449  0.1776  0.1169 -0.0636
  853loPI   C4B12980   0.507   0.980   7.866  0.1413  0.4327  0.0027
  854loPI    C112981   3.553  13.553   5.241  0.0350  0.0943 -0.0069
  854loPI    C212982   3.856  13.801   5.161 -0.0416  0.1525 -0.1176
  854loPI    C312983   3.929  13.417   5.242  0.0645  0.1736 -0.1125
  854loPI   PO412984   3.466  13.672   5.424  0.1578 -0.0920  0.3807
  854loPI   GL112985   3.436  13.872   5.960  0.0306  0.0070  0.4068
  854loPI   GL212986   3.419  14.171   6.056 -0.1486 -0.0909  0.2580
  854loPI   C1A12987   3.371  13.714   6.334 -0.2346  0.2706  0.1080
  854loPI   C2A12988   3.098  13.617   6.644  0.3239  0.1247  0.0883
  854loPI   C3A12989   3.158  13.546   7.094 -0.0690  0.1331  0.1034
  854loPI   C4A12990   2.995  13.438   7.557 -0.2971  0.0982 -0.0906
  854loPI   C5A12991   2.943  13.491   7.898 -0.1136 -0.0452 -0.1715
  854loPI   C6A12992   3.025  13.851   8.158  0.1549 -0.1557  0.0620
  854loPI   C1B12993   3.498  14.134   6.552  0.0910 -0.1721 -0.1738
  854loPI   C2B12994   3.447  13.918   6.967  0.0314 -0.3936  0.1106
  854loPI   C3B12995   3.549  13.852   7.445 -0.0413  0.1128  0.0572
  854loPI   C4B12996   3.469  13.743   7.898  0.1282 -0.2009  0.0304
  855loPI    C112997  17.774   2.856   5.554  0.0045  0.1309  0.0750
  855loPI    C212998  17.775   2.670   5.199 -0.0510  0.2085  0.0338
  855loPI    C312999  17.913   3.045   5.230 -0.1934  0.2590  0.0630
  855loPI   PO413000  17.705   2.576   5.720  0.1953  0.1033 -0.0534
  855loPI   GL113001  17.890   2.274   6.060  0.0843 -0.3691  0.0871
  855loPI   GL213002  18.219   2.397   5.909 -0.0288  0.1229  0.0555
  855loPI   C1A13003  17.994   2.410   6.466  0.0040  0.3096 -0.0026
  855loPI   C2A13004  18.024   2.327   6.924  0.3810  0.0383  0.2129
  855loPI   C3A13005  18.009   2.331   7.377  0.1169  0.3450 -0.1909
  855loPI   C4A13006  18.029   2.484   7.829 -0.0640 -0.0942  0.0170
  855loPI   C5A13007  18.153   2.611   8.171 -0.3006 -0.1498 -0.3543
  855loPI   C6A13008  17.791   2.504   8.521 -0.3129 -0.1286 -0.1891
  855loPI   C1B13009  18.365   2.114   6.208 -0.1347 -0.2074 -0.1203
  855loPI   C2B13010  18.396   2.064   6.659  0.1109 -0.0893  0.4869
  855loPI   C3B13011  18.472   2.025   7.051 -0.0574  0.1896  0.1133
  855loPI   C4B13012  18.461   2.056   7.500  0.1217  0.1518 -0.0403
  856loPI    C113013   7.633   0.724   6.015  0.0340  0.2165 -0.2790
  856loPI    C213014   7.966   0.780   5.802  0.0835  0.2023 -0.2058
  856loPI    C313015   7.812   0.413   5.840  0.1947  0.1716 -0.0402
  856loPI   PO413016   7.688   0.887   6.198  0.2358 -0.2384  0.0956
  856loPI   GL113017   7.768   0.861   6.589  0.1253  0.2138  0.0045
  856loPI   GL213018   7.756   1.190   6.808  0.2176  0.1489 -0.0449
  856loPI   C1A13019   7.483   0.707   6.915 -0.0558 -0.1518 -0.0832
  856loPI   C2A13020   7.154   0.702   7.223 -0.1873 -0.1144  0.1173
  856loPI   C3A13021   7.082   0.801   7.601 -0.0359  0.0390  0.0352
  856loPI   C4A13022   7.089   0.830   8.118 -0.0137  0.0001  0.0852
  856loPI   C5A13023   6.915   0.478   8.403  0.3461 -0.0066  0.0839
  856loPI   C6A13024   6.850   0.090   8.420 -0.0155 -0.1883  0.0400
  856loPI   C1B13025   8.009   0.879   7.039  0.1889  0.0923  0.1279
  856loPI   C2B13026   8.172   0.502   7.320  0.1263 -0.0351  0.0011
  856loPI   C3B13027   8.063   0.164   7.664  0.0527 -0.1577  0.0218
  856loPI   C4B13028   8.325   0.070   8.033  0.3511 -0.0176  0.0135
  857loPI    C113029   1.913  16.160   5.374 -0.1721 -0.1765  0.0663
  857loPI    C213030   1.579  16.331   5.235 -0.0439  0.1473  0.1479
  857loPI    C313031   1.879  16.245   4.984 -0.1445 -0.0441  0.0920
  857loPI   PO413032   1.961  16.343   5.582  0.0379 -0.2892 -0.0404
  857loPI   GL113033   1.871  16.337   5.998 -0.0628 -0.1220 -0.0169
  857loPI   GL213034   1.657  16.122   6.178  0.2174 -0.0192  0.3073
  857loPI   C1A13035   1.899  16.592   6.363  0.3799 -0.1839 -0.0561
  857loPI   C2A13036   2.051  16.653   6.794  0.2897 -0.1722  0.1277
  857loPI   C3A13037   2.067  16.560   7.198  0.0389 -0.2146  0.2378
  857loPI   C4A13038   1.995  16.569   7.628  0.0168  0.1243 -0.0933
  857loPI   C5A13039   1.665  16.394   7.873  0.1323 -0.1222  0.1458
  857loPI   C6A13040   1.331  16.171   7.974  0.1673  0.1166  0.3820
  857loPI   C1B13041   1.551  16.172   6.674  0.0756  0.2662 -0.1150
  857loPI   C2B13042   1.668  16.148   7.068  0.0147 -0.2004  0.2197
  857loPI   C3B13043   1.575  16.409   7.392 -0.0699 -0.0467  0.1586
  857loPI   C4B13044   1.420  16.788   7.543  0.0137 -0.1013  0.0608
  858loPI    C113045   4.640  17.541   5.761  0.1167  0.1233 -0.1073
  858loPI    C213046   4.582  17.748   5.424 -0.1326 -0.1471 -0.2344
  858loPI    C313047   4.528  17.351   5.427  0.1710 -0.1902  0.0490
  858loPI   PO413048   4.539  17.562   5.962 -0.0743  0.0976  0.1215
  858loPI   GL113049   4.365  17.708   6.313 -0.2129  0.1268 -0.0070
  858loPI   GL213050   4.232  17.442   6.332 -0.1522  0.0505 -0.0988
  858loPI   C1A13051   4.635  17.839   6.710  0.0674 -0.0310  0.1884
  858loPI   C2A13052   4.591  17.827   7.135 -0.1457 -0.0864 -0.0407
  858loPI   C3A13053   4.539  17.964   7.505  0.2154  0.1980  0.0557
  858loPI   C4A13054   4.610  17.870   7.913 -0.1132 -0.0513 -0.0783
  858loPI   C5A13055   4.483  18.093   8.260 -0.0957 -0.1620 -0.2088
  858loPI   C6A13056   4.202  18.405   8.101  0.1215 -0.2633 -0.0521
  858loPI   C1B13057   4.251  17.512   6.811 -0.1496 -0.0180 -0.1220
  858loPI   C2B13058   4.258  17.416   7.262 -0.1677 -0.3889 -0.1171
  858loPI   C3B13059   4.305  17.568   7.740 -0.1859  0.2455 -0.1292
  858loPI   C4B13060   4.418  17.533   8.243 -0.2580 -0.0714 -0.3363
  859loPI    C113061   4.422  11.588   4.880 -0.0968 -0.2177 -0.0791
  859loPI    C213062   4.473  11.198   4.803 -0.0835 -0.1939 -0.1915
  859loPI    C313063   4.774  11.455   4.744 -0.0157 -0.2007  0.1114
  859loPI   PO413064   4.315  11.622   5.225  0.2526  0.0100 -0.2672
  859loPI   GL113065   4.184  11.498   5.648 -0.0306 -0.1369  0.0787
  859loPI   GL213066   4.440  11.487   5.719 -0.1919 -0.0596 -0.1303
  859loPI   C1A13067   4.236  11.827   6.033  0.2382  0.0073 -0.0382
  859loPI   C2A13068   4.018  12.007   6.384 -0.0234  0.2449 -0.1561
  859loPI   C3A13069   3.957  12.079   6.877 -0.1947  0.0644 -0.2263
  859loPI   C4A13070   3.967  12.089   7.351 -0.0433  0.0441  0.2747
  859loPI   C5A13071   3.854  11.975   7.855 -0.0535  0.1596 -0.0330
  859loPI   C6A13072   3.827  12.018   8.236  0.1843 -0.1426 -0.1525
  859loPI   C1B13073   4.294  11.336   6.055 -0.0355  0.2922  0.1791
  859loPI   C2B13074   4.439  11.225   6.449  0.1200 -0.0664  0.0283
  859loPI   C3B13075   4.504  11.243   6.859  0.0523 -0.0444  0.0755
  859loPI   C4B13076   4.494  11.342   7.293  0.2232  0.1980 -0.3095
  860loPI    C113077   3.093   5.740   5.026 -0.0826 -0.3634 -0.2778
  860loPI    C213078   3.192   6.048   4.792  0.1977 -0.2847 -0.0609
  860loPI    C313079   2.862   5.836   4.714  0.0390  0.0253 -0.2530
  860loPI   PO413080   3.202   5.777   5.321 -0.1648  0.0420  0.0391
  860loPI   GL113081   3.310   5.741   5.691  0.2097  0.2350  0.2669
  860loPI   GL213082   3.597   5.898   5.820 -0.0911 -0.0223 -0.0673
  860loPI   C1A13083   3.296   5.540   6.054  0.1170 -0.2456  0.1462
  860loPI   C2A13084   3.293   5.515   6.401  0.1915 -0.0916 -0.0227
  860loPI   C3A13085   3.181   5.529   6.812 -0.1497 -0.1680  0.1439
  860loPI   C4A13086   3.202   5.416   7.281  0.0292  0.0958 -0.2054
  860loPI   C5A13087   3.058   5.095   7.537 -0.5208 -0.1423  0.3042
  860loPI   C6A13088   3.112   4.922   7.941  0.0029 -0.0171 -0.2619
  860loPI   C1B13089   3.525   6.016   6.304  0.2529 -0.3851 -0.0667
  860loPI   C2B13090   3.445   5.979   6.768  0.0479  0.2867 -0.1840
  860loPI   C3B13091   3.394   5.912   7.220 -0.1954 -0.0652  0.1101
  860loPI   C4B13092   3.397   5.790   7.673  0.1024  0.0426  0.0289
  861loPI    C113093   7.900  14.072   5.545 -0.0351 -0.0705 -0.0643
  861loPI    C213094   8.285  14.038   5.647  0.0333  0.2381 -0.2093
  861loPI    C313095   8.123  13.779   5.388  0.0943  0.0007 -0.0139
  861loPI   PO413096   7.779  14.197   5.823 -0.0145  0.0228 -0.0047
  861loPI   GL113097   7.870  14.148   6.260  0.0140 -0.1140  0.2213
  861loPI   GL213098   7.766  13.890   6.385  0.0344  0.0580 -0.1049
  861loPI   C1A13099   7.974  14.352   6.553 -0.4388  0.0726 -0.1859
  861loPI   C2A13100   7.987  14.553   6.991  0.0048  0.0479 -0.0482
  861loPI   C3A13101   7.839  14.576   7.458  0.0696 -0.5982  0.3609
  861loPI   C4A13102   7.679  14.745   7.737  0.2940  0.0003  0.2152
  861loPI   C5A13103   7.840  14.778   8.201  0.1051 -0.2067  0.0864
  861loPI   C6A13104   7.609  14.757   8.589  0.1743 -0.1616 -0.0197
  861loPI   C1B13105   7.559  13.810   6.780 -0.0414  0.1321 -0.0322
  861loPI   C2B13106   7.597  13.756   7.288  0.0648 -0.2647 -0.0339
  861loPI   C3B13107   7.589  13.751   7.756 -0.1553 -0.0520 -0.1897
  861loPI   C4B13108   7.474  13.659   8.241  0.0504 -0.0541 -0.1272
  862loPI    C113109  15.768  11.753   5.347  0.2109  0.0340 -0.0911
  862loPI    C213110  15.875  11.411   5.170 -0.0441 -0.0115 -0.1608
  862loPI    C313111  15.488  11.493   5.228  0.0205  0.2125 -0.0382
  862loPI   PO413112  16.036  11.650   5.622  0.2715 -0.0570  0.1476
  862loPI   GL113113  16.032  11.441   5.988 -0.0067 -0.2690  0.0546
  862loPI   GL213114  16.270  11.177   6.228 -0.0493 -0.1324  0.2870
  862loPI   C1A13115  15.713  11.525   6.332 -0.0581 -0.1961  0.0618
  862loPI   C2A13116  15.754  11.533   6.798 -0.0404  0.0571  0.5166
  862loPI   C3A13117  15.593  11.586   7.157 -0.1744 -0.1775  0.4184
  862loPI   C4A13118  15.561  11.707   7.625 -0.0058  0.0638 -0.0215
  862loPI   C5A13119  15.493  11.384   7.939 -0.2828 -0.1940 -0.1823
  862loPI   C6A13120  15.390  11.343   8.316  0.1086  0.3896 -0.1292
  862loPI   C1B13121  16.123  11.268   6.560  0.1915 -0.4754  0.0682
  862loPI   C2B13122  16.047  11.223   7.005  0.0847  0.1818  0.0027
  862loPI   C3B13123  16.050  11.254   7.378  0.1254  0.3042 -0.0805
  862loPI   C4B13124  15.980  11.425   7.708  0.0508  0.0676  0.0269
  863loPI    C113125  16.537   5.763   5.066 -0.1355  0.0583 -0.0231
  863loPI    C213126  16.594   5.413   5.251 -0.0093  0.0940  0.0064
  863loPI    C313127  16.488   5.420   4.866 -0.1071  0.0223  0.0315
  863loPI   PO413128  16.747   5.900   5.149  0.1333  0.3245  0.3409
  863loPI   GL113129  16.859   6.051   5.504 -0.2188  0.1620 -0.0860
  863loPI   GL213130  17.244   6.035   5.425  0.0796 -0.2336 -0.2282
  863loPI   C1A13131  16.474   6.057   5.880  0.2480 -0.2984  0.0535
  863loPI   C2A13132  16.168   6.046   6.296 -0.0638  0.0926 -0.1682
  863loPI   C3A13133  16.109   5.994   6.810 -0.1891  0.4151  0.2156
  863loPI   C4A13134  16.515   5.763   7.029  0.0769 -0.0739  0.2048
  863loPI   C5A13135  16.424   5.428   7.242 -0.0309 -0.0298  0.1627
  863loPI   C6A13136  16.614   5.196   7.543 -0.0712 -0.0211  0.0095
  863loPI   C1B13137  17.221   6.005   5.852 -0.2516 -0.0858  0.0868
  863loPI   C2B13138  17.158   5.769   6.283  0.0461  0.5005 -0.0720
  863loPI   C3B13139  17.325   5.757   6.733  0.2798  0.2960  0.2424
  863loPI   C4B13140  17.579   5.633   6.978  0.3323 -0.0086 -0.0465
  864loPI    C113141   9.589   5.137   5.451  0.2527 -0.0746  0.0352
  864loPI    C213142   9.941   5.162   5.263  0.0387  0.0655 -0.3565
  864loPI    C313143   9.615   5.042   5.064 -0.1956  0.2213 -0.0755
  864loPI   PO413144   9.462   5.308   5.579 -0.1358  0.1894  0.2482
  864loPI   GL113145   9.525   5.590   5.865  0.2044 -0.1583  0.2734
  864loPI   GL213146   9.550   5.327   6.118  0.0170  0.3690  0.2176
  864loPI   C1A13147   9.759   5.747   6.229  0.0242 -0.1479  0.2603
  864loPI   C2A13148   9.797   5.685   6.676  0.2044 -0.0571  0.4100
  864loPI   C3A13149   9.796   5.592   7.135 -0.3557 -0.4068  0.0924
  864loPI   C4A13150   9.881   5.434   7.497 -0.0903 -0.1875  0.0667
  864loPI   C5A13151   9.925   5.441   7.934  0.1465  0.0122  0.0742
  864loPI   C6A13152  10.130   5.662   8.200  0.2011 -0.1412  0.2506
  864loPI   C1B13153   9.433   4.977   6.295 -0.0051  0.1166 -0.0048
  864loPI   C2B13154   9.434   4.850   6.734 -0.2209  0.3746  0.0200
  864loPI   C3B13155   9.279   4.836   7.134 -0.1001  0.2208 -0.1987
  864loPI   C4B13156   9.060   4.906   7.511  0.1261  0.1368 -0.1938
  865loPI    C113157  13.510   1.932   5.467 -0.0010  0.0676  0.0593
  865loPI    C213158  13.217   2.143   5.296  0.0115  0.0770  0.0495
  865loPI    C313159  13.436   1.890   5.076  0.1175  0.1911  0.0229
  865loPI   PO413160  13.478   1.878   5.635  0.0377  0.1645 -0.1674
  865loPI   GL113161  13.733   1.922   5.954 -0.0768  0.2319 -0.0263
  865loPI   GL213162  13.720   1.639   6.052 -0.2194  0.2887 -0.1265
  865loPI   C1A13163  13.622   2.110   6.243  0.0573 -0.2659  0.2501
  865loPI   C2A13164  13.602   2.198   6.648  0.2462  0.0031 -0.1538
  865loPI   C3A13165  13.699   2.238   7.108 -0.1205 -0.1787  0.1780
  865loPI   C4A13166  13.607   2.260   7.606 -0.0405  0.2177 -0.1291
  865loPI   C5A13167  13.278   2.095   7.833  0.3131  0.3331  0.0017
  865loPI   C6A13168  12.889   1.975   7.690 -0.0948  0.1783 -0.1309
  865loPI   C1B13169  13.617   1.650   6.474 -0.0380 -0.0624 -0.1164
  865loPI   C2B13170  13.538   1.571   6.951 -0.0547 -0.0087  0.0192
  865loPI   C3B13171  13.615   1.248   7.380  0.1393 -0.2674 -0.2220
  865loPI   C4B13172  13.877   1.328   7.717 -0.2055  0.0676 -0.2009
  866loPI    C113173   1.863   1.078   5.430  0.0193  0.0997 -0.1402
  866loPI    C213174   1.977   0.852   5.120 -0.3591  0.1508 -0.3235
  866loPI    C313175   1.894   1.240   5.065 -0.0520  0.2558 -0.0780
  866loPI   PO413176   2.125   1.017   5.587  0.3754  0.0365  0.0484
  866loPI   GL113177   2.127   0.929   5.946 -0.0363  0.2284  0.0444
  866loPI   GL213178   2.125   0.675   6.124 -0.1921 -0.0633  0.0453
  866loPI   C1A13179   2.163   1.128   6.295  0.1579  0.1051  0.2314
  866loPI   C2A13180   2.143   1.123   6.766 -0.2113 -0.3434  0.4343
  866loPI   C3A13181   2.158   1.109   7.168 -0.1127 -0.0071  0.2491
  866loPI   C4A13182   2.148   0.995   7.574  0.0453 -0.1502 -0.1457
  866loPI   C5A13183   1.960   0.856   7.896 -0.0361  0.0485  0.1778
  866loPI   C6A13184   1.755   0.528   8.199 -0.2047 -0.1417 -0.0387
  866loPI   C1B13185   2.181   0.387   6.427 -0.0277 -0.2627 -0.0936
  866loPI   C2B13186   2.154   0.157   6.768  0.0673  0.3258 -0.0391
  866loPI   C3B13187   2.119   0.242   7.099  0.0300 -0.2955 -0.2312
  866loPI   C4B13188   2.208   0.385   7.470  0.1516  0.0771  0.2033
  867loPI    C113189   7.599   4.298   5.417  0.0046 -0.1381  0.0827
  867loPI    C213190   7.346   3.991   5.379  0.0091 -0.1337  0.0162
  867loPI    C313191   7.520   4.148   5.055 -0.2051  0.1180  0.0194
  867loPI   PO413192   7.610   4.263   5.703 -0.0620 -0.2948 -0.0644
  867loPI   GL113193   7.814   4.242   6.021 -0.4412 -0.2345 -0.2262
  867loPI   GL213194   8.027   4.047   6.138  0.0743 -0.1944  0.2070
  867loPI   C1A13195   7.795   4.400   6.374 -0.0179  0.1300  0.0988
  867loPI   C2A13196   7.753   4.441   6.800  0.0078  0.3492 -0.0660
  867loPI   C3A13197   7.538   4.331   7.175 -0.2890 -0.0117  0.0318
  867loPI   C4A13198   7.543   4.360   7.528 -0.1017 -0.1132 -0.0215
  867loPI   C5A13199   7.734   4.105   7.891  0.1645  0.0735 -0.0864
  867loPI   C6A13200   7.688   4.067   8.330  0.0766  0.0991  0.1395
  867loPI   C1B13201   8.086   4.032   6.531  0.0151 -0.0462 -0.0976
  867loPI   C2B13202   7.911   4.023   7.004  0.1375 -0.1282  0.2410
  867loPI   C3B13203   7.812   3.984   7.418 -0.1522  0.2347 -0.1866
  867loPI   C4B13204   8.000   3.703   7.697 -0.1171 -0.2120  0.1056
  868loPI    C113205   8.462   6.738   5.548  0.0315 -0.0676 -0.2261
  868loPI    C213206   8.442   6.899   5.182 -0.1751  0.0445 -0.1670
  868loPI    C313207   8.281   7.091   5.495  0.0704 -0.0124 -0.0030
  868loPI   PO413208   8.760   6.607   5.671  0.0052  0.1659  0.2720
  868loPI   GL113209   9.047   6.523   6.042 -0.0011 -0.1094 -0.0048
  868loPI   GL213210   9.216   6.157   6.021 -0.2782 -0.1602  0.2256
  868loPI   C1A13211   9.080   6.435   6.482  0.0187 -0.0527 -0.1427
  868loPI   C2A13212   9.260   6.344   6.821 -0.0548  0.0104  0.0985
  868loPI   C3A13213   9.323   6.281   7.332 -0.1890 -0.3241 -0.1506
  868loPI   C4A13214   9.359   6.204   7.736  0.1382 -0.2050  0.2457
  868loPI   C5A13215   9.305   6.217   8.165  0.0537 -0.1711 -0.0806
  868loPI   C6A13216   9.260   5.963   8.488  0.1239  0.0712 -0.0880
  868loPI   C1B13217   9.370   5.974   6.420  0.1565 -0.0115  0.2419
  868loPI   C2B13218   9.266   5.805   6.776  0.0022  0.0866 -0.0359
  868loPI   C3B13219   9.393   5.820   7.219 -0.0338  0.1647 -0.1795
  868loPI   C4B13220   9.322   5.708   7.638  0.1516 -0.0495  0.0630
  869loPI    C113221   4.513   8.155   5.316 -0.3086  0.3790 -0.1320
  869loPI    C213222   4.475   7.949   4.975  0.0000 -0.1324  0.1309
  869loPI    C313223   4.709   8.273   4.988 -0.1195 -0.0305 -0.1724
  869loPI   PO413224   4.247   7.995   5.482  0.0992  0.0826  0.1798
  869loPI   GL113225   4.055   7.911   5.843  0.0180 -0.3293 -0.3065
  869loPI   GL213226   3.772   7.875   6.026 -0.0671  0.0836  0.3245
  869loPI   C1A13227   4.152   8.223   6.169  0.0479  0.0886 -0.2189
  869loPI   C2A13228   4.141   8.386   6.477 -0.0592  0.1016 -0.2513
  869loPI   C3A13229   4.094   8.291   6.847 -0.2285  0.1803 -0.0032
  869loPI   C4A13230   4.094   8.470   7.264  0.0212  0.1425  0.1723
  869loPI   C5A13231   4.007   8.766   7.530 -0.0675  0.1493  0.1237
  869loPI   C6A13232   3.984   8.889   8.104  0.2747 -0.3459  0.3855
  869loPI   C1B13233   3.877   7.864   6.417 -0.0042  0.1538 -0.1720
  869loPI   C2B13234   3.893   7.851   6.848  0.1396  0.0410  0.3831
  869loPI   C3B13235   3.861   7.837   7.294  0.1983 -0.0129  0.0994
  869loPI   C4B13236   3.845   7.841   7.760 -0.0477 -0.0903  0.2669
  870loPI    C113237  14.172   6.656   5.291  0.0430  0.1937  0.1780
  870loPI    C213238  14.153   6.713   4.895  0.2251 -0.1064  0.1229
  870loPI    C313239  13.820   6.632   5.102  0.1673 -0.2228 -0.0136
  870loPI   PO413240  14.263   6.837   5.421  0.1551 -0.2213 -0.2554
  870loPI   GL113241  14.228   7.015   5.779 -0.0149  0.1171 -0.1354
  870loPI   GL213242  14.123   6.892   6.027  0.0279  0.0577  0.0258
  870loPI   C1A13243  14.504   7.178   6.082 -0.1995 -0.0899 -0.0326
  870loPI   C2A13244  14.605   7.355   6.451  0.0382 -0.2065 -0.1115
  870loPI   C3A13245  14.691   7.327   6.908  0.1523 -0.2015  0.0579
  870loPI   C4A13246  14.746   7.106   7.343  0.3149  0.0566  0.1361
  870loPI   C5A13247  14.789   7.001   7.831  0.1748 -0.1493 -0.3073
  870loPI   C6A13248  15.125   6.815   8.020  0.1577  0.1840  0.0352
  870loPI   C1B13249  14.143   7.093   6.391 -0.2766  0.1015 -0.3930
  870loPI   C2B13250  14.249   6.937   6.870  0.0594 -0.2307 -0.1289
  870loPI   C3B13251  14.278   7.010   7.334 -0.0585  0.3932 -0.2454
  870loPI   C4B13252  14.320   6.825   7.664 -0.0721 -0.0346 -0.1925
  871loPI    C113253   2.778  11.096   5.403  0.1920  0.0592  0.0924
  871loPI    C213254   2.527  10.951   5.127  0.2633  0.1974 -0.0468
  871loPI    C313255   2.876  11.111   5.015  0.3535  0.1307  0.1351
  871loPI   PO413256   2.606  11.296   5.530  0.1963  0.0524  0.3215
  871loPI   GL113257   2.548  11.548   5.917 -0.1465  0.0080 -0.4060
  871loPI   GL213258   2.723  11.866   5.883 -0.2476 -0.0327  0.2983
  871loPI   C1A13259   2.649  11.358   6.311  0.0770 -0.2289  0.0739
  871loPI   C2A13260   2.665  11.307   6.787 -0.0520  0.1835  0.3698
  871loPI   C3A13261   2.611  11.185   7.147 -0.1367 -0.0977 -0.1070
  871loPI   C4A13262   2.549  11.119   7.638 -0.2128 -0.0226 -0.1061
  871loPI   C5A13263   2.543  11.289   8.085  0.1625  0.0833  0.2331
  871loPI   C6A13264   2.545  11.032   8.466  0.1634 -0.0501  0.1401
  871loPI   C1B13265   2.638  11.866   6.380 -0.0539 -0.0207 -0.0531
  871loPI   C2B13266   2.573  11.799   6.763 -0.0222  0.0415 -0.1844
  871loPI   C3B13267   2.519  11.670   7.115  0.1403  0.0416 -0.1586
  871loPI   C4B13268   2.615  11.576   7.513  0.1338  0.0523 -0.2047
  872loPI    C113269   7.675   8.897   5.864  0.0400  0.0179  0.0708
  872loPI    C213270   7.646   9.181   5.584 -0.2388  0.0390  0.1182
  872loPI    C313271   7.948   8.918   5.572 -0.1008  0.2019 -0.0496
  872loPI   PO413272   7.412   8.933   6.020 -0.1338 -0.0554  0.1445
  872loPI   GL113273   7.384   8.682   6.338  0.0993  0.0536  0.1054
  872loPI   GL213274   7.751   8.610   6.337  0.0157 -0.0788 -0.0969
  872loPI   C1A13275   7.291   8.968   6.679 -0.0941  0.0762  0.0847
  872loPI   C2A13276   7.377   8.944   7.050 -0.1687 -0.1755  0.0656
  872loPI   C3A13277   7.467   8.936   7.465 -0.0840  0.1527  0.0157
  872loPI   C4A13278   7.698   9.028   7.744  0.1122 -0.2085 -0.1209
  872loPI   C5A13279   7.602   9.162   8.071  0.1195  0.3423 -0.1994
  872loPI   C6A13280   7.502   9.345   8.399  0.3212  0.1388  0.0176
  872loPI   C1B13281   7.660   8.542   6.823 -0.1544  0.1545 -0.1734
  872loPI   C2B13282   7.724   8.434   7.199 -0.0311  0.1221  0.0693
  872loPI   C3B13283   7.661   8.330   7.664 -0.0262  0.1714 -0.0172
  872loPI   C4B13284   7.676   8.326   8.098  0.1861 -0.2024  0.2934
  873loPI    C113285  10.377   5.365   5.474 -0.0857  0.1008  0.0529
  873loPI    C213286  10.499   5.188   5.137 -0.0730  0.1821  0.0147
  873loPI    C313287  10.315   5.543   5.121 -0.1047  0.1693  0.0906
  873loPI   PO413288  10.522   5.375   5.655 -0.3229 -0.1591 -0.2355
  873loPI   GL113289  10.589   5.221   5.987  0.1833  0.0330  0.1285
  873loPI   GL213290  10.396   4.987   6.074 -0.0697  0.0446  0.0296
  873loPI   C1A13291  10.655   5.322   6.416 -0.2238  0.1165  0.2008
  873loPI   C2A13292  10.743   5.277   6.888  0.2859 -0.1004  0.1475
  873loPI   C3A13293  10.691   5.071   7.313  0.0695 -0.0003 -0.1417
  873loPI   C4A13294  10.587   4.922   7.774  0.0173  0.0254  0.0226
  873loPI   C5A13295  10.435   4.651   8.122 -0.1605  0.3186 -0.2086
  873loPI   C6A13296  10.371   4.404   8.465 -0.3856  0.0606  0.1382
  873loPI   C1B13297  10.417   4.884   6.502 -0.1617 -0.2356  0.1808
  873loPI   C2B13298  10.302   4.785   6.937  0.2969  0.0535 -0.1461
  873loPI   C3B13299  10.198   4.936   7.361  0.0019 -0.1864  0.0475
  873loPI   C4B13300  10.115   4.828   7.715  0.1755  0.2815  0.2093
  874loPI    C113301   6.796   0.995   5.586  0.0219  0.1623  0.0934
  874loPI    C213302   6.648   0.781   5.282 -0.1572 -0.0225  0.3059
  874loPI    C313303   7.044   0.807   5.335 -0.1230  0.0584  0.0266
  874loPI   PO413304   6.682   0.902   5.769 -0.0154 -0.2466 -0.3046
  874loPI   GL113305   6.709   0.593   6.107 -0.1722 -0.1213 -0.2096
  874loPI   GL213306   6.670   0.874   6.362 -0.1067  0.4131  0.4013
  874loPI   C1A13307   6.538   0.459   6.555  0.1039  0.2039  0.1176
  874loPI   C2A13308   6.179   0.607   6.943 -0.2895 -0.0821  0.0795
  874loPI   C3A13309   6.129   0.665   7.381  0.1041 -0.1029 -0.0904
  874loPI   C4A13310   6.189   0.567   7.871 -0.0111 -0.1216  0.0469
  874loPI   C5A13311   6.377   0.345   8.271 -0.1196 -0.0476 -0.2282
  874loPI   C6A13312   6.142  -0.016   8.439 -0.1155  0.0448  0.2433
  874loPI   C1B13313   6.364   1.028   6.673  0.0182  0.1685 -0.2340
  874loPI   C2B13314   6.405   1.095   7.128  0.0661 -0.1171 -0.3353
  874loPI   C3B13315   6.628   1.178   7.467  0.1493 -0.0815  0.0596
  874loPI   C4B13316   6.633   1.349   7.914  0.1000 -0.3148 -0.0710
  875loPI    C113317   7.320   7.329   5.003  0.1446 -0.1502  0.0354
  875loPI    C213318   7.516   7.071   4.769  0.0823 -0.1362 -0.0325
  875loPI    C313319   7.192   7.261   4.630  0.0381 -0.1365  0.0689
  875loPI   PO413320   7.380   7.246   5.245  0.2648  0.2374  0.1458
  875loPI   GL113321   7.198   7.273   5.703 -0.1552 -0.0039  0.1394
  875loPI   GL213322   7.432   7.234   6.008 -0.4547 -0.1942 -0.1005
  875loPI   C1A13323   7.130   7.624   5.936  0.0866 -0.0903 -0.1973
  875loPI   C2A13324   6.734   7.942   6.104 -0.1925  0.0506  0.0672
  875loPI   C3A13325   6.685   8.009   6.471  0.1569 -0.0047 -0.1146
  875loPI   C4A13326   6.681   8.319   6.764  0.3064  0.0476  0.4622
  875loPI   C5A13327   6.647   8.353   7.280 -0.2371 -0.0365  0.1684
  875loPI   C6A13328   6.735   8.472   7.694 -0.0548 -0.0535  0.1324
  875loPI   C1B13329   7.276   7.394   6.394 -0.1897  0.0195  0.0762
  875loPI   C2B13330   7.113   7.383   6.717  0.0212 -0.2158  0.1295
  875loPI   C3B13331   7.012   7.090   6.985  0.0042  0.0861 -0.0510
  875loPI   C4B13332   6.885   6.728   7.235 -0.3185  0.0465 -0.0479
  876loPI    C113333   2.564  13.175   5.329  0.1435  0.0622  0.0005
  876loPI    C213334   2.615  13.512   5.119 -0.1170  0.1009 -0.0035
  876loPI    C313335   2.445  13.192   4.948  0.2607 -0.0844 -0.0439
  876loPI   PO413336   2.447  13.326   5.530 -0.0454  0.2722 -0.1360
  876loPI   GL113337   2.607  13.418   5.846  0.2384 -0.0974 -0.0679
  876loPI   GL213338   2.476  13.764   5.992  0.1823  0.2516  0.1697
  876loPI   C1A13339   2.750  13.355   6.298 -0.0985  0.2259  0.0607
  876loPI   C2A13340   2.682  13.375   6.767 -0.1577 -0.0045  0.2122
  876loPI   C3A13341   2.526  13.594   6.997  0.1476  0.2584 -0.2337
  876loPI   C4A13342   2.560  13.700   7.435 -0.1111  0.0814  0.0600
  876loPI   C5A13343   2.534  13.734   7.836 -0.0882  0.0367 -0.1917
  876loPI   C6A13344   2.542  13.416   8.192 -0.1193  0.3804 -0.1720
  876loPI   C1B13345   2.262  13.528   6.304  0.4405 -0.0898 -0.1297
  876loPI   C2B13346   2.203  13.364   6.657 -0.4084  0.2360 -0.0458
  876loPI   C3B13347   2.201  13.221   7.041  0.3295  0.1937  0.3694
  876loPI   C4B13348   2.142  12.982   7.385  0.0049 -0.0771  0.3580
  877loPI    C113349  16.728   4.929   4.953  0.0849  0.1049 -0.0338
  877loPI    C213350  16.974   5.124   5.201 -0.2466  0.4705  0.0176
  877loPI    C313351  16.965   5.220   4.813  0.2680 -0.0974 -0.1495
  877loPI   PO413352  16.488   4.916   5.180 -0.2284 -0.0129 -0.0699
  877loPI   GL113353  16.571   5.005   5.573  0.2489  0.0300  0.0777
  877loPI   GL213354  16.887   5.007   5.731 -0.1684  0.1593  0.2202
  877loPI   C1A13355  16.564   5.180   6.111 -0.0441 -0.3509 -0.1635
  877loPI   C2A13356  16.814   5.293   6.378  0.3779  0.1422 -0.1712
  877loPI   C3A13357  16.967   5.411   6.777  0.0542 -0.0382 -0.2577
  877loPI   C4A13358  16.926   5.435   7.181 -0.0974  0.1506 -0.0823
  877loPI   C5A13359  16.843   5.629   7.523  0.3064  0.0272  0.2595
  877loPI   C6A13360  16.756   5.901   7.943  0.1858  0.0566  0.1913
  877loPI   C1B13361  17.037   4.899   6.174  0.2478  0.0384 -0.1639
  877loPI   C2B13362  17.010   4.883   6.634 -0.4029  0.1221 -0.0252
  877loPI   C3B13363  16.985   4.932   7.106 -0.0130 -0.0246  0.1027
  877loPI   C4B13364  17.023   4.967   7.532 -0.0200 -0.1072  0.2360
  878loPI    C113365  16.685  11.324   5.480 -0.0430  0.1307  0.1667
  878loPI    C213366  16.536  11.516   5.797  0.0835  0.3365  0.1035
  878loPI    C313367  16.482  11.664   5.430 -0.1881  0.0228  0.0125
  878loPI   PO413368  16.868  11.156   5.566 -0.1745  0.2272  0.1648
  878loPI   GL113369  17.121  11.026   5.768 -0.0288 -0.0017 -0.3472
  878loPI   GL213370  16.875  11.096   6.117 -0.0409  0.0657  0.0541
  878loPI   C1A13371  17.372  10.963   6.091 -0.0071  0.0281  0.0024
  878loPI   C2A13372  17.564  11.026   6.498  0.2799 -0.2142 -0.3605
  878loPI   C3A13373  17.553  10.941   6.991 -0.0149  0.1480 -0.1509
  878loPI   C4A13374  17.422  10.940   7.424  0.2533  0.0688  0.2472
  878loPI   C5A13375  17.347  11.051   7.782 -0.0117 -0.0274 -0.1557
  878loPI   C6A13376  17.393  11.167   8.169 -0.0095  0.0321  0.0235
  878loPI   C1B13377  16.668  11.024   6.430  0.1478  0.1663  0.0344
  878loPI   C2B13378  16.612  10.922   6.856 -0.1193 -0.3033  0.0921
  878loPI   C3B13379  16.506  10.996   7.268  0.0030 -0.0972  0.2262
  878loPI   C4B13380  16.415  11.039   7.684 -0.2387 -0.2160 -0.2371
  879loPI    C113381  13.078  11.914   5.174  0.0356 -0.1710 -0.1529
  879loPI    C213382  12.804  11.809   4.903 -0.1619  0.1715 -0.0925
  879loPI    C313383  12.938  12.185   4.916  0.3145  0.0105 -0.1185
  879loPI   PO413384  12.994  11.806   5.429  0.3082 -0.1164  0.1205
  879loPI   GL113385  12.711  11.707   5.699  0.0066  0.0209  0.1076
  879loPI   GL213386  12.466  11.834   6.020 -0.0589 -0.0783  0.3383
  879loPI   C1A13387  12.928  11.623   6.107 -0.1543 -0.1127 -0.0851
  879loPI   C2A13388  12.944  11.558   6.538 -0.1307  0.0494  0.0352
  879loPI   C3A13389  12.928  11.692   6.961  0.2042 -0.2357  0.0763
  879loPI   C4A13390  12.886  11.545   7.406 -0.0034 -0.1093  0.0556
  879loPI   C5A13391  12.938  11.464   7.901  0.0121 -0.2018  0.4271
  879loPI   C6A13392  13.306  11.688   8.011  0.2948  0.3762 -0.0035
  879loPI   C1B13393  12.517  11.830   6.420  0.1804  0.0886 -0.0473
  879loPI   C2B13394  12.411  11.923   6.885 -0.1405 -0.1703 -0.1125
  879loPI   C3B13395  12.550  11.870   7.258 -0.0616 -0.1695  0.2587
  879loPI   C4B13396  12.575  11.884   7.695 -0.0363 -0.0923 -0.0396
  880loPI    C113397  15.868  16.856   5.292 -0.2822  0.0695 -0.1109
  880loPI    C213398  15.890  16.563   5.021 -0.0883 -0.0659  0.0487
  880loPI    C313399  15.896  16.945   4.903 -0.3810 -0.1236 -0.1637
  880loPI   PO413400  15.670  16.757   5.455 -0.1839 -0.1231  0.0346
  880loPI   GL113401  15.564  16.849   5.841  0.4592  0.2049 -0.0807
  880loPI   GL213402  15.322  16.624   5.765 -0.0676  0.1596 -0.0348
  880loPI   C1A13403  15.784  16.782   6.261  0.0409  0.0024  0.1447
  880loPI   C2A13404  15.798  16.918   6.751 -0.0317 -0.1913 -0.2126
  880loPI   C3A13405  15.932  16.997   7.119 -0.0437  0.2923  0.0755
  880loPI   C4A13406  15.929  17.065   7.590  0.1297  0.0719 -0.1606
  880loPI   C5A13407  15.854  17.030   8.055 -0.0213 -0.0983 -0.0977
  880loPI   C6A13408  15.814  16.838   8.502 -0.1506 -0.0539  0.0236
  880loPI   C1B13409  15.341  16.548   6.212  0.0971 -0.1926 -0.0326
  880loPI   C2B13410  15.422  16.599   6.666  0.1643 -0.1041 -0.0067
  880loPI   C3B13411  15.504  16.655   7.100 -0.0984  0.0450 -0.4043
  880loPI   C4B13412  15.611  16.682   7.544 -0.7862 -0.0097 -0.0466
  881loPI    C113413   9.427   6.145   5.221  0.0100 -0.1248  0.1663
  881loPI    C213414   9.174   5.943   4.987 -0.0037 -0.1073  0.1660
  881loPI    C313415   9.463   6.166   4.823 -0.1024  0.0195  0.1630
  881loPI   PO413416   9.501   5.991   5.408 -0.0983 -0.1133 -0.1336
  881loPI   GL113417   9.627   6.124   5.739  0.3798 -0.3101 -0.3735
  881loPI   GL213418   9.925   6.011   5.788  0.1842  0.0886  0.1053
  881loPI   C1A13419   9.651   6.302   6.154  0.0421 -0.3003 -0.0912
  881loPI   C2A13420   9.814   6.237   6.556 -0.0773 -0.0139 -0.6564
  881loPI   C3A13421   9.797   6.088   6.964  0.0726 -0.2603 -0.1250
  881loPI   C4A13422   9.782   6.033   7.422 -0.2155  0.1719  0.1498
  881loPI   C5A13423   9.956   5.882   7.775 -0.1601 -0.2334  0.0313
  881loPI   C6A13424   9.543   5.794   8.055 -0.2020 -0.1292 -0.2925
  881loPI   C1B13425  10.144   6.027   6.094 -0.0561 -0.2857 -0.2202
  881loPI   C2B13426  10.265   5.945   6.529 -0.1965 -0.1962  0.6247
  881loPI   C3B13427  10.227   5.857   7.002 -0.1990  0.0023 -0.0402
  881loPI   C4B13428  10.370   5.873   7.422  0.0857 -0.2796  0.1211
  882loPI    C113429  15.764  17.726   5.244  0.1491  0.1098  0.0949
  882loPI    C213430  16.130  17.848   5.135  0.0302  0.4208  0.0318
  882loPI    C313431  15.842  17.809   4.860  0.1030 -0.1634  0.0242
  882loPI   PO413432  15.829  17.744   5.486  0.4550 -0.1392 -0.0047
  882loPI   GL113433  15.770  17.757   5.880 -0.1483  0.1534  0.2824
  882loPI   GL213434  15.489  17.920   6.113  0.2073 -0.1339 -0.1031
  882loPI   C1A13435  15.944  18.092   6.217  0.0156  0.1432 -0.0943
  882loPI   C2A13436  15.878  17.941   6.685  0.0796  0.0807 -0.0030
  882loPI   C3A13437  15.891  18.024   7.107 -0.0224 -0.0680  0.0555
  882loPI   C4A13438  15.959  17.975   7.476  0.0512 -0.0089  0.1140
  882loPI   C5A13439  15.832  18.007   7.984  0.2478 -0.0563  0.1113
  882loPI   C6A13440  15.749  17.922   8.411  0.0520  0.0268 -0.1812
  882loPI   C1B13441  15.461  18.258   6.487 -0.0397  0.1093  0.0136
  882loPI   C2B13442  15.391  18.219   6.935  0.0916 -0.0484 -0.1087
  882loPI   C3B13443  15.393  18.317   7.329  0.0602  0.1657  0.0266
  882loPI   C4B13444  15.461  18.240   7.730 -0.1076  0.0928 -0.1279
  883loPI    C113445  11.897   4.668   5.124 -0.0364  0.0731  0.1190
  883loPI    C213446  11.734   4.796   4.782  0.1316  0.2327  0.0968
  883loPI    C313447  11.952   4.461   4.787 -0.0021  0.1447  0.0802
  883loPI   PO413448  11.885   4.912   5.318  0.0600  0.2198  0.0404
  883loPI   GL113449  11.885   5.047   5.744 -0.1661  0.0325 -0.1745
  883loPI   GL213450  11.609   4.981   5.788  0.0936  0.3993 -0.0810
  883loPI   C1A13451  12.082   5.122   6.029 -0.2442  0.0540  0.0084
  883loPI   C2A13452  12.159   4.998   6.404 -0.0470  0.0382 -0.0948
  883loPI   C3A13453  12.072   5.006   6.759  0.1343  0.0922  0.1732
  883loPI   C4A13454  12.106   5.053   7.159 -0.1500  0.2066 -0.3902
  883loPI   C5A13455  12.119   4.939   7.681 -0.2367 -0.3983 -0.2017
  883loPI   C6A13456  12.303   5.170   7.986 -0.1168  0.1202 -0.1863
  883loPI   C1B13457  11.703   4.841   6.166 -0.2516 -0.1205  0.0217
  883loPI   C2B13458  11.717   4.677   6.599  0.3373 -0.0720  0.0943
  883loPI   C3B13459  11.631   4.721   7.080  0.1210  0.1365 -0.1175
  883loPI   C4B13460  11.650   4.534   7.500  0.1564  0.2435  0.0978
  884loPI    C113461   2.245   6.375   5.144  0.3345  0.2746 -0.0178
  884loPI    C213462   2.408   6.062   4.956  0.2379  0.0675  0.2358
  884loPI    C313463   2.218   6.345   4.746  0.1046 -0.1738  0.0249
  884loPI   PO413464   2.488   6.508   5.324  0.3134  0.0390 -0.0970
  884loPI   GL113465   2.688   6.449   5.766 -0.1615 -0.0953  0.0221
  884loPI   GL213466   2.909   6.659   5.630 -0.1548  0.0538 -0.1616
  884loPI   C1A13467   2.725   6.384   6.139  0.2155 -0.3075  0.4031
  884loPI   C2A13468   2.677   6.421   6.569 -0.0976 -0.3989 -0.3029
  884loPI   C3A13469   2.703   6.335   7.091 -0.2230  0.0131  0.0207
  884loPI   C4A13470   2.792   6.421   7.537  0.1048  0.1798 -0.1723
  884loPI   C5A13471   2.742   6.282   7.967 -0.0818 -0.0955  0.1845
  884loPI   C6A13472   2.637   6.279   8.287 -0.1729 -0.3638 -0.1216
  884loPI   C1B13473   2.937   6.872   5.969 -0.0938  0.2465 -0.1585
  884loPI   C2B13474   2.918   6.893   6.482  0.1215 -0.0081 -0.0940
  884loPI   C3B13475   2.835   6.798   6.889 -0.0571  0.1526  0.2174
  884loPI   C4B13476   2.973   6.801   7.340 -0.3143 -0.0943  0.1075
  885loPI    C113477   1.504   2.721   5.087 -0.1274  0.0946  0.1547
  885loPI    C213478   1.827   2.704   4.853 -0.1349  0.1241  0.1421
  885loPI    C313479   1.564   2.403   4.852 -0.0360  0.0365  0.2560
  885loPI   PO413480   1.692   2.804   5.341 -0.0131 -0.3056 -0.0011
  885loPI   GL113481   1.605   2.770   5.707 -0.0215 -0.1296 -0.1260
  885loPI   GL213482   1.390   2.732   5.905  0.0232 -0.0560 -0.1349
  885loPI   C1A13483   1.787   2.883   6.160  0.0852  0.2329 -0.0089
  885loPI   C2A13484   1.777   2.863   6.621  0.1747 -0.3829  0.0791
  885loPI   C3A13485   1.757   2.864   7.020 -0.0761  0.1805 -0.1766
  885loPI   C4A13486   1.850   2.964   7.399  0.4071 -0.1418 -0.1081
  885loPI   C5A13487   1.828   2.679   7.732  0.2178  0.0980 -0.0639
  885loPI   C6A13488   1.575   2.498   8.018  0.1065  0.2323 -0.1110
  885loPI   C1B13489   1.303   2.640   6.308 -0.1480  0.0412 -0.2351
  885loPI   C2B13490   1.325   2.657   6.721  0.0326  0.0738  0.2138
  885loPI   C3B13491   1.488   2.479   7.119  0.0822  0.1764  0.1459
  885loPI   C4B13492   1.371   2.425   7.532 -0.1372 -0.2001  0.0288
  886loPI    C113493   7.183  17.049   5.256 -0.0401 -0.0437  0.1526
  886loPI    C213494   7.283  16.663   5.223 -0.0790 -0.0450  0.0475
  886loPI    C313495   7.147  16.863   4.904 -0.1483  0.0306  0.1239
  886loPI   PO413496   7.007  17.007   5.474  0.1871  0.1428 -0.0581
  886loPI   GL113497   6.872  16.851   5.827 -0.2018 -0.1061 -0.0997
  886loPI   GL213498   6.621  17.013   5.800 -0.1279 -0.1554 -0.0155
  886loPI   C1A13499   6.898  17.022   6.261 -0.0880 -0.0444  0.0325
  886loPI   C2A13500   6.864  17.135   6.702  0.1969  0.0603  0.3104
  886loPI   C3A13501   7.024  17.270   7.028 -0.0030  0.3967 -0.2424
  886loPI   C4A13502   7.010  17.396   7.383  0.1579  0.3044 -0.0502
  886loPI   C5A13503   6.969  17.297   7.741  0.2258  0.0037  0.4477
  886loPI   C6A13504   6.780  17.056   8.005  0.0421 -0.1068 -0.1362
  886loPI   C1B13505   6.372  17.218   6.149 -0.3417 -0.0840  0.0056
  886loPI   C2B13506   6.408  17.164   6.530  0.0358 -0.2147 -0.1537
  886loPI   C3B13507   6.297  17.121   6.874 -0.4648 -0.2135 -0.2232
  886loPI   C4B13508   6.253  17.187   7.354  0.1142 -0.2424  0.2223
  887loPI    C113509   2.151  12.245   5.548 -0.1319 -0.1144  0.0223
  887loPI    C213510   2.471  12.291   5.312 -0.1756 -0.1806 -0.0501
  887loPI    C313511   2.235  12.604   5.391 -0.1286 -0.1457 -0.0479
  887loPI   PO413512   2.217  12.179   5.759 -0.0034  0.0391 -0.0042
  887loPI   GL113513   2.252  12.139   6.112  0.0214 -0.0187  0.1339
  887loPI   GL213514   2.247  12.492   6.143 -0.1692  0.0946  0.2461
  887loPI   C1A13515   2.216  12.092   6.617  0.0656  0.3670  0.1884
  887loPI   C2A13516   2.204  12.039   7.029  0.1738 -0.1176 -0.0029
  887loPI   C3A13517   2.159  11.919   7.440  0.0523  0.0760  0.2706
  887loPI   C4A13518   2.131  11.858   7.893  0.1172 -0.4009 -0.4060
  887loPI   C5A13519   2.083  12.080   8.260  0.0682 -0.1329  0.2593
  887loPI   C6A13520   1.832  12.391   8.288  0.1144  0.1695  0.1384
  887loPI   C1B13521   2.649  12.385   6.349 -0.1554  0.1698 -0.1730
  887loPI   C2B13522   2.659  12.336   6.757  0.1663  0.0757 -0.3823
  887loPI   C3B13523   2.696  12.227   7.140  0.0729  0.0475 -0.1353
  887loPI   C4B13524   2.588  12.115   7.573 -0.2578  0.2941  0.1362
  888loPI    C113525   4.249   5.811   5.418 -0.0971  0.2304  0.0208
  888loPI    C213526   4.619   5.906   5.537 -0.0147  0.0502 -0.0881
  888loPI    C313527   4.535   5.878   5.147 -0.0388 -0.3077 -0.0607
  888loPI   PO413528   4.091   5.963   5.577 -0.2085 -0.1787  0.2150
  888loPI   GL113529   4.396   6.226   5.856 -0.0318 -0.2357  0.0599
  888loPI   GL213530   4.358   6.527   5.798 -0.0447 -0.4280 -0.2476
  888loPI   C1A13531   4.552   6.050   6.281  0.1389 -0.1509  0.0284
  888loPI   C2A13532   4.539   5.967   6.666 -0.1094 -0.1804 -0.3068
  888loPI   C3A13533   4.474   6.007   7.119 -0.3478 -0.3118 -0.0345
  888loPI   C4A13534   4.299   6.111   7.432  0.0447 -0.0689 -0.0617
  888loPI   C5A13535   4.204   6.219   7.774  0.0264 -0.0024 -0.1019
  888loPI   C6A13536   4.384   6.465   8.064 -0.1607 -0.0949  0.2055
  888loPI   C1B13537   4.359   6.594   6.254  0.1264  0.1022 -0.2738
  888loPI   C2B13538   4.332   6.581   6.660 -0.1101 -0.1909  0.1512
  888loPI   C3B13539   4.226   6.521   7.071  0.0202  0.2504  0.0691
  888loPI   C4B13540   4.068   6.632   7.557 -0.1762 -0.0181 -0.1568
  889loPI    C113541  14.549  14.444   5.670  0.2320  0.1142 -0.0067
  889loPI    C213542  14.795  14.230   5.902 -0.0581 -0.0761  0.1333
  889loPI    C313543  14.789  14.170   5.506  0.2139  0.0272  0.1110
  889loPI   PO413544  14.563  14.683   5.934  0.0396  0.1822 -0.3207
  889loPI   GL113545  14.261  14.785   6.315 -0.2437  0.0069  0.4053
  889loPI   GL213546  13.976  14.671   6.491  0.1529 -0.2282  0.2749
  889loPI   C1A13547  14.428  14.649   6.561 -0.0604  0.0025  0.0930
  889loPI   C2A13548  14.503  14.505   7.043 -0.3729 -0.1603  0.2679
  889loPI   C3A13549  14.403  14.527   7.350 -0.0509  0.1867 -0.2199
  889loPI   C4A13550  14.324  14.640   7.778  0.1376  0.0453  0.1215
  889loPI   C5A13551  13.965  14.454   8.050  0.0882 -0.0161  0.1467
  889loPI   C6A13552  13.666  14.098   7.914  0.1329 -0.0260  0.0391
  889loPI   C1B13553  13.981  14.708   6.957  0.1148 -0.1767  0.0886
  889loPI   C2B13554  13.984  14.846   7.416  0.0197  0.0896 -0.0638
  889loPI   C3B13555  13.860  14.856   7.725  0.3976  0.2472 -0.2315
  889loPI   C4B13556  13.705  14.882   8.167 -0.1112 -0.0620  0.1272
  890loPI    C113557   5.154   5.457   5.622 -0.1973  0.3273 -0.1234
  890loPI    C213558   5.180   5.312   5.251  0.0909 -0.3499  0.1460
  890loPI    C313559   5.501   5.310   5.489 -0.0411  0.2550  0.3445
  890loPI   PO413560   5.053   5.680   5.616 -0.1634  0.1126  0.0005
  890loPI   GL113561   4.961   6.044   5.853 -0.0615  0.1273 -0.0969
  890loPI   GL213562   4.856   5.682   6.037  0.0906 -0.1233 -0.1108
  890loPI   C1A13563   5.039   6.026   6.443  0.0716 -0.1799 -0.1213
  890loPI   C2A13564   5.059   6.091   6.827 -0.2373 -0.0663 -0.1531
  890loPI   C3A13565   4.949   6.026   7.268  0.0622 -0.2902  0.1876
  890loPI   C4A13566   4.797   6.133   7.677 -0.0305  0.2437 -0.3817
  890loPI   C5A13567   4.652   5.958   7.940  0.0752  0.1421 -0.0571
  890loPI   C6A13568   4.327   6.019   8.237 -0.1087 -0.1710 -0.0739
  890loPI   C1B13569   4.868   5.591   6.443 -0.0087 -0.2585 -0.0106
  890loPI   C2B13570   4.775   5.625   6.880  0.0671  0.0418  0.0542
  890loPI   C3B13571   4.656   5.553   7.247 -0.0427  0.2191 -0.1288
  890loPI   C4B13572   4.865   5.597   7.660 -0.0619 -0.2569  0.2466
  891loPI    C113573  16.428   0.228   5.170  0.3722 -0.3377  0.0250
  891loPI    C213574  16.576   0.599   5.200 -0.1977 -0.0929 -0.0543
  891loPI    C313575  16.673   0.369   4.887 -0.0189  0.0733 -0.1230
  891loPI   PO413576  16.387   0.152   5.449 -0.2297  0.1114 -0.1679
  891loPI   GL113577  16.449   0.323   5.794  0.1120  0.1425 -0.2156
  891loPI   GL213578  16.492   0.133   6.011  0.0061  0.0339 -0.0386
  891loPI   C1A13579  16.213   0.545   6.130 -0.3861 -0.0851 -0.0978
  891loPI   C2A13580  16.297   0.712   6.518 -0.1531  0.1978 -0.2460
  891loPI   C3A13581  16.263   0.683   6.975  0.1107 -0.2389  0.1530
  891loPI   C4A13582  16.216   0.812   7.438 -0.4255 -0.2219  0.0145
  891loPI   C5A13583  16.243   0.850   7.901  0.0239  0.0273 -0.2295
  891loPI   C6A13584  16.147   0.729   8.308  0.1660  0.1012  0.1113
  891loPI   C1B13585  16.732   0.410   6.310  0.1878 -0.1931 -0.1014
  891loPI   C2B13586  16.704   0.533   6.685 -0.2716 -0.1571 -0.0693
  891loPI   C3B13587  16.744   0.528   7.104  0.3183  0.0353 -0.0887
  891loPI   C4B13588  16.728   0.544   7.619  0.0664 -0.1770  0.1123
  892loPI    C113589  15.407  15.063   5.801  0.1388 -0.0617 -0.1047
  892loPI    C213590  15.189  15.179   5.486 -0.1014  0.0368  0.0949
  892loPI    C313591  15.319  14.801   5.512  0.1474  0.0943 -0.2499
  892loPI   PO413592  15.286  15.134   5.966  0.2648  0.0358  0.0585
  892loPI   GL113593  15.269  14.988   6.359 -0.3793  0.1627 -0.1967
  892loPI   GL213594  15.475  14.738   6.362  0.0377 -0.0816 -0.1177
  892loPI   C1A13595  15.300  15.189   6.801 -0.1627 -0.2601 -0.1483
  892loPI   C2A13596  15.323  15.105   7.269  0.0917 -0.1297  0.1034
  892loPI   C3A13597  15.222  15.089   7.581 -0.0801  0.0376  0.1238
  892loPI   C4A13598  15.154  15.463   7.909  0.1790 -0.2672 -0.0486
  892loPI   C5A13599  15.114  15.757   8.219  0.0438  0.2563 -0.1744
  892loPI   C6A13600  14.741  16.006   8.255 -0.1448 -0.1965 -0.1748
  892loPI   C1B13601  15.732  14.779   6.670  0.0561 -0.2020  0.0995
  892loPI   C2B13602  15.803  14.631   7.043 -0.0096 -0.0378 -0.0126
  892loPI   C3B13603  15.644  14.776   7.477 -0.1894 -0.1425  0.0683
  892loPI   C4B13604  15.738  14.682   7.984 -0.3595 -0.2041 -0.0485
  893loPI    C113605  18.005  11.591   4.809  0.0106  0.1077 -0.2066
  893loPI    C213606  18.103  11.402   4.470 -0.0185  0.0974 -0.2093
  893loPI    C313607  17.848  11.710   4.461 -0.0501  0.0717 -0.1917
  893loPI   PO413608  18.118  11.387   5.039  0.1165 -0.0210  0.2193
  893loPI   GL113609  18.097  11.319   5.553  0.3864  0.1063 -0.1345
  893loPI   GL213610  18.291  10.992   5.664  0.0405 -0.0313 -0.0064
  893loPI   C1A13611  18.058  11.434   5.977  0.1658  0.0510 -0.1463
  893loPI   C2A13612  17.983  11.343   6.450 -0.1050 -0.2488  0.2430
  893loPI   C3A13613  18.013  11.195   6.814  0.2232 -0.1994  0.1085
  893loPI   C4A13614  17.888  11.149   7.240  0.0734 -0.1609 -0.0648
  893loPI   C5A13615  17.812  11.160   7.634 -0.0486  0.1542  0.0466
  893loPI   C6A13616  18.209  11.089   7.945 -0.1678  0.0471 -0.1581
  893loPI   C1B13617  18.377  11.030   6.111 -0.1637  0.0446  0.1974
  893loPI   C2B13618  18.443  11.030   6.531  0.0779  0.1591  0.0043
  893loPI   C3B13619  18.459  10.970   6.972  0.0984  0.0922  0.1436
  893loPI   C4B13620  18.314  10.892   7.384  0.0525 -0.0884  0.0483
  894loPI    C113621   2.897   5.066   5.027  0.0707  0.0804  0.1506
  894loPI    C213622   2.777   5.325   4.747  0.0520 -0.1116 -0.0216
  894loPI    C313623   3.145   5.169   4.730  0.0458 -0.1346  0.0534
  894loPI   PO413624   2.845   5.194   5.252 -0.0074  0.0095 -0.0673
  894loPI   GL113625   2.802   5.488   5.551  0.0455 -0.0260 -0.0384
  894loPI   GL213626   2.791   5.822   5.637 -0.0270  0.2808  0.0041
  894loPI   C1A13627   2.793   5.406   5.993  0.0775 -0.1583 -0.1219
  894loPI   C2A13628   2.737   5.525   6.405 -0.0085  0.2599  0.0423
  894loPI   C3A13629   2.688   5.465   6.859  0.3240 -0.0778 -0.1334
  894loPI   C4A13630   2.670   5.363   7.308  0.0629 -0.1014  0.1497
  894loPI   C5A13631   2.608   5.058   7.654  0.0774  0.2593  0.1573
  894loPI   C6A13632   2.647   5.037   8.085  0.1273  0.2241 -0.1249
  894loPI   C1B13633   2.565   5.874   6.050 -0.1715  0.1351  0.4152
  894loPI   C2B13634   2.479   6.008   6.419  0.1495  0.4462  0.0025
  894loPI   C3B13635   2.335   6.113   6.863 -0.1863 -0.0103  0.2232
  894loPI   C4B13636   2.181   6.232   7.288  0.1344 -0.0202 -0.1680
  895loPI    C113637   9.960  14.269   5.987  0.2089 -0.1728  0.0121
  895loPI    C213638   9.882  14.342   5.601 -0.0808 -0.1980  0.0636
  895loPI    C313639  10.183  14.099   5.702  0.0709 -0.0988 -0.1422
  895loPI   PO413640   9.977  14.403   6.100 -0.1040 -0.1547  0.2715
  895loPI   GL113641  10.163  14.393   6.457  0.2045  0.0963 -0.2799
  895loPI   GL213642   9.939  14.531   6.649  0.1389 -0.2256 -0.2995
  895loPI   C1A13643  10.382  14.399   6.928  0.1516 -0.1872  0.0693
  895loPI   C2A13644  10.635  14.472   7.294  0.1222  0.0284 -0.1318
  895loPI   C3A13645  10.660  14.493   7.722  0.0114 -0.0073  0.4520
  895loPI   C4A13646  10.991  14.642   7.951  0.0852  0.1438 -0.0128
  895loPI   C5A13647  11.313  14.582   8.321  0.3610  0.1011  0.2011
  895loPI   C6A13648  11.550  14.604   8.724 -0.0371  0.1296  0.0311
  895loPI   C1B13649   9.806  14.355   7.059  0.0666 -0.3130  0.0765
  895loPI   C2B13650   9.722  14.445   7.487  0.0177 -0.0981 -0.0244
  895loPI   C3B13651   9.796  14.550   7.854 -0.0706 -0.1226  0.1360
  895loPI   C4B13652   9.812  14.371   8.280  0.0374  0.2177 -0.1774
  896loPI    C113653  11.160  17.067   5.432 -0.1973 -0.1035 -0.2713
  896loPI    C213654  11.256  16.757   5.199  0.1195 -0.2437  0.0370
  896loPI    C313655  11.364  17.127   5.094  0.0387 -0.2756 -0.1623
  896loPI   PO413656  11.145  17.059   5.637  0.0972  0.0036 -0.3280
  896loPI   GL113657  10.833  17.043   5.912 -0.0337 -0.0338  0.0011
  896loPI   GL213658  11.154  16.893   6.101  0.2673  0.0098 -0.0612
  896loPI   C1A13659  11.003  17.208   6.435 -0.3176 -0.1706  0.1851
  896loPI   C2A13660  11.090  17.258   6.934 -0.3420  0.0404 -0.0670
  896loPI   C3A13661  11.025  17.393   7.264  0.2099 -0.0861  0.2838
  896loPI   C4A13662  11.217  17.331   7.718  0.2264  0.0789 -0.1280
  896loPI   C5A13663  11.518  17.198   8.081 -0.2038  0.2890  0.1849
  896loPI   C6A13664  11.886  16.937   8.369  0.2386  0.3344  0.0587
  896loPI   C1B13665  11.059  16.688   6.456  0.1740 -0.1774  0.0390
  896loPI   C2B13666  11.097  16.716   6.923 -0.2311 -0.1673 -0.3784
  896loPI   C3B13667  10.940  16.874   7.284 -0.0436 -0.5220  0.0320
  896loPI   C4B13668  11.304  16.853   7.614  0.1718  0.0077 -0.2775
  897loPI    C113669  11.079   7.758   5.009  0.0855  0.1029  0.0125
  897loPI    C213670  11.321   7.496   4.829  0.2524  0.2452  0.0270
  897loPI    C313671  11.091   7.739   4.610  0.1685  0.1533  0.0124
  897loPI   PO413672  11.032   7.536   5.277 -0.0930 -0.0302 -0.0986
  897loPI   GL113673  10.973   7.623   5.660 -0.0374  0.0715 -0.0954
  897loPI   GL213674  10.910   7.283   5.744 -0.0059  0.0787 -0.1939
  897loPI   C1A13675  10.964   7.597   6.143  0.0832 -0.0049 -0.2195
  897loPI   C2A13676  11.008   7.580   6.633 -0.1546 -0.1052 -0.1086
  897loPI   C3A13677  10.931   7.622   7.055 -0.1010 -0.4972  0.1095
  897loPI   C4A13678  11.029   7.595   7.491  0.0441  0.0922  0.0466
  897loPI   C5A13679  10.946   7.810   7.940  0.0371  0.2041 -0.2409
  897loPI   C6A13680  11.062   7.776   8.343  0.0433  0.1020 -0.2246
  897loPI   C1B13681  10.984   7.036   6.145 -0.3395  0.0163  0.0133
  897loPI   C2B13682  11.055   7.109   6.628  0.0950  0.0313  0.3767
  897loPI   C3B13683  11.088   7.131   7.085 -0.0419 -0.0902 -0.0176
  897loPI   C4B13684  11.187   7.054   7.575  0.0449 -0.0039  0.3383
  898loPI    C113685  17.253  16.432   5.751  0.0550 -0.0355  0.0502
  898loPI    C213686  17.050  16.282   5.440 -0.0079  0.0001  0.0739
  898loPI    C313687  17.102  16.677   5.474  0.0191 -0.0054  0.0966
  898loPI   PO413688  17.181  16.336   5.907 -0.1516 -0.0653  0.1571
  898loPI   GL113689  17.322  16.247   6.308  0.1576 -0.1789 -0.0464
  898loPI   GL213690  17.221  16.036   6.475 -0.0103  0.2452 -0.0579
  898loPI   C1A13691  17.576  16.251   6.781 -0.1701 -0.1741 -0.3388
  898loPI   C2A13692  17.411  16.173   7.222 -0.1227  0.3228  0.0316
  898loPI   C3A13693  17.580  16.044   7.532 -0.0655  0.1863  0.3885
  898loPI   C4A13694  17.912  16.104   7.763  0.0695  0.1273 -0.1415
  898loPI   C5A13695  18.274  16.166   8.104 -0.3403 -0.1136 -0.0307
  898loPI   C6A13696  18.527  16.153   8.459 -0.0996 -0.2803  0.0892
  898loPI   C1B13697  17.218  15.826   6.920 -0.0332  0.1575 -0.3174
  898loPI   C2B13698  17.176  15.641   7.291 -0.1509 -0.1937  0.1424
  898loPI   C3B13699  17.287  15.691   7.768  0.0386 -0.0535  0.2878
  898loPI   C4B13700  17.681  15.639   7.866 -0.1378  0.2276  0.1625
  899loPI    C113701   1.948  16.727   5.258  0.2442 -0.2319 -0.1639
  899loPI    C213702   2.116  16.726   4.895 -0.1085 -0.5300 -0.3329
  899loPI    C313703   1.718  16.715   4.931 -0.0992  0.0300  0.0615
  899loPI   PO413704   2.028  16.897   5.431  0.3185  0.0582  0.1133
  899loPI   GL113705   2.042  16.978   5.841  0.1452 -0.2626  0.0258
  899loPI   GL213706   2.177  16.689   5.941 -0.1386 -0.0154  0.3167
  899loPI   C1A13707   2.094  17.011   6.299 -0.1177 -0.0631  0.0295
  899loPI   C2A13708   2.485  17.179   6.600  0.1705 -0.3737 -0.0106
  899loPI   C3A13709   2.657  17.395   6.946 -0.0399 -0.1827 -0.2709
  899loPI   C4A13710   2.706  17.271   7.401  0.2443 -0.0719 -0.1637
  899loPI   C5A13711   2.727  17.272   7.879 -0.0901  0.1714 -0.1849
  899loPI   C6A13712   2.709  17.310   8.328  0.3503  0.1970 -0.1612
  899loPI   C1B13713   2.416  16.662   6.292 -0.4502  0.0270  0.0847
  899loPI   C2B13714   2.543  16.625   6.773 -0.0017 -0.0021  0.1112
  899loPI   C3B13715   2.647  16.362   7.144 -0.1239 -0.3745 -0.2556
  899loPI   C4B13716   2.520  16.409   7.625  0.2317  0.0134  0.0306
  900loPI    C113717   4.732   1.211   5.818 -0.0033  0.1585 -0.0883
  900loPI    C213718   4.909   1.209   5.460  0.0233 -0.2416 -0.0769
  900loPI    C313719   4.997   0.925   5.729 -0.0842 -0.0130  0.2046
  900loPI   PO413720   4.742   1.401   5.944  0.1556  0.2146 -0.0974
  900loPI   GL113721   4.933   1.555   6.296  0.0544  0.1623 -0.1492
  900loPI   GL213722   5.203   1.518   6.303  0.3913 -0.0675  0.2614
  900loPI   C1A13723   4.846   1.905   6.483  0.2789  0.1854  0.2040
  900loPI   C2A13724   4.936   1.972   6.961 -0.0406  0.2434  0.0381
  900loPI   C3A13725   4.908   2.000   7.381 -0.0126  0.2514  0.3537
  900loPI   C4A13726   4.847   2.013   7.798  0.1715  0.1291 -0.0176
  900loPI   C5A13727   4.954   2.024   8.245  0.0488 -0.5460 -0.0559
  900loPI   C6A13728   5.326   1.836   8.378 -0.1014  0.0718 -0.2880
  900loPI   C1B13729   5.038   1.440   6.728 -0.0610 -0.1990 -0.1236
  900loPI   C2B13730   5.138   1.569   7.201 -0.0227 -0.2721 -0.2699
  900loPI   C3B13731   5.208   1.428   7.630 -0.0544 -0.4043  0.1289
  900loPI   C4B13732   5.070   1.608   8.008  0.2879  0.0557 -0.0087
  901loPI    C113733  14.054  12.048   5.358 -0.1851  0.1299  0.0526
  901loPI    C213734  14.131  11.981   4.971  0.2453 -0.0340  0.1612
  901loPI    C313735  13.962  12.325   5.084 -0.0022 -0.0376 -0.1828
  901loPI   PO413736  13.987  11.818   5.422  0.0572 -0.1152  0.1974
  901loPI   GL113737  13.853  11.694   5.799  0.0152  0.0279  0.0321
  901loPI   GL213738  13.694  11.387   5.815  0.0985  0.1915 -0.0058
  901loPI   C1A13739  13.915  11.525   6.287 -0.0123  0.6778 -0.1288
  901loPI   C2A13740  13.733  11.501   6.680  0.1801 -0.2133 -0.3066
  901loPI   C3A13741  13.778  11.544   7.070  0.1007 -0.2562 -0.3080
  901loPI   C4A13742  13.779  11.698   7.516  0.1474 -0.0790 -0.1883
  901loPI   C5A13743  13.768  11.941   7.922  0.1540  0.1677  0.1361
  901loPI   C6A13744  13.566  12.107   8.169 -0.2261  0.2074 -0.0338
  901loPI   C1B13745  13.818  11.152   6.040 -0.1104  0.3179  0.2895
  901loPI   C2B13746  13.734  11.015   6.440  0.1638 -0.0396 -0.0236
  901loPI   C3B13747  13.714  11.047   6.919 -0.1260  0.2214  0.4030
  901loPI   C4B13748  13.742  11.123   7.320  0.0978  0.1012  0.1384
  902loPI    C113749   1.878   3.417   5.142  0.2151 -0.1488 -0.0807
  902loPI    C213750   1.693   3.181   4.876 -0.0241  0.1432 -0.1789
  902loPI    C313751   1.910   3.493   4.751  0.4579 -0.1333 -0.0592
  902loPI   PO413752   1.738   3.493   5.296  0.0898 -0.1700 -0.0587
  902loPI   GL113753   2.002   3.475   5.644  0.2171 -0.1642  0.5168
  902loPI   GL213754   1.730   3.282   5.760  0.1185 -0.1873  0.0085
  902loPI   C1A13755   2.047   3.716   5.924  0.1219 -0.1071  0.0851
  902loPI   C2A13756   2.090   3.730   6.408 -0.1050 -0.0086  0.0115
  902loPI   C3A13757   2.182   3.613   6.813  0.0991  0.0744  0.3256
  902loPI   C4A13758   2.282   3.588   7.185  0.1651  0.0331  0.1370
  902loPI   C5A13759   2.360   3.397   7.566  0.3492  0.2975  0.1799
  902loPI   C6A13760   2.497   3.249   7.971  0.1540 -0.0270 -0.2633
  902loPI   C1B13761   1.755   3.383   6.238  0.1568 -0.2630  0.0344
  902loPI   C2B13762   1.690   3.401   6.704  0.2051  0.0928  0.0990
  902loPI   C3B13763   1.853   3.317   7.042  0.0404  0.0911  0.1052
  902loPI   C4B13764   1.852   3.491   7.493 -0.0928  0.0458  0.2555
  903loPI    C113765   7.781   2.659   5.729  0.1351  0.0093 -0.1592
  903loPI    C213766   7.569   2.978   5.615  0.0386  0.0545  0.1364
  903loPI    C313767   7.718   2.728   5.340 -0.2698  0.1045 -0.0818
  903loPI   PO413768   7.709   2.581   5.843  0.2059  0.0531 -0.1896
  903loPI   GL113769   7.656   2.652   6.267  0.2652  0.1265  0.2020
  903loPI   GL213770   7.527   2.953   6.086  0.0908  0.0264  0.0600
  903loPI   C1A13771   7.675   2.626   6.631 -0.1724  0.2903  0.0569
  903loPI   C2A13772   7.506   2.603   7.035  0.1410 -0.1667  0.0704
  903loPI   C3A13773   7.345   2.450   7.359 -0.1514  0.2361 -0.1692
  903loPI   C4A13774   7.088   2.298   7.646 -0.0063  0.0704  0.1582
  903loPI   C5A13775   7.064   2.376   8.083  0.2390  0.0524  0.1136
  903loPI   C6A13776   6.949   2.138   8.516  0.0905  0.0026  0.3799
  903loPI   C1B13777   7.226   2.816   6.433  0.0715  0.2738  0.3520
  903loPI   C2B13778   7.129   2.804   6.821  0.0270  0.2027 -0.0269
  903loPI   C3B13779   6.943   2.972   7.141  0.0231 -0.0617 -0.0560
  903loPI   C4B13780   6.951   2.888   7.508  0.0164  0.1688  0.1351
  904loPI    C113781   9.141   0.095   5.671  0.0473 -0.0254 -0.0001
  904loPI    C213782   8.849  -0.129   5.515 -0.1495  0.0667  0.2294
  904loPI    C313783   9.041  -0.251   5.844  0.2070 -0.0868 -0.0290
  904loPI   PO413784   9.146   0.324   5.699  0.1121  0.1484  0.0591
  904loPI   GL113785   9.218   0.393   6.106  0.0926 -0.1277 -0.0723
  904loPI   GL213786   9.054   0.416   6.387  0.0223 -0.0461  0.1387
  904loPI   C1A13787   9.593   0.472   6.269  0.3410  0.0556 -0.3555
  904loPI   C2A13788   9.762   0.690   6.549  0.0372 -0.1410  0.1167
  904loPI   C3A13789   9.649   0.770   6.918  0.0866  0.1043  0.0307
  904loPI   C4A13790   9.819   0.774   7.347 -0.0436 -0.0441 -0.2582
  904loPI   C5A13791  10.149   1.109   7.413  0.1222 -0.0304 -0.1708
  904loPI   C6A13792  10.325   1.382   7.782  0.3749  0.2263  0.0262
  904loPI   C1B13793   9.220   0.833   6.466  0.2233  0.0204  0.0549
  904loPI   C2B13794   9.236   1.080   6.775 -0.2346  0.0582  0.1024
  904loPI   C3B13795   9.213   1.498   7.108 -0.1198  0.0743 -0.0479
  904loPI   C4B13796   9.590   1.705   7.179 -0.0155 -0.0148  0.2365
  905loPI    C113797  17.604   6.541   5.008  0.0896  0.1392  0.0020
  905loPI    C213798  17.293   6.638   4.776  0.0201 -0.2638 -0.0800
  905loPI    C313799  17.634   6.510   4.611  0.1653 -0.0107  0.0187
  905loPI   PO413800  17.485   6.395   5.151  0.0239 -0.1635 -0.3288
  905loPI   GL113801  17.610   6.376   5.574  0.2771 -0.1629 -0.1401
  905loPI   GL213802  17.789   6.678   5.663  0.1181  0.0821 -0.0158
  905loPI   C1A13803  17.688   6.218   6.010 -0.3228  0.3994 -0.0321
  905loPI   C2A13804  17.674   6.075   6.397 -0.0067  0.2355 -0.0131
  905loPI   C3A13805  17.816   5.999   6.807  0.1003  0.2078 -0.0042
  905loPI   C4A13806  17.843   5.966   7.274  0.2022  0.0387  0.1296
  905loPI   C5A13807  18.142   5.936   7.562  0.1775  0.1233  0.0828
  905loPI   C6A13808  18.564   5.647   7.555  0.3692 -0.2010  0.1153
  905loPI   C1B13809  17.902   6.638   6.094 -0.0910 -0.5478  0.3283
  905loPI   C2B13810  17.700   6.574   6.447 -0.2303  0.0489 -0.1835
  905loPI   C3B13811  17.665   6.699   6.858  0.1283  0.0958 -0.2548
  905loPI   C4B13812  17.920   6.473   7.170 -0.1858  0.0447 -0.0133
  906loPI    C113813  15.018   6.884   4.992 -0.0198 -0.0131  0.0428
  906loPI    C213814  14.677   6.685   5.058 -0.0984  0.1205  0.0436
  906loPI    C313815  14.907   6.590   4.744 -0.1953  0.1085 -0.0243
  906loPI   PO413816  15.104   6.854   5.155  0.1908  0.1770  0.0398
  906loPI   GL113817  15.261   6.830   5.618 -0.2325  0.0810 -0.2496
  906loPI   GL213818  15.000   7.136   5.798 -0.2732  0.2861  0.3644
  906loPI   C1A13819  15.455   6.837   6.096 -0.4048 -0.0021 -0.1571
  906loPI   C2A13820  15.602   6.721   6.540  0.0355  0.2459  0.1714
  906loPI   C3A13821  15.642   6.718   6.964  0.0665 -0.3499  0.2678
  906loPI   C4A13822  15.719   6.695   7.323 -0.0531 -0.0857  0.0357
  906loPI   C5A13823  15.607   6.685   7.771  0.2307  0.0691  0.0028
  906loPI   C6A13824  15.972   6.537   8.112  0.2464  0.3629  0.0354
  906loPI   C1B13825  15.004   6.985   6.248 -0.2346 -0.1654  0.0964
  906loPI   C2B13826  15.176   6.973   6.552 -0.0425 -0.0725  0.0309
  906loPI   C3B13827  15.088   6.955   6.970 -0.0028  0.2046  0.1650
  906loPI   C4B13828  15.249   6.888   7.426  0.0504  0.0140 -0.2273
  907loPI    C113829   1.269   8.253   5.193 -0.2678  0.4579 -0.0761
  907loPI    C213830   1.126   8.523   4.934 -0.3412  0.2544 -0.2504
  907loPI    C313831   0.954   8.163   4.963 -0.0793  0.1299 -0.2124
  907loPI   PO413832   1.390   8.369   5.353  0.1011  0.0062 -0.1831
  907loPI   GL113833   1.493   8.277   5.780 -0.1959 -0.1215 -0.1779
  907loPI   GL213834   1.171   8.501   5.947 -0.1129  0.2226 -0.0422
  907loPI   C1A13835   1.482   8.158   6.232  0.0879  0.0611  0.1078
  907loPI   C2A13836   1.442   8.177   6.703  0.2596 -0.0587  0.1734
  907loPI   C3A13837   1.195   8.346   7.016 -0.2986  0.0343  0.2098
  907loPI   C4A13838   1.138   8.415   7.416 -0.2605  0.1678  0.0933
  907loPI   C5A13839   1.364   8.519   7.822  0.1947 -0.1836 -0.1713
  907loPI   C6A13840   1.587   8.390   8.224  0.2556 -0.2421  0.1968
  907loPI   C1B13841   1.079   8.382   6.392 -0.3069  0.0297 -0.2127
  907loPI   C2B13842   0.930   8.087   6.677 -0.0025 -0.0869 -0.1872
  907loPI   C3B13843   0.727   8.186   7.037 -0.2938  0.0673 -0.0343
  907loPI   C4B13844   0.491   8.071   7.416 -0.2366 -0.2524  0.0365
  908loPI    C113845  12.623  12.514   5.432  0.0574 -0.1141  0.0673
  908loPI    C213846  12.772  12.208   5.643  0.1306 -0.0970  0.0407
  908loPI    C313847  12.994  12.383   5.359  0.0826 -0.0303  0.0439
  908loPI   PO413848  12.441  12.706   5.615  0.0053  0.2582  0.0596
  908loPI   GL113849  12.531  12.728   6.058 -0.1955  0.0523  0.1541
  908loPI   GL213850  12.525  12.411   6.007 -0.1471 -0.1009  0.1709
  908loPI   C1A13851  12.825  12.885   6.349 -0.0478  0.0265 -0.2752
  908loPI   C2A13852  12.964  13.089   6.743 -0.1070 -0.3302  0.1994
  908loPI   C3A13853  12.960  13.248   7.192  0.2627  0.2513  0.2140
  908loPI   C4A13854  13.019  13.308   7.631 -0.0017 -0.0833 -0.1468
  908loPI   C5A13855  13.013  13.659   7.888  0.1342 -0.3683 -0.2744
  908loPI   C6A13856  13.114  14.021   7.903 -0.2820  0.0557 -0.3548
  908loPI   C1B13857  12.458  12.350   6.439  0.1007  0.0504 -0.1100
  908loPI   C2B13858  12.599  12.461   6.799 -0.0472 -0.0674 -0.0455
  908loPI   C3B13859  12.571  12.368   7.228  0.1346  0.3436 -0.2217
  908loPI   C4B13860  12.645  12.491   7.667  0.0782 -0.0149  0.1952
  909loPI    C113861  14.205   2.320   5.338  0.1010  0.0134  0.0104
  909loPI    C213862  13.908   2.173   5.563 -0.1309  0.2406 -0.1425
  909loPI    C313863  13.934   2.074   5.176  0.1117  0.0624 -0.0824
  909loPI   PO413864  14.340   2.475   5.530 -0.1488 -0.2824 -0.1855
  909loPI   GL113865  14.670   2.691   5.646 -0.2084 -0.1432  0.0058
  909loPI   GL213866  14.547   2.808   5.804  0.0742  0.0950 -0.1328
  909loPI   C1A13867  14.912   2.517   6.059  0.0819  0.1451 -0.1940
  909loPI   C2A13868  14.967   2.458   6.498 -0.1491  0.0031  0.2139
  909loPI   C3A13869  14.949   2.565   6.980  0.0402  0.1986 -0.3638
  909loPI   C4A13870  14.875   2.590   7.356  0.2505  0.2919  0.1032
  909loPI   C5A13871  14.897   2.596   7.739 -0.2702 -0.1923  0.0563
  909loPI   C6A13872  14.947   2.612   8.199  0.0364 -0.2354  0.5446
  909loPI   C1B13873  14.455   2.860   6.335  0.1257 -0.2694 -0.1406
  909loPI   C2B13874  14.534   2.781   6.743 -0.1185 -0.0806  0.0674
  909loPI   C3B13875  14.455   2.839   7.170  0.2424  0.0837 -0.0431
  909loPI   C4B13876  14.456   2.795   7.678  0.0649 -0.0407  0.4683
  910loPI    C113877   9.250  16.753   5.626  0.0041  0.1025  0.0497
  910loPI    C213878   9.557  16.989   5.728  0.0848 -0.0349  0.1271
  910loPI    C313879   9.577  16.765   5.397  0.0342  0.0183  0.0879
  910loPI   PO413880   9.136  16.623   5.876  0.2249  0.2147 -0.2453
  910loPI   GL113881   9.039  16.229   6.068 -0.0548 -0.0702  0.1491
  910loPI   GL213882   9.326  16.116   6.156 -0.0109 -0.0682  0.0870
  910loPI   C1A13883   9.134  16.585   6.484  0.1390  0.1991  0.1349
  910loPI   C2A13884   8.935  16.601   6.926 -0.2245  0.1502 -0.0584
  910loPI   C3A13885   8.946  16.626   7.407 -0.2587 -0.0778 -0.0095
  910loPI   C4A13886   8.970  16.585   7.821  0.2852 -0.0375 -0.2292
  910loPI   C5A13887   9.110  16.330   8.198 -0.2604  0.0940  0.0395
  910loPI   C6A13888   9.409  16.057   8.403  0.0400 -0.0115  0.1409
  910loPI   C1B13889   9.266  16.146   6.619  0.2617  0.0867 -0.1419
  910loPI   C2B13890   9.393  16.435   6.937  0.1188  0.2817  0.1673
  910loPI   C3B13891   9.421  16.379   7.382  0.1538 -0.1468 -0.2020
  910loPI   C4B13892   9.528  16.455   7.825 -0.2303  0.0688 -0.1455
  911loPI    C113893   8.320   3.196   5.239  0.1942  0.0406  0.0980
  911loPI    C213894   8.108   3.475   5.047  0.1588  0.1793  0.3345
  911loPI    C313895   8.335   3.218   4.840 -0.1963  0.0616  0.0811
  911loPI   PO413896   8.117   3.018   5.450  0.2122 -0.0400  0.0441
  911loPI   GL113897   8.214   2.893   5.771 -0.3373  0.1317  0.0545
  911loPI   GL213898   8.413   3.146   5.787 -0.1529 -0.0442  0.3076
  911loPI   C1A13899   7.965   3.137   6.118  0.2126  0.1488  0.0461
  911loPI   C2A13900   7.792   3.127   6.495 -0.3337 -0.1680 -0.1154
  911loPI   C3A13901   7.541   3.088   6.923 -0.1808 -0.0970 -0.0391
  911loPI   C4A13902   7.400   2.996   7.287  0.1402  0.3217  0.0528
  911loPI   C5A13903   7.374   2.990   7.708 -0.0579  0.1726  0.2734
  911loPI   C6A13904   7.125   2.870   8.050 -0.3576  0.2371  0.0873
  911loPI   C1B13905   8.482   3.028   6.169  0.1587  0.3307 -0.2887
  911loPI   C2B13906   8.377   2.982   6.627 -0.0177 -0.3961  0.1637
  911loPI   C3B13907   8.046   2.924   6.877  0.0472  0.1774 -0.0138
  911loPI   C4B13908   7.889   2.931   7.278 -0.0220 -0.1370  0.0627
  912loPI    C113909  13.626   2.434   5.187 -0.1048 -0.1414 -0.1347
  912loPI    C213910  13.944   2.670   5.134  0.1052 -0.3797  0.0388
  912loPI    C313911  13.661   2.650   4.852  0.2495 -0.1769 -0.1242
  912loPI   PO413912  13.561   2.514   5.404 -0.1032  0.2134  0.1399
  912loPI   GL113913  13.484   2.362   5.768 -0.1519 -0.1699 -0.1872
  912loPI   GL213914  13.385   2.680   5.836 -0.0698  0.0143  0.2341
  912loPI   C1A13915  13.174   2.294   6.099  0.1488  0.5134  0.1037
  912loPI   C2A13916  13.107   2.345   6.515 -0.2011 -0.0849  0.2631
  912loPI   C3A13917  13.234   2.460   6.977  0.1157 -0.0076  0.1814
  912loPI   C4A13918  13.168   2.483   7.495  0.0461 -0.4532  0.0385
  912loPI   C5A13919  12.837   2.781   7.733  0.0927  0.0591 -0.0919
  912loPI   C6A13920  12.512   2.918   8.085 -0.2285  0.1264 -0.0570
  912loPI   C1B13921  13.544   2.632   6.256  0.0924 -0.0470  0.2020
  912loPI   C2B13922  13.612   2.654   6.665 -0.2470  0.0600 -0.0297
  912loPI   C3B13923  13.649   2.715   7.108  0.0111  0.2565 -0.0062
  912loPI   C4B13924  13.563   2.774   7.482  0.2199 -0.0863 -0.1418
  913loPI    C113925   6.818  14.097   5.251  0.0976 -0.0622  0.1407
  913loPI    C213926   6.825  13.737   5.426 -0.0821 -0.0834  0.1066
  913loPI    C313927   6.651  13.783   5.069  0.3373 -0.0536 -0.1011
  913loPI   PO413928   6.909  14.270   5.553  0.2073 -0.1578  0.0605
  913loPI   GL113929   6.749  14.388   5.901 -0.0864 -0.0081 -0.3105
  913loPI   GL213930   6.573  14.544   6.094  0.0678 -0.0759 -0.1868
  913loPI   C1A13931   6.939  14.319   6.405  0.1221  0.2431  0.0762
  913loPI   C2A13932   7.053  14.353   6.874  0.0025 -0.0071 -0.0183
  913loPI   C3A13933   7.027  14.392   7.341  0.0214  0.0143  0.1517
  913loPI   C4A13934   6.774  14.371   7.732 -0.3760  0.0856  0.0659
  913loPI   C5A13935   6.446  14.144   8.020 -0.1863  0.1080 -0.2618
  913loPI   C6A13936   6.091  14.260   8.250 -0.3197  0.0986  0.0351
  913loPI   C1B13937   6.390  14.428   6.548 -0.1057 -0.1863  0.3490
  913loPI   C2B13938   6.365  14.473   6.938  0.3086 -0.4884 -0.0895
  913loPI   C3B13939   6.370  14.500   7.365  0.0467 -0.0338  0.1046
  913loPI   C4B13940   6.319  14.638   7.876 -0.2649  0.0079  0.0690
  914loPI    C113941   4.227  10.647   5.408 -0.4618  0.0306  0.0764
  914loPI    C213942   4.211  10.261   5.511  0.0270 -0.0838 -0.2409
  914loPI    C313943   4.378  10.368   5.164  0.0391  0.4277 -0.0851
  914loPI   PO413944   3.953  10.808   5.456 -0.1020  0.2436 -0.0768
  914loPI   GL113945   3.743  11.153   5.667  0.1193 -0.0982  0.1701
  914loPI   GL213946   3.886  10.992   5.932 -0.1078  0.3327 -0.1709
  914loPI   C1A13947   3.473  11.191   6.076  0.0258  0.0310  0.0753
  914loPI   C2A13948   3.452  11.237   6.478  0.0962 -0.1253  0.0269
  914loPI   C3A13949   3.479  11.307   6.916 -0.1301  0.0653  0.2168
  914loPI   C4A13950   3.537  11.288   7.383 -0.2424 -0.1468  0.1080
  914loPI   C5A13951   3.455  11.479   7.834 -0.0567 -0.0991  0.0461
  914loPI   C6A13952   3.391  11.760   8.124  0.0378 -0.1363 -0.3320
  914loPI   C1B13953   3.938  10.939   6.379 -0.3357  0.3369  0.3817
  914loPI   C2B13954   3.935  11.069   6.778  0.2505 -0.1963  0.1675
  914loPI   C3B13955   4.019  11.070   7.209  0.1382  0.2538 -0.3354
  914loPI   C4B13956   3.928  11.067   7.625 -0.0103 -0.0557  0.2669
  915loPI    C113957  16.129   9.949   5.491  0.0878 -0.0486  0.1827
  915loPI    C213958  15.754   9.828   5.422  0.1101 -0.0809  0.1176
  915loPI    C313959  15.904  10.138   5.219  0.1424 -0.1129  0.0927
  915loPI   PO413960  16.146  10.007   5.733 -0.4650  0.3902  0.1523
  915loPI   GL113961  15.875   9.876   5.999  0.2572  0.1291  0.0222
  915loPI   GL213962  16.109   9.670   6.110 -0.0418 -0.1567 -0.0943
  915loPI   C1A13963  15.685  10.038   6.311 -0.0606  0.0858  0.1613
  915loPI   C2A13964  15.605   9.901   6.800 -0.2135 -0.1282 -0.0983
  915loPI   C3A13965  15.600   9.882   7.243  0.0112 -0.0997  0.1393
  915loPI   C4A13966  15.582   9.795   7.590  0.0712  0.1070 -0.3173
  915loPI   C5A13967  15.313   9.911   7.883  0.0823 -0.0425  0.1266
  915loPI   C6A13968  15.300   9.952   8.323  0.2172  0.0891 -0.2377
  915loPI   C1B13969  16.041   9.671   6.522 -0.3675 -0.2828 -0.0482
  915loPI   C2B13970  16.025   9.650   6.909  0.0890  0.1616  0.2988
  915loPI   C3B13971  16.057   9.644   7.362  0.1642  0.1483  0.1194
  915loPI   C4B13972  15.974   9.370   7.747 -0.1421 -0.0093  0.1913
  916loPI    C113973   4.330   5.400   5.096  0.1320 -0.0588  0.1059
  916loPI    C213974   4.059   5.683   5.015  0.1659  0.0373  0.3209
  916loPI    C313975   4.359   5.614   4.759  0.0842  0.1056  0.2054
  916loPI   PO413976   4.212   5.310   5.405 -0.1518 -0.0130 -0.1784
  916loPI   GL113977   4.411   5.474   5.849 -0.2142  0.0225  0.1870
  916loPI   GL213978   4.314   5.707   5.944 -0.0579  0.3499 -0.0117
  916loPI   C1A13979   4.574   5.228   6.225  0.0108 -0.0010  0.0031
  916loPI   C2A13980   4.629   5.139   6.600  0.0486  0.0530  0.3729
  916loPI   C3A13981   4.478   5.094   7.069 -0.1905  0.1681  0.1314
  916loPI   C4A13982   4.335   5.056   7.543 -0.3216  0.1522  0.0885
  916loPI   C5A13983   4.002   5.242   7.775 -0.0573 -0.2116  0.1607
  916loPI   C6A13984   3.574   5.403   7.952  0.0533 -0.0140  0.1909
  916loPI   C1B13985   4.322   5.619   6.388 -0.1238 -0.3093 -0.0523
  916loPI   C2B13986   4.271   5.512   6.823  0.1547 -0.0563 -0.5126
  916loPI   C3B13987   4.177   5.615   7.262 -0.0462  0.0222 -0.0630
  916loPI   C4B13988   4.362   5.674   7.636 -0.2311 -0.5093 -0.2216
  917loPI    C113989   3.735  10.066   5.188 -0.0110  0.0980  0.0159
  917loPI    C213990   4.022  10.085   4.910  0.0247 -0.0275  0.0437
  917loPI    C313991   3.916  10.414   5.110  0.0584  0.0457 -0.0581
  917loPI   PO413992   3.848   9.941   5.401  0.1261  0.0985 -0.1412
  917loPI   GL113993   3.994   9.876   5.811 -0.0189 -0.0683 -0.0152
  917loPI   GL213994   4.215   9.666   5.798  0.0089 -0.0383 -0.1154
  917loPI   C1A13995   4.130  10.119   6.112  0.3938  0.0845 -0.0065
  917loPI   C2A13996   4.049  10.490   6.465 -0.2386  0.3748  0.0111
  917loPI   C3A13997   4.002  10.581   6.886 -0.0546 -0.0317 -0.0377
  917loPI   C4A13998   4.044  10.595   7.396  0.2799  0.1262  0.1031
  917loPI   C5A13999   3.914  10.479   7.783  0.0446 -0.0459 -0.1166
  917loPI   C6A14000   4.104  10.841   8.046 -0.1397  0.2155  0.2341
  917loPI   C1B14001   4.212   9.569   6.279  0.3592  0.3544 -0.1634
  917loPI   C2B14002   4.096   9.947   6.600 -0.1668 -0.0986  0.1877
  917loPI   C3B14003   3.979  10.081   7.020 -0.0464 -0.3235 -0.0112
  917loPI   C4B14004   3.954  10.077   7.353 -0.1264 -0.1592 -0.1504
  918loPI    C114005   7.121  11.655   5.510  0.2246  0.2433  0.0759
  918loPI    C214006   7.021  12.025   5.396  0.0780  0.0934 -0.2965
  918loPI    C314007   7.142  11.757   5.124  0.2085 -0.1265 -0.0268
  918loPI   PO414008   7.273  11.657   5.650 -0.1833  0.0161 -0.3232
  918loPI   GL114009   7.407  11.685   6.118  0.1609  0.0029 -0.0728
  918loPI   GL214010   7.583  11.856   6.286 -0.0444 -0.1108 -0.0389
  918loPI   C1A14011   7.078  11.522   6.456 -0.1347  0.0125 -0.1934
  918loPI   C2A14012   7.160  11.303   6.789  0.1958 -0.1232 -0.0778
  918loPI   C3A14013   7.229  11.143   7.134  0.0268  0.1482 -0.0954
  918loPI   C4A14014   7.149  10.882   7.413 -0.1918  0.1250 -0.0406
  918loPI   C5A14015   7.133  11.040   7.803 -0.0236 -0.3390  0.1280
  918loPI   C6A14016   7.138  11.055   8.276 -0.1650  0.1795  0.0976
  918loPI   C1B14017   7.511  11.800   6.678 -0.0659  0.1370  0.0899
  918loPI   C2B14018   7.362  11.686   7.112 -0.1012 -0.0214  0.2498
  918loPI   C3B14019   7.426  11.838   7.520  0.0513 -0.2740  0.1000
  918loPI   C4B14020   7.353  11.814   7.968  0.0087  0.0094 -0.1812
  919loPI    C114021   9.518  13.446   5.618  0.0978 -0.0490  0.3731
  919loPI    C214022   9.344  13.086   5.640 -0.1445  0.0494  0.1264
  919loPI    C314023   9.413  13.253   5.283  0.0415  0.2138  0.2371
  919loPI   PO414024   9.754  13.393   5.780 -0.3437  0.1091  0.0493
  919loPI   GL114025   9.689  13.351   6.200  0.1784 -0.4014  0.2960
  919loPI   GL214026  10.001  13.160   6.227  0.0324  0.1473  0.1034
  919loPI   C1A14027   9.831  13.481   6.592 -0.2598  0.1349 -0.2404
  919loPI   C2A14028   9.583  13.609   6.929  0.0154 -0.0780 -0.2505
  919loPI   C3A14029   9.621  13.889   7.334 -0.1051  0.1107 -0.0801
  919loPI   C4A14030   9.606  13.925   7.806 -0.0752  0.0662 -0.0341
  919loPI   C5A14031   9.465  13.846   8.168 -0.0600  0.1995 -0.0481
  919loPI   C6A14032   9.281  13.977   8.649 -0.1481  0.1887 -0.0903
  919loPI   C1B14033  10.196  13.062   6.671  0.2321  0.1232 -0.1675
  919loPI   C2B14034  10.520  13.166   6.873 -0.0946  0.0384 -0.1876
  919loPI   C3B14035  10.545  13.063   7.265 -0.0289  0.2926 -0.0057
  919loPI   C4B14036  10.459  12.678   7.546  0.0058 -0.0400  0.0401
  920loPI    C114037  12.112   3.610   5.321 -0.0179  0.0166  0.0232
  920loPI    C214038  12.419   3.781   5.130 -0.0104 -0.0115  0.0101
  920loPI    C314039  12.055   3.781   4.963 -0.0227  0.0434  0.0367
  920loPI   PO414040  12.157   3.680   5.527 -0.5031  0.1199 -0.0741
  920loPI   GL114041  12.095   3.523   5.906 -0.0519 -0.2061 -0.0987
  920loPI   GL214042  12.075   3.887   6.109  0.0905 -0.0137  0.0603
  920loPI   C1A14043  12.183   3.448   6.345 -0.2490  0.0986 -0.0124
  920loPI   C2A14044  12.112   3.491   6.724  0.0697  0.3101 -0.2705
  920loPI   C3A14045  12.171   3.441   7.212  0.0140 -0.1418  0.0883
  920loPI   C4A14046  12.323   3.483   7.622  0.2288  0.2442  0.0432
  920loPI   C5A14047  12.625   3.361   7.880 -0.1144  0.0337  0.1127
  920loPI   C6A14048  13.050   3.153   7.950  0.0075  0.0316  0.0391
  920loPI   C1B14049  12.129   3.947   6.585  0.0134 -0.3290  0.1138
  920loPI   C2B14050  12.232   3.959   6.973  0.0248 -0.1334 -0.2430
  920loPI   C3B14051  12.406   3.858   7.335 -0.1654 -0.3155 -0.0537
  920loPI   C4B14052  12.731   3.808   7.661 -0.1185 -0.1760 -0.0016
  921loPI    C114053  12.090  12.255   5.487  0.3027 -0.1136  0.1717
  921loPI    C214054  11.998  12.017   5.180  0.2689  0.1369 -0.0153
  921loPI    C314055  12.156  12.379   5.113  0.0198  0.2989  0.2510
  921loPI   PO414056  12.248  12.183   5.696 -0.0511 -0.0607  0.0364
  921loPI   GL114057  12.000  12.068   6.006  0.2210 -0.0453 -0.0863
  921loPI   GL214058  11.878  11.793   6.001  0.0296 -0.0690 -0.1055
  921loPI   C1A14059  12.033  12.018   6.474  0.0498  0.0183  0.1949
  921loPI   C2A14060  11.997  12.142   7.000 -0.0508  0.0164  0.1280
  921loPI   C3A14061  12.161  12.073   7.426 -0.0421  0.0099  0.0844
  921loPI   C4A14062  12.213  12.230   7.834 -0.1522 -0.1578  0.1394
  921loPI   C5A14063  12.353  12.495   8.028  0.1039  0.0142  0.1423
  921loPI   C6A14064  12.457  12.905   8.297  0.1785 -0.1506 -0.2246
  921loPI   C1B14065  12.118  11.571   6.246 -0.0761 -0.0637 -0.1728
  921loPI   C2B14066  12.032  11.559   6.711 -0.2666 -0.4943  0.0449
  921loPI   C3B14067  12.100  11.656   7.127  0.2884 -0.0084  0.1452
  921loPI   C4B14068  12.096  11.524   7.523  0.1260  0.1864  0.0126
  922loPI    C114069  17.054   2.402   5.133  0.2180 -0.0643 -0.1219
  922loPI    C214070  17.008   2.785   5.028  0.1190 -0.0557 -0.0483
  922loPI    C314071  17.312   2.572   4.880  0.0257 -0.0226 -0.2927
  922loPI   PO414072  16.956   2.378   5.408 -0.0121  0.0215 -0.0255
  922loPI   GL114073  16.753   2.532   5.782 -0.1640  0.4463 -0.0405
  922loPI   GL214074  16.432   2.704   5.923 -0.1271  0.2951  0.0767
  922loPI   C1A14075  16.873   2.646   6.165 -0.1055 -0.0884  0.2468
  922loPI   C2A14076  16.766   2.566   6.603  0.0086  0.2550  0.1709
  922loPI   C3A14077  16.620   2.672   7.001  0.1853 -0.1806  0.4010
  922loPI   C4A14078  16.649   2.608   7.391  0.2928  0.2309 -0.2072
  922loPI   C5A14079  16.796   2.779   7.812  0.0744  0.0676 -0.1018
  922loPI   C6A14080  16.728   2.611   8.246 -0.1830 -0.2192  0.1698
  922loPI   C1B14081  16.318   2.809   6.315 -0.0422  0.0411  0.0766
  922loPI   C2B14082  16.230   2.858   6.756 -0.2739 -0.1424  0.1806
  922loPI   C3B14083  16.224   2.849   7.175  0.1535 -0.0173 -0.1886
  922loPI   C4B14084  16.204   2.883   7.607  0.1158  0.0697 -0.1161
  923loPI    C114085   5.370  14.003   5.367 -0.1947 -0.0449  0.2816
  923loPI    C214086   5.151  14.260   5.152  0.0867 -0.0277  0.0075
  923loPI    C314087   5.170  13.875   5.045  0.0430 -0.0674  0.1402
  923loPI   PO414088   5.277  14.018   5.606  0.0938 -0.0409  0.2481
  923loPI   GL114089   5.377  13.654   5.904 -0.0907 -0.1061  0.0360
  923loPI   GL214090   5.332  13.392   6.052  0.0011  0.5189 -0.0159
  923loPI   C1A14091   5.200  13.817   6.296  0.1576 -0.3228 -0.2731
  923loPI   C2A14092   5.201  13.746   6.700  0.1252 -0.1661 -0.2620
  923loPI   C3A14093   5.192  13.657   7.185 -0.0429  0.0498 -0.2052
  923loPI   C4A14094   5.275  13.417   7.522 -0.0764  0.1159  0.0199
  923loPI   C5A14095   5.217  13.137   7.936  0.1335 -0.2037 -0.1542
  923loPI   C6A14096   4.847  13.194   8.269 -0.2205 -0.0631 -0.0795
  923loPI   C1B14097   5.471  13.245   6.397 -0.0658 -0.1483  0.0207
  923loPI   C2B14098   5.349  13.261   6.841  0.0129  0.0450  0.0899
  923loPI   C3B14099   5.276  12.986   7.124 -0.2138 -0.1351  0.1873
  923loPI   C4B14100   5.353  12.802   7.437  0.0994 -0.2657 -0.3858
  924loPI    C114101   2.915   6.777   5.161 -0.1791 -0.1378  0.0131
  924loPI    C214102   3.224   6.747   4.908  0.0389  0.1382  0.2388
  924loPI    C314103   3.103   6.427   5.115  0.3306  0.0835  0.3279
  924loPI   PO414104   3.018   7.048   5.269 -0.3371  0.0166 -0.2340
  924loPI   GL114105   3.202   7.168   5.637 -0.1756 -0.3867  0.0294
  924loPI   GL214106   3.345   6.940   5.793 -0.1422  0.1957 -0.1795
  924loPI   C1A14107   3.073   7.323   6.061 -0.2204  0.0810  0.2284
  924loPI   C2A14108   3.080   7.429   6.474 -0.0770  0.0324  0.2937
  924loPI   C3A14109   3.011   7.281   6.818 -0.0361  0.1252  0.1311
  924loPI   C4A14110   3.192   7.263   7.202 -0.0114  0.1959 -0.0895
  924loPI   C5A14111   3.222   7.112   7.617 -0.0691  0.0295 -0.3022
  924loPI   C6A14112   3.121   7.094   8.075  0.0177 -0.1336  0.2587
  924loPI   C1B14113   3.415   6.951   6.239 -0.2916  0.0016  0.0372
  924loPI   C2B14114   3.435   6.927   6.751 -0.0529 -0.0476  0.0305
  924loPI   C3B14115   3.473   6.833   7.242 -0.0457 -0.1109 -0.0092
  924loPI   C4B14116   3.555   6.766   7.612 -0.0041  0.1529  0.0648
  925loPI    C114117  16.543   9.527   5.469  0.2981  0.1054  0.1712
  925loPI    C214118  16.833   9.257   5.518 -0.0121 -0.2805 -0.0585
  925loPI    C314119  16.816   9.473   5.182  0.1492 -0.0775  0.0615
  925loPI   PO414120  16.571   9.674   5.664  0.0445 -0.1787  0.0220
  925loPI   GL114121  16.685   9.891   5.963  0.0971 -0.1653 -0.1675
  925loPI   GL214122  16.506   9.982   6.083  0.1592  0.1018  0.3005
  925loPI   C1A14123  16.984  10.193   6.187  0.1336 -0.1124 -0.1458
  925loPI   C2A14124  16.956  10.171   6.598 -0.2995  0.0972  0.1409
  925loPI   C3A14125  17.020  10.176   7.043  0.3695  0.0137  0.1884
  925loPI   C4A14126  16.991  10.095   7.570  0.0758 -0.0845  0.1363
  925loPI   C5A14127  17.031  10.151   7.973  0.1390  0.0888  0.1183
  925loPI   C6A14128  16.826  10.483   8.178  0.0597  0.3583  0.0109
  925loPI   C1B14129  16.541   9.945   6.529 -0.1480 -0.2413  0.3526
  925loPI   C2B14130  16.548   9.908   6.942  0.0843  0.2026  0.1143
  925loPI   C3B14131  16.496   9.894   7.375  0.1848  0.0079  0.1016
  925loPI   C4B14132  16.562   9.997   7.925 -0.0653 -0.3917  0.1517
  926loPI    C114133   5.855  14.205   5.143  0.2710 -0.0452 -0.0622
  926loPI    C214134   5.587  14.419   4.938  0.2282 -0.1793 -0.1477
  926loPI    C314135   5.621  14.026   4.873 -0.0057 -0.2853  0.3257
  926loPI   PO414136   5.836  14.306   5.467 -0.1064 -0.1394  0.4988
  926loPI   GL114137   5.824  14.337   5.877  0.1738  0.1210 -0.1245
  926loPI   GL214138   5.577  14.102   6.051 -0.0546  0.0336 -0.2592
  926loPI   C1A14139   5.490  14.597   6.012 -0.3148 -0.1530 -0.1002
  926loPI   C2A14140   5.344  14.668   6.472 -0.0299  0.1773  0.0772
  926loPI   C3A14141   5.320  14.657   6.880 -0.0553 -0.0347 -0.0005
  926loPI   C4A14142   5.313  14.663   7.266  0.0116 -0.1695 -0.1505
  926loPI   C5A14143   5.298  14.812   7.730 -0.1313  0.1585 -0.2338
  926loPI   C6A14144   5.374  15.099   8.011  0.0255  0.0263 -0.1922
  926loPI   C1B14145   5.540  14.196   6.433  0.0586  0.1566 -0.3064
  926loPI   C2B14146   5.476  14.144   6.745 -0.0803 -0.0889 -0.0245
  926loPI   C3B14147   5.615  14.200   7.123 -0.2239  0.1856  0.1622
  926loPI   C4B14148   5.527  14.303   7.544 -0.2095  0.1291 -0.0526
  927loPI    C114149  10.229   4.474   5.336  0.0663  0.0359 -0.0505
  927loPI    C214150  10.567   4.637   5.197  0.0010  0.0505 -0.1944
  927loPI    C314151  10.213   4.761   5.058 -0.0736  0.1692  0.0932
  927loPI   PO414152  10.382   4.352   5.566 -0.0021 -0.0200  0.0730
  927loPI   GL114153  10.513   4.529   5.988 -0.3442  0.0248  0.1972
  927loPI   GL214154  10.868   4.582   5.954  0.2315 -0.0497  0.0847
  927loPI   C1A14155  10.386   4.382   6.351  0.1452  0.0320 -0.1296
  927loPI   C2A14156  10.388   4.333   6.730  0.0683  0.1786 -0.4800
  927loPI   C3A14157  10.300   4.331   7.170 -0.3018  0.5210  0.2454
  927loPI   C4A14158  10.413   4.432   7.616  0.2768 -0.0115  0.1206
  927loPI   C5A14159  10.430   4.160   7.898 -0.1096  0.1405  0.2474
  927loPI   C6A14160  10.408   3.948   8.328  0.0499 -0.0665 -0.0614
  927loPI   C1B14161  10.798   4.638   6.344  0.1077 -0.3987 -0.0610
  927loPI   C2B14162  10.749   4.643   6.785  0.2605  0.0856  0.0210
  927loPI   C3B14163  10.798   4.587   7.187 -0.0366 -0.2995 -0.1297
  927loPI   C4B14164  10.863   4.541   7.552 -0.3279 -0.1896  0.3142
  928loPI    C114165   0.537  13.808   5.217  0.1517 -0.0734 -0.1412
  928loPI    C214166   0.337  14.149   5.154 -0.2196 -0.2891 -0.1601
  928loPI    C314167   0.550  13.984   4.858  0.2480  0.1007 -0.0537
  928loPI   PO414168   0.622  13.828   5.482 -0.2823  0.1793  0.0709
  928loPI   GL114169   0.404  13.695   5.865  0.0188  0.2987 -0.3210
  928loPI   GL214170   0.569  13.892   5.999  0.0147 -0.0189  0.0735
  928loPI   C1A14171   0.206  13.800   6.354  0.1400  0.1199 -0.0165
  928loPI   C2A14172   0.325  13.735   6.842 -0.1131 -0.0456  0.1788
  928loPI   C3A14173   0.383  13.617   7.176 -0.2041  0.0693  0.0352
  928loPI   C4A14174   0.621  13.615   7.626  0.1272 -0.0275  0.0879
  928loPI   C5A14175   0.380  13.653   7.961  0.4090 -0.1038  0.0440
  928loPI   C6A14176   0.286  13.428   8.474  0.0570 -0.0983 -0.0579
  928loPI   C1B14177   0.708  13.819   6.459 -0.2567 -0.0447 -0.0831
  928loPI   C2B14178   0.862  13.786   6.899 -0.5015  0.0064 -0.0794
  928loPI   C3B14179   0.987  13.978   7.240  0.0760 -0.0411 -0.0634
  928loPI   C4B14180   1.013  13.998   7.593  0.0660  0.0730  0.2945
  929loPI    C114181   5.001  10.104   5.279  0.1233  0.1981  0.0060
  929loPI    C214182   4.855  10.402   5.056  0.0143  0.0995 -0.0555
  929loPI    C314183   5.173  10.195   4.929 -0.1310 -0.0461 -0.1872
  929loPI   PO414184   4.758   9.983   5.377  0.2000 -0.0257  0.3742
  929loPI   GL114185   4.577   9.999   5.740  0.0516 -0.2198  0.1876
  929loPI   GL214186   4.499  10.323   5.940 -0.2516 -0.1373  0.0531
  929loPI   C1A14187   4.616   9.844   6.190 -0.0904  0.0234  0.1831
  929loPI   C2A14188   4.542   9.734   6.584  0.0631  0.3560  0.0855
  929loPI   C3A14189   4.400   9.838   7.005  0.3394 -0.1586  0.0261
  929loPI   C4A14190   4.407   9.803   7.381  0.1055  0.1736 -0.1711
  929loPI   C5A14191   4.165   9.797   7.678  0.1482  0.0285  0.3746
  929loPI   C6A14192   3.882  10.007   7.933  0.0911  0.2557  0.0752
  929loPI   C1B14193   4.538  10.290   6.376  0.2658 -0.3275  0.1795
  929loPI   C2B14194   4.403  10.286   6.813  0.0218 -0.1796 -0.0754
  929loPI   C3B14195   4.412  10.291   7.278  0.2112 -0.1194 -0.2199
  929loPI   C4B14196   4.363  10.261   7.725 -0.0969  0.1189  0.1107
  930loPI    C114197  14.664   0.449   5.624  0.1386  0.2399 -0.1425
  930loPI    C214198  14.763   0.588   5.262  0.3158 -0.0907 -0.2260
  930loPI    C314199  14.997   0.320   5.444  0.1776  0.0003  0.0946
  930loPI   PO414200  14.536   0.665   5.726  0.1675  0.0446  0.1377
  930loPI   GL114201  14.245   0.969   6.016 -0.3777 -0.0585 -0.1081
  930loPI   GL214202  14.298   0.675   6.128  0.1202 -0.1886  0.2695
  930loPI   C1A14203  14.053   1.032   6.496 -0.3591  0.0418 -0.0883
  930loPI   C2A14204  14.015   0.662   6.822  0.0155  0.0776 -0.1014
  930loPI   C3A14205  14.316   0.649   7.245  0.0521 -0.0435  0.2543
  930loPI   C4A14206  14.596   0.652   7.559  0.2446 -0.2170  0.1299
  930loPI   C5A14207  14.798   0.453   7.846  0.1059 -0.1324  0.0604
  930loPI   C6A14208  15.137   0.633   8.050  0.1734  0.1518 -0.6281
  930loPI   C1B14209  14.496   0.731   6.497  0.0743 -0.0480  0.1661
  930loPI   C2B14210  14.570   0.720   6.828  0.0506 -0.0241 -0.0926
  930loPI   C3B14211  14.906   0.534   7.010  0.0353  0.1877  0.0287
  930loPI   C4B14212  14.948   0.474   7.310  0.0624 -0.1058  0.1707
  931loPI    C114213  12.540   2.205   5.411 -0.0586  0.0241  0.1605
  931loPI    C214214  12.775   1.895   5.316  0.4010  0.3013  0.3567
  931loPI    C314215  12.751   2.210   5.071 -0.1485  0.0777  0.1051
  931loPI   PO414216  12.539   2.160   5.677  0.1347  0.2707  0.1576
  931loPI   GL114217  12.729   2.481   5.920 -0.0568 -0.1975 -0.1562
  931loPI   GL214218  12.575   2.290   6.173  0.0327  0.2912 -0.0097
  931loPI   C1A14219  12.793   2.753   6.358 -0.0323  0.1403 -0.0907
  931loPI   C2A14220  13.129   2.898   6.687 -0.3671  0.0364  0.1160
  931loPI   C3A14221  13.144   2.938   7.074 -0.0612 -0.0665  0.1575
  931loPI   C4A14222  13.121   3.101   7.404  0.0231  0.2684  0.1764
  931loPI   C5A14223  13.052   3.468   7.614 -0.0544  0.0591  0.0135
  931loPI   C6A14224  13.237   3.656   7.998 -0.1446 -0.3133  0.0118
  931loPI   C1B14225  12.327   2.452   6.417  0.2064 -0.0510  0.0404
  931loPI   C2B14226  12.184   2.522   6.753 -0.2171 -0.1566  0.0074
  931loPI   C3B14227  12.327   2.460   7.145  0.0513  0.0431  0.0370
  931loPI   C4B14228  12.767   2.207   7.188  0.1416 -0.1794 -0.2086
  932loPI    C114229  14.361   6.234   4.996  0.0910  0.0269 -0.1429
  932loPI    C214230  14.741   6.120   4.940  0.0354 -0.1844 -0.1002
  932loPI    C314231  14.461   6.026   4.669  0.0289  0.0541 -0.1794
  932loPI   PO414232  14.460   6.281   5.363 -0.1773  0.0192 -0.1260
  932loPI   GL114233  14.536   6.299   5.831 -0.0130 -0.3277 -0.1444
  932loPI   GL214234  14.579   6.684   5.878  0.3838 -0.2744 -0.1489
  932loPI   C1A14235  14.289   6.290   6.180  0.1064  0.1501  0.0352
  932loPI   C2A14236  14.258   6.458   6.555 -0.0472 -0.0906  0.1942
  932loPI   C3A14237  14.236   6.402   6.880  0.2129  0.0306  0.0341
  932loPI   C4A14238  14.336   6.496   7.300 -0.3409 -0.1895  0.0774
  932loPI   C5A14239  14.397   6.303   7.665  0.0971 -0.0318  0.0523
  932loPI   C6A14240  14.673   5.976   7.943  0.0992 -0.2319 -0.0389
  932loPI   C1B14241  14.665   6.660   6.219  0.0673  0.0188 -0.0656
  932loPI   C2B14242  14.693   6.832   6.642  0.0271  0.1053  0.2518
  932loPI   C3B14243  14.671   6.733   7.041 -0.1042  0.0519  0.1032
  932loPI   C4B14244  14.833   6.629   7.467 -0.0638  0.0613 -0.1026
  933loPI    C114245   8.610   4.428   5.373  0.0084 -0.1585 -0.0110
  933loPI    C214246   8.629   4.753   5.140 -0.1407 -0.1003  0.0566
  933loPI    C314247   8.625   4.389   4.975 -0.1775 -0.0614 -0.0290
  933loPI   PO414248   8.579   4.517   5.611 -0.4828 -0.0844 -0.0499
  933loPI   GL114249   8.803   4.743   6.023  0.6619  0.3091 -0.1324
  933loPI   GL214250   8.815   4.379   6.085 -0.1153 -0.0326 -0.2187
  933loPI   C1A14251   8.899   5.028   6.334 -0.2412  0.1302 -0.0500
  933loPI   C2A14252   8.955   5.113   6.717  0.0460 -0.2852  0.1459
  933loPI   C3A14253   8.857   5.118   7.080 -0.1459 -0.0926 -0.0868
  933loPI   C4A14254   8.562   5.160   7.412  0.0019  0.0590 -0.3654
  933loPI   C5A14255   8.324   5.384   7.750 -0.0169 -0.0514 -0.2868
  933loPI   C6A14256   8.438   5.764   7.963  0.0753 -0.4644  0.1080
  933loPI   C1B14257   8.638   4.180   6.462 -0.1323  0.0522  0.0113
  933loPI   C2B14258   8.640   3.842   6.678 -0.1692  0.0365  0.3076
  933loPI   C3B14259   8.417   3.823   7.001  0.2191 -0.0672 -0.3127
  933loPI   C4B14260   8.363   3.661   7.283  0.1033  0.1356 -0.3215
  934loPI    C114261  15.091   3.084   4.838 -0.1952  0.0045 -0.1240
  934loPI    C214262  15.264   3.188   4.493  0.0446  0.0510  0.0078
  934loPI    C314263  14.933   2.963   4.491  0.1597 -0.1215 -0.2460
  934loPI   PO414264  15.243   3.112   4.991 -0.1101 -0.4775 -0.0674
  934loPI   GL114265  15.270   3.189   5.399 -0.2470  0.1348  0.1723
  934loPI   GL214266  15.599   3.159   5.610  0.0903 -0.2336 -0.0094
  934loPI   C1A14267  14.969   3.126   5.719  0.1187  0.0552  0.3162
  934loPI   C2A14268  14.902   3.115   6.131  0.0238 -0.4441 -0.1346
  934loPI   C3A14269  14.932   3.038   6.614 -0.6816 -0.1782  0.1339
  934loPI   C4A14270  14.858   3.089   7.079  0.0366 -0.0435  0.0667
  934loPI   C5A14271  14.858   3.067   7.560  0.1535  0.0272 -0.0938
  934loPI   C6A14272  14.678   3.407   7.790 -0.2308 -0.1286 -0.1392
  934loPI   C1B14273  15.824   3.150   6.107 -0.2888  0.1294 -0.1029
  934loPI   C2B14274  15.802   3.039   6.493 -0.1003  0.1411 -0.1565
  934loPI   C3B14275  15.766   3.174   6.951 -0.1574  0.3245  0.0396
  934loPI   C4B14276  15.767   3.053   7.363 -0.2538 -0.0712 -0.0191
  935loPI    C114277  16.893   6.993   4.980  0.0361  0.0168 -0.1402
  935loPI    C214278  16.816   6.670   4.757  0.0812 -0.1074  0.0222
  935loPI    C314279  16.851   7.029   4.584 -0.1853 -0.1545 -0.1343
  935loPI   PO414280  17.101   6.851   5.145 -0.0919 -0.0869 -0.0437
  935loPI   GL114281  17.119   6.533   5.512  0.1054 -0.0808  0.1725
  935loPI   GL214282  17.305   6.844   5.602  0.1811 -0.0434 -0.2715
  935loPI   C1A14283  16.753   6.471   5.766  0.1391  0.0314  0.2333
  935loPI   C2A14284  16.810   6.213   6.233 -0.0519 -0.1175  0.0850
  935loPI   C3A14285  16.548   6.319   6.530  0.1176  0.2986 -0.1765
  935loPI   C4A14286  16.501   6.228   6.939  0.2195 -0.1308 -0.1600
  935loPI   C5A14287  16.653   6.149   7.339  0.0258  0.2520 -0.3356
  935loPI   C6A14288  16.757   6.470   7.744 -0.1441  0.0058 -0.0389
  935loPI   C1B14289  17.331   6.585   5.933  0.0588  0.1066 -0.0846
  935loPI   C2B14290  17.255   6.327   6.324 -0.0057  0.0709 -0.0587
  935loPI   C3B14291  17.346   6.282   6.808  0.0078  0.1688 -0.1452
  935loPI   C4B14292  17.435   6.311   7.229  0.0755  0.2397  0.0044
  936loPI    C114293  11.103  17.539   5.288 -0.0390  0.1554  0.1731
  936loPI    C214294  10.864  17.748   5.045  0.0175  0.0078 -0.0118
  936loPI    C314295  11.235  17.876   5.118  0.0170  0.0267 -0.0422
  936loPI   PO414296  10.872  17.495   5.479 -0.2807 -0.0935 -0.1386
  936loPI   GL114297  10.986  17.681   5.799 -0.0067 -0.2920 -0.1263
  936loPI   GL214298  11.017  17.509   6.003 -0.3220 -0.1593  0.2244
  936loPI   C1A14299  10.862  17.983   6.090 -0.0091 -0.2364 -0.1009
  936loPI   C2A14300  10.781  18.204   6.511  0.0129 -0.4421 -0.1485
  936loPI   C3A14301  10.666  18.262   6.879  0.0165 -0.2477 -0.0797
  936loPI   C4A14302  10.779  18.410   7.300 -0.0565  0.0565  0.1858
  936loPI   C5A14303  10.935  18.527   7.589  0.1770  0.0524  0.0683
  936loPI   C6A14304  10.586  18.631   7.892 -0.1418 -0.0339  0.1468
  936loPI   C1B14305  10.881  17.683   6.478 -0.1914 -0.1232 -0.2343
  936loPI   C2B14306  10.707  17.630   6.908 -0.1336 -0.0463 -0.2679
  936loPI   C3B14307  10.537  17.727   7.370 -0.0519 -0.1456 -0.1771
  936loPI   C4B14308  10.472  18.178   7.574  0.1152 -0.0851 -0.0967
  937loPI    C114309  11.583  17.985   5.450  0.0555 -0.1929  0.0784
  937loPI    C214310  11.663  18.311   5.668  0.0546 -0.1077 -0.0475
  937loPI    C314311  11.798  18.283   5.292 -0.0803 -0.1830 -0.0914
  937loPI   PO414312  11.356  17.947   5.606  0.1020 -0.2100 -0.0718
  937loPI   GL114313  11.447  17.870   6.008  0.1107 -0.0504  0.1543
  937loPI   GL214314  11.751  17.900   5.975  0.0176  0.0336 -0.1981
  937loPI   C1A14315  11.315  17.988   6.393  0.1949  0.0969  0.1349
  937loPI   C2A14316  11.159  17.966   6.815  0.1352  0.1094  0.0856
  937loPI   C3A14317  10.941  17.942   7.242 -0.1040  0.1665  0.1990
  937loPI   C4A14318  10.961  17.752   7.581 -0.0272  0.0627 -0.0738
  937loPI   C5A14319  11.159  17.771   7.994  0.1363 -0.3246 -0.1719
  937loPI   C6A14320  11.576  18.005   8.269  0.3597  0.3424  0.0350
  937loPI   C1B14321  11.794  17.778   6.398 -0.1665 -0.1280 -0.5101
  937loPI   C2B14322  11.859  17.899   6.860 -0.0681  0.2836 -0.0858
  937loPI   C3B14323  11.925  17.914   7.300 -0.1936  0.0297 -0.0073
  937loPI   C4B14324  11.790  18.051   7.688 -0.0345  0.0303  0.0253
  938loPI    C114325  16.639   2.704   5.301 -0.0884  0.2570  0.0520
  938loPI    C214326  16.507   2.742   4.925  0.0411  0.0764 -0.0135
  938loPI    C314327  16.562   2.378   5.082  0.2587  0.1493  0.0836
  938loPI   PO414328  16.498   2.831   5.454 -0.0436 -0.0082 -0.0929
  938loPI   GL114329  16.145   2.929   5.619 -0.0815  0.0114  0.0944
  938loPI   GL214330  15.887   2.705   5.792 -0.0581 -0.1431  0.1990
  938loPI   C1A14331  16.282   3.225   5.952 -0.1449 -0.1769 -0.2811
  938loPI   C2A14332  16.198   3.394   6.355  0.3704  0.1202 -0.0160
  938loPI   C3A14333  16.302   3.410   6.808  0.1710 -0.1304  0.0196
  938loPI   C4A14334  16.165   3.346   7.283  0.3395  0.0828  0.1487
  938loPI   C5A14335  16.313   3.367   7.773  0.1393  0.0090  0.0446
  938loPI   C6A14336  16.012   3.323   8.087 -0.0384  0.0208  0.1434
  938loPI   C1B14337  15.859   2.619   6.208  0.1900  0.2013 -0.0299
  938loPI   C2B14338  15.737   2.517   6.654  0.1094 -0.1058 -0.2397
  938loPI   C3B14339  15.767   2.646   7.061  0.1838  0.0941 -0.0035
  938loPI   C4B14340  15.818   2.536   7.452 -0.0915  0.1734 -0.5346
  939loPI    C114341  17.425   3.058   4.993  0.0348 -0.0723 -0.0380
  939loPI    C214342  17.755   3.093   4.769 -0.1474  0.2836 -0.2601
  939loPI    C314343  17.408   2.988   4.599 -0.1726  0.0068 -0.0443
  939loPI   PO414344  17.452   3.177   5.211 -0.2070 -0.0240 -0.1012
  939loPI   GL114345  17.375   3.294   5.615  0.1873  0.0380 -0.0393
  939loPI   GL214346  17.207   3.518   5.724 -0.3729  0.0081  0.3281
  939loPI   C1A14347  17.653   3.254   5.899 -0.0088 -0.2405  0.0461
  939loPI   C2A14348  17.657   3.225   6.364  0.1265  0.2528 -0.2543
  939loPI   C3A14349  17.554   3.158   6.800  0.1288  0.1354  0.1271
  939loPI   C4A14350  17.496   3.083   7.225 -0.3240 -0.1316 -0.1925
  939loPI   C5A14351  17.353   3.045   7.711  0.1666 -0.1977  0.2051
  939loPI   C6A14352  17.163   3.050   8.145  0.0434  0.1686  0.1120
  939loPI   C1B14353  16.721   3.550   5.940 -0.3011  0.0987 -0.0774
  939loPI   C2B14354  16.635   3.600   6.422  0.0837 -0.2213  0.2190
  939loPI   C3B14355  16.682   3.698   6.888  0.1024  0.1497  0.0712
  939loPI   C4B14356  16.654   3.610   7.347 -0.1251  0.1458 -0.1768
  940loPI    C114357   5.776   4.749   5.434  0.3036  0.0975 -0.1411
  940loPI    C214358   5.567   4.945   5.155 -0.2548 -0.0292  0.1727
  940loPI    C314359   5.561   4.545   5.166  0.1479 -0.0417  0.0854
  940loPI   PO414360   5.613   4.804   5.679  0.1564  0.0994 -0.0175
  940loPI   GL114361   5.424   4.858   6.026  0.0329 -0.1513  0.0071
  940loPI   GL214362   5.183   4.699   5.972  0.1039  0.1845  0.2565
  940loPI   C1A14363   5.449   5.277   5.976  0.0760  0.1679  0.0301
  940loPI   C2A14364   5.334   5.588   6.257  0.1474 -0.1351 -0.0674
  940loPI   C3A14365   5.304   5.635   6.796  0.4118 -0.0461 -0.2865
  940loPI   C4A14366   5.273   5.636   7.297 -0.0371  0.0958  0.0730
  940loPI   C5A14367   5.331   5.498   7.661 -0.0371  0.1345 -0.2731
  940loPI   C6A14368   5.629   5.356   8.022  0.0527 -0.1249  0.2181
  940loPI   C1B14369   5.287   4.716   6.467  0.0753  0.0062  0.4466
  940loPI   C2B14370   5.238   4.623   6.876 -0.1152  0.0648 -0.1409
  940loPI   C3B14371   5.191   4.564   7.437  0.0604 -0.0652 -0.5459
  940loPI   C4B14372   5.362   4.495   7.926 -0.0268 -0.2962 -0.1760
  941loPI    C114373   1.400   1.558   5.623  0.2975 -0.0177  0.0706
  941loPI    C214374   1.657   1.538   5.317 -0.0768 -0.1762 -0.2432
  941loPI    C314375   1.373   1.260   5.357 -0.2189  0.0097  0.0830
  941loPI   PO414376   1.350   1.827   5.638 -0.1026  0.1681 -0.0062
  941loPI   GL114377   1.215   2.129   5.980  0.0900  0.1292 -0.0863
  941loPI   GL214378   1.568   2.308   5.830 -0.0780 -0.0231  0.2661
  941loPI   C1A14379   1.242   2.152   6.438  0.0073 -0.0674  0.1492
  941loPI   C2A14380   1.280   2.101   6.867  0.1735 -0.2387  0.1471
  941loPI   C3A14381   1.452   1.957   7.335  0.1165  0.3175  0.1789
  941loPI   C4A14382   1.321   2.021   7.775  0.0399  0.1462 -0.2606
  941loPI   C5A14383   1.036   2.229   8.082  0.0676  0.2306  0.0543
  941loPI   C6A14384   1.090   2.573   8.174 -0.0955  0.0549 -0.2831
  941loPI   C1B14385   1.713   2.399   6.250 -0.3114  0.2926  0.1444
  941loPI   C2B14386   1.778   2.328   6.676  0.0224  0.2832  0.0478
  941loPI   C3B14387   1.900   2.250   7.067  0.2497 -0.1302 -0.0071
  941loPI   C4B14388   1.823   2.254   7.470  0.1439  0.0372  0.1616
  942loPI    C114389   6.148  17.660   5.300 -0.1354 -0.1642  0.1144
  942loPI    C214390   6.060  17.277   5.222  0.2212 -0.1704 -0.2907
  942loPI    C314391   6.298  17.483   4.975  0.2187  0.2496  0.0439
  942loPI   PO414392   5.955  17.701   5.556 -0.1115 -0.0903 -0.3137
  942loPI   GL114393   5.617  17.376   5.844 -0.1104  0.1939 -0.1376
  942loPI   GL214394   5.827  17.713   6.051 -0.1945  0.2142 -0.0127
  942loPI   C1A14395   5.856  17.237   6.236 -0.0294  0.1547  0.1254
  942loPI   C2A14396   5.922  17.253   6.614 -0.0939  0.0326  0.0048
  942loPI   C3A14397   5.832  17.263   7.062  0.2805  0.3346  0.1299
  942loPI   C4A14398   5.805  17.274   7.518 -0.2250  0.0662 -0.2172
  942loPI   C5A14399   5.828  17.191   7.941  0.1055  0.1646 -0.1179
  942loPI   C6A14400   5.874  17.087   8.441  0.0255  0.2749  0.1479
  942loPI   C1B14401   5.734  17.769   6.454  0.1180  0.0477 -0.1706
  942loPI   C2B14402   5.653  17.766   6.922 -0.1991  0.3330 -0.1418
  942loPI   C3B14403   5.684  17.766   7.317 -0.2121  0.2588  0.0974
  942loPI   C4B14404   5.663  17.730   7.760  0.0051  0.1718  0.3794
  943loPI    C114405   4.552   0.453   5.832  0.2193  0.1739 -0.1776
  943loPI    C214406   4.838   0.300   5.597  0.1370 -0.0613 -0.1276
  943loPI    C314407   4.594   0.056   5.800  0.0001  0.1386 -0.0486
  943loPI   PO414408   4.768   0.585   6.014 -0.3325 -0.0474 -0.0731
  943loPI   GL114409   4.837   0.536   6.356  0.1040 -0.2528  0.0152
  943loPI   GL214410   5.158   0.555   6.324  0.1950  0.0891 -0.2831
  943loPI   C1A14411   4.933   0.205   6.708 -0.0208 -0.0796 -0.2508
  943loPI   C2A14412   4.842   0.322   7.097  0.2724 -0.2794 -0.2491
  943loPI   C3A14413   4.924   0.245   7.411 -0.1611  0.1544  0.0042
  943loPI   C4A14414   4.902   0.234   7.863 -0.2451  0.1796 -0.1434
  943loPI   C5A14415   4.902   0.291   8.278 -0.0616 -0.1400  0.2384
  943loPI   C6A14416   4.865   0.130   8.625  0.0853 -0.0095  0.1654
  943loPI   C1B14417   5.126   0.634   6.836  0.1299  0.0558  0.1081
  943loPI   C2B14418   5.198   0.618   7.251 -0.1823 -0.3513  0.2267
  943loPI   C3B14419   5.209   0.661   7.597 -0.0207  0.1210  0.1261
  943loPI   C4B14420   5.238   0.594   8.006 -0.2462  0.1199 -0.1039
  944loPI    C114421  15.632  11.000   5.254 -0.2407 -0.0881  0.3170
  944loPI    C214422  15.779  10.630   5.211 -0.1194 -0.0180  0.1153
  944loPI    C314423  15.442  10.734   5.023  0.0736  0.0995 -0.1712
  944loPI   PO414424  15.611  10.990   5.477  0.0550 -0.0414  0.3974
  944loPI   GL114425  15.711  10.772   5.898 -0.1292  0.2575 -0.0537
  944loPI   GL214426  15.901  10.977   5.891  0.2647 -0.0624  0.0966
  944loPI   C1A14427  15.718  10.550   6.324  0.0678  0.0883  0.2518
  944loPI   C2A14428  15.677  10.432   6.766  0.2110 -0.0806 -0.0717
  944loPI   C3A14429  15.558  10.381   7.141 -0.0063 -0.0206 -0.3487
  944loPI   C4A14430  15.582  10.600   7.556 -0.0759 -0.0366 -0.0553
  944loPI   C5A14431  15.340  10.817   7.928 -0.0312  0.3225 -0.3177
  944loPI   C6A14432  15.103  10.871   8.333  0.0566  0.2226 -0.1440
  944loPI   C1B14433  15.751  11.018   6.298  0.1316 -0.0892 -0.2998
  944loPI   C2B14434  15.684  10.986   6.726 -0.0086  0.0211  0.1096
  944loPI   C3B14435  15.655  10.922   7.153  0.1421 -0.1781  0.1570
  944loPI   C4B14436  15.463  11.178   7.459  0.0674  0.2101  0.0108
  945loPI    C114437  16.088   2.476   5.326 -0.0303 -0.2404  0.3683
  945loPI    C214438  15.748   2.266   5.304 -0.1123 -0.0685 -0.1457
  945loPI    C314439  15.874   2.476   4.988  0.1937  0.3096  0.2162
  945loPI   PO414440  16.201   2.348   5.560  0.4094  0.1507  0.1197
  945loPI   GL114441  16.138   2.230   6.034 -0.1690  0.0772  0.3067
  945loPI   GL214442  16.481   2.225   6.086  0.2540 -0.1954  0.0005
  945loPI   C1A14443  16.224   2.394   6.547  0.2043 -0.1480 -0.0741
  945loPI   C2A14444  16.177   2.344   7.010 -0.1597  0.0176  0.3372
  945loPI   C3A14445  16.256   2.300   7.457 -0.3428  0.2032  0.1190
  945loPI   C4A14446  16.326   2.483   7.919 -0.2825 -0.0022  0.1287
  945loPI   C5A14447  16.332   2.248   8.290 -0.2298 -0.2414  0.0379
  945loPI   C6A14448  16.425   2.501   8.610  0.1193  0.1370 -0.0427
  945loPI   C1B14449  16.614   2.052   6.466  0.1080  0.4942  0.0304
  945loPI   C2B14450  16.621   2.086   6.869  0.3298  0.2902  0.0812
  945loPI   C3B14451  16.674   2.100   7.373 -0.1057  0.0356  0.1535
  945loPI   C4B14452  16.720   2.222   7.890  0.1033  0.1390  0.0950
  946loPI    C114453   0.421   0.788   5.655 -0.2624  0.2847 -0.2923
  946loPI    C214454   0.504   0.429   5.501 -0.0645  0.1643  0.0802
  946loPI    C314455   0.346   0.715   5.269 -0.0130 -0.0878 -0.2751
  946loPI   PO414456   0.606   0.802   5.846  0.0414  0.3712  0.4389
  946loPI   GL114457   0.665   0.789   6.257 -0.2319  0.0537 -0.2029
  946loPI   GL214458   0.476   0.595   6.336 -0.0087  0.0792  0.1535
  946loPI   C1A14459   0.805   0.834   6.678 -0.0560  0.0789 -0.2393
  946loPI   C2A14460   0.876   0.801   7.124  0.0665  0.2283 -0.1104
  946loPI   C3A14461   0.791   0.766   7.569  0.0170 -0.1909  0.0751
  946loPI   C4A14462   1.020   0.694   8.048  0.0789  0.1895 -0.2375
  946loPI   C5A14463   1.312   0.874   8.289 -0.1477 -0.1593  0.0927
  946loPI   C6A14464   1.749   1.023   8.304 -0.2819 -0.1098  0.0521
  946loPI   C1B14465   0.776   0.375   6.486 -0.0339 -0.0940 -0.0556
  946loPI   C2B14466   0.959   0.340   6.879 -0.3398  0.3888 -0.0715
  946loPI   C3B14467   1.094  -0.027   7.146 -0.1210  0.1362  0.0690
  946loPI   C4B14468   1.286  -0.178   7.444 -0.2640 -0.1626 -0.1193
  947loPI    C114469   4.569   2.665   5.449 -0.0041 -0.0177  0.0407
  947loPI    C214470   4.838   2.453   5.243 -0.2195 -0.2129 -0.0444
  947loPI    C314471   4.600   2.711   5.053 -0.0231  0.0386  0.0456
  947loPI   PO414472   4.656   2.722   5.621 -0.0321 -0.1667  0.2267
  947loPI   GL114473   4.552   2.610   6.079  0.1491  0.1048 -0.1042
  947loPI   GL214474   4.559   2.327   6.168  0.0141  0.2079 -0.2154
  947loPI   C1A14475   4.510   2.684   6.502 -0.4484 -0.3056 -0.1539
  947loPI   C2A14476   4.552   2.728   6.932  0.2028 -0.1641  0.1857
  947loPI   C3A14477   4.532   2.471   7.248 -0.3359 -0.0664  0.0988
  947loPI   C4A14478   4.650   2.433   7.629  0.0972 -0.3870 -0.1950
  947loPI   C5A14479   4.970   2.523   8.009  0.0331  0.1745  0.0038
  947loPI   C6A14480   5.434   2.261   8.200  0.0970 -0.1396 -0.2970
  947loPI   C1B14481   4.491   2.195   6.616  0.1501 -0.1833 -0.0455
  947loPI   C2B14482   4.443   2.048   7.053 -0.3593  0.1652 -0.1167
  947loPI   C3B14483   4.378   1.988   7.478 -0.3548 -0.0139  0.0567
  947loPI   C4B14484   4.367   2.107   7.903 -0.0863 -0.4311 -0.4056
  948loPI    C114485   3.576   7.153   5.246  0.0057  0.1416  0.0820
  948loPI    C214486   3.577   7.526   5.101  0.0408  0.0944 -0.0407
  948loPI    C314487   3.393   7.234   4.899  0.1735  0.0089 -0.0396
  948loPI   PO414488   3.691   7.105   5.476 -0.0385  0.1335 -0.2409
  948loPI   GL114489   3.666   7.390   5.915 -0.0303  0.0024 -0.0521
  948loPI   GL214490   3.858   7.307   5.916 -0.0671 -0.1580 -0.1081
  948loPI   C1A14491   3.537   7.455   6.286 -0.0319  0.0779  0.1440
  948loPI   C2A14492   3.546   7.478   6.647  0.2490 -0.0702  0.0591
  948loPI   C3A14493   3.660   7.408   7.017  0.2392 -0.1501 -0.0468
  948loPI   C4A14494   3.683   7.430   7.506 -0.0129  0.1653 -0.1071
  948loPI   C5A14495   3.409   7.566   7.864  0.1365 -0.3101 -0.0664
  948loPI   C6A14496   3.114   7.765   8.179 -0.0216 -0.2263 -0.1866
  948loPI   C1B14497   3.913   7.050   6.292 -0.0080 -0.3014  0.1331
  948loPI   C2B14498   3.976   6.974   6.688 -0.2082  0.0975  0.0081
  948loPI   C3B14499   3.915   6.833   7.001  0.1273  0.2198 -0.2502
  948loPI   C4B14500   3.921   7.054   7.298 -0.4761 -0.4450  0.0775
  949loPI    C114501   9.141  10.205   5.614  0.0070 -0.0405 -0.1852
  949loPI    C214502   9.422  10.388   5.395  0.1112  0.0444  0.0159
  949loPI    C314503   9.119  10.198   5.215  0.2010  0.1029 -0.2001
  949loPI   PO414504   9.265  10.214   5.818 -0.2260  0.0918  0.0106
  949loPI   GL114505   9.181  10.259   6.214 -0.1382  0.0784  0.1254
  949loPI   GL214506   8.946  10.091   6.454 -0.0380  0.1194  0.1373
  949loPI   C1A14507   9.419   9.953   6.520  0.1493  0.2071  0.0712
  949loPI   C2A14508   9.504   9.778   6.957 -0.1460  0.1923 -0.1269
  949loPI   C3A14509   9.643   9.720   7.370 -0.1434 -0.1639  0.0379
  949loPI   C4A14510  10.008   9.776   7.754  0.0399 -0.0600 -0.2358
  949loPI   C5A14511  10.325   9.786   8.044  0.2658 -0.3975 -0.0693
  949loPI   C6A14512  10.548   9.418   8.156 -0.2258  0.0340  0.0178
  949loPI   C1B14513   8.702  10.360   6.714  0.2876  0.1877  0.1689
  949loPI   C2B14514   8.924  10.623   7.058 -0.0296 -0.1568  0.3623
  949loPI   C3B14515   8.963  10.587   7.415 -0.3894  0.0013 -0.1676
  949loPI   C4B14516   9.007  10.369   7.800  0.2029  0.0071 -0.0858
  950loPI    C114517   5.336  14.907   5.087  0.1269  0.1175  0.0504
  950loPI    C214518   5.129  15.178   4.879 -0.0379 -0.0770 -0.0419
  950loPI    C314519   5.484  15.052   4.745  0.0100  0.0462 -0.0312
  950loPI   PO414520   5.327  14.997   5.358  0.2466 -0.1052 -0.0299
  950loPI   GL114521   5.155  15.217   5.766  0.1681 -0.0797 -0.2955
  950loPI   GL214522   5.083  14.820   5.845 -0.0851 -0.0696 -0.0025
  950loPI   C1A14523   5.273  15.134   6.126 -0.4027 -0.0515  0.2199
  950loPI   C2A14524   5.274  15.142   6.597 -0.1023  0.1745  0.2673
  950loPI   C3A14525   5.143  15.132   7.006 -0.2098  0.0324  0.4304
  950loPI   C4A14526   5.049  15.158   7.449 -0.2445  0.2024  0.0133
  950loPI   C5A14527   4.903  15.194   7.864  0.1014 -0.0198 -0.0534
  950loPI   C6A14528   4.589  15.111   8.085  0.0046  0.1959 -0.0283
  950loPI   C1B14529   4.809  14.735   6.245 -0.2161 -0.0540 -0.4171
  950loPI   C2B14530   4.713  14.758   6.641 -0.4012 -0.1315 -0.3435
  950loPI   C3B14531   4.801  14.701   7.054  0.1067 -0.2835  0.1746
  950loPI   C4B14532   4.861  14.640   7.534  0.3782  0.2043  0.2139
  951loPI    C114533   3.580   2.725   5.180  0.0003 -0.1154 -0.1064
  951loPI    C214534   3.259   2.849   4.976 -0.0161  0.0520  0.0190
  951loPI    C314535   3.611   3.033   4.927  0.0180 -0.0129  0.0194
  951loPI   PO414536   3.588   2.729   5.489 -0.0543  0.3078  0.2327
  951loPI   GL114537   3.516   2.974   5.701 -0.1159  0.2599 -0.0026
  951loPI   GL214538   3.654   3.129   5.898 -0.0455  0.1740 -0.2336
  951loPI   C1A14539   3.200   3.065   6.046  0.0418  0.1107  0.0550
  951loPI   C2A14540   3.241   3.072   6.480  0.2970 -0.1055  0.0348
  951loPI   C3A14541   3.229   3.090   6.913 -0.0359 -0.2404 -0.1493
  951loPI   C4A14542   3.254   2.971   7.276  0.0411 -0.0287  0.0478
  951loPI   C5A14543   3.345   2.930   7.655 -0.0849 -0.1381 -0.2652
  951loPI   C6A14544   3.397   2.649   8.128  0.4065 -0.1524  0.5669
  951loPI   C1B14545   3.696   3.202   6.257  0.0660 -0.0591 -0.0677
  951loPI   C2B14546   3.690   3.270   6.631 -0.0593  0.0866  0.1215
  951loPI   C3B14547   3.609   3.307   7.108 -0.1388  0.1770  0.1688
  951loPI   C4B14548   3.770   3.285   7.489 -0.2699 -0.1002 -0.1378
  952loPI    C114549   2.099  10.450   5.381  0.1488 -0.0384 -0.1228
  952loPI    C214550   2.196  10.833   5.446 -0.1651  0.0261 -0.0166
  952loPI    C314551   2.050  10.721   5.091  0.3070 -0.0767 -0.1868
  952loPI   PO414552   2.382  10.304   5.542 -0.1709 -0.1879 -0.0200
  952loPI   GL114553   2.680  10.423   5.771 -0.1285  0.0532  0.2170
  952loPI   GL214554   2.721  10.703   5.703  0.2804  0.1482 -0.0563
  952loPI   C1A14555   2.648  10.254   6.194  0.0112  0.1514  0.2660
  952loPI   C2A14556   2.592  10.207   6.668  0.0145  0.0010  0.1978
  952loPI   C3A14557   2.544  10.167   7.135 -0.1161 -0.0988  0.1223
  952loPI   C4A14558   2.461  10.139   7.518 -0.0415  0.1495  0.2083
  952loPI   C5A14559   2.333  10.074   7.974  0.2464 -0.1145  0.0444
  952loPI   C6A14560   2.250  10.028   8.455 -0.2443  0.2253 -0.0553
  952loPI   C1B14561   2.627  10.813   6.126 -0.1265  0.1391 -0.0105
  952loPI   C2B14562   2.648  10.710   6.586 -0.0858  0.2326 -0.0387
  952loPI   C3B14563   2.640  10.685   7.033  0.4660 -0.1233  0.3505
  952loPI   C4B14564   2.433  10.602   7.386  0.1019  0.1201 -0.3107
  953loPI    C114565  15.263  17.604   5.359 -0.0863 -0.1388 -0.0753
  953loPI    C214566  14.864  17.569   5.369 -0.1038  0.0879  0.1023
  953loPI    C314567  15.033  17.895   5.210  0.0144 -0.0451 -0.0487
  953loPI   PO414568  15.343  17.552   5.581 -0.2210  0.0540 -0.1898
  953loPI   GL114569  15.381  17.421   6.047  0.0988  0.0773 -0.0540
  953loPI   GL214570  15.682  17.294   6.090 -0.1805  0.2231 -0.2814
  953loPI   C1A14571  15.337  17.610   6.508 -0.1710 -0.0757 -0.1148
  953loPI   C2A14572  15.443  17.739   6.974 -0.0775  0.0386  0.0191
  953loPI   C3A14573  15.472  17.840   7.381 -0.1632  0.0821  0.2176
  953loPI   C4A14574  15.463  17.741   7.792  0.3471 -0.3076 -0.0402
  953loPI   C5A14575  15.297  17.634   8.182  0.1204 -0.1216 -0.2277
  953loPI   C6A14576  15.000  17.395   8.425 -0.1182  0.2861  0.0357
  953loPI   C1B14577  15.739  17.332   6.525 -0.0852 -0.0250  0.3884
  953loPI   C2B14578  15.895  17.460   6.985  0.0892  0.3449  0.0300
  953loPI   C3B14579  15.917  17.528   7.317  0.2521  0.2218 -0.2077
  953loPI   C4B14580  15.944  17.505   7.772  0.0474 -0.1083  0.0553
  954loPI    C114581  11.838   5.836   5.072  0.0642 -0.0863 -0.0159
  954loPI    C214582  11.486   5.751   4.901  0.0605 -0.0381 -0.0324
  954loPI    C314583  11.812   5.540   4.804  0.0328 -0.0931 -0.0053
  954loPI   PO414584  11.704   5.852   5.354  0.1470  0.0671 -0.0759
  954loPI   GL114585  11.437   5.864   5.804  0.0995  0.0692 -0.0446
  954loPI   GL214586  11.112   5.691   5.790  0.0890 -0.0454 -0.1780
  954loPI   C1A14587  11.511   5.857   6.261  0.0223 -0.2487  0.0784
  954loPI   C2A14588  11.663   5.855   6.694 -0.0427 -0.0925 -0.0939
  954loPI   C3A14589  11.516   5.803   7.039  0.2284  0.0451 -0.2529
  954loPI   C4A14590  11.459   5.675   7.477  0.1855  0.0815 -0.1448
  954loPI   C5A14591  11.619   5.539   7.785  0.0544 -0.0961  0.1547
  954loPI   C6A14592  11.786   5.549   8.237 -0.1317 -0.3024 -0.1193
  954loPI   C1B14593  11.111   5.581   6.300 -0.0351 -0.0390 -0.0466
  954loPI   C2B14594  11.164   5.586   6.756 -0.0259  0.0077  0.2134
  954loPI   C3B14595  11.150   5.436   7.123 -0.3264  0.3409 -0.0294
  954loPI   C4B14596  11.114   5.281   7.575 -0.0368  0.1122  0.0562
  955loPI    C114597   2.201   9.403   5.454  0.1843  0.1526 -0.0127
  955loPI    C214598   2.086   9.544   5.098  0.2632  0.1313 -0.0469
  955loPI    C314599   2.201   9.163   5.134  0.1053  0.0905  0.0336
  955loPI   PO414600   2.423   9.589   5.514 -0.1651 -0.0235 -0.1583
  955loPI   GL114601   2.502   9.901   5.864 -0.0591  0.2715 -0.0490
  955loPI   GL214602   2.168  10.138   5.973 -0.2905 -0.1089  0.1383
  955loPI   C1A14603   2.638   9.757   6.254 -0.0787 -0.2940  0.3143
  955loPI   C2A14604   2.680   9.661   6.721 -0.1295 -0.1823 -0.0504
  955loPI   C3A14605   2.618   9.630   7.128 -0.3177 -0.0943  0.1815
  955loPI   C4A14606   2.505   9.617   7.599  0.0492 -0.1290 -0.1701
  955loPI   C5A14607   2.788   9.628   7.961  0.5664  0.1066 -0.0881
  955loPI   C6A14608   2.917   9.798   8.277 -0.1367 -0.0702 -0.1847
  955loPI   C1B14609   2.149   9.987   6.320 -0.1424 -0.0203  0.1792
  955loPI   C2B14610   2.176   9.854   6.731  0.2194  0.1913  0.2275
  955loPI   C3B14611   2.114   9.915   7.109  0.4327  0.0294  0.0522
  955loPI   C4B14612   2.018   9.806   7.552  0.0785 -0.1178 -0.1324
  956loPI    C114613   1.838   2.369   5.308  0.2484 -0.1622  0.1392
  956loPI    C214614   1.444   2.330   5.361  0.2272  0.0520  0.1500
  956loPI    C314615   1.653   2.034   5.192  0.0387 -0.0051  0.0129
  956loPI   PO414616   1.988   2.464   5.569  0.0105  0.3173 -0.0272
  956loPI   GL114617   2.391   2.323   5.793  0.3307 -0.0245  0.0841
  956loPI   GL214618   2.119   2.223   6.027 -0.3319  0.0208  0.0716
  956loPI   C1A14619   2.584   2.276   6.193 -0.3397 -0.1166 -0.2746
  956loPI   C2A14620   2.682   2.368   6.622 -0.0654 -0.0825 -0.0511
  956loPI   C3A14621   2.783   2.212   7.051  0.3550  0.1908  0.0813
  956loPI   C4A14622   2.787   2.049   7.456 -0.2717  0.1496 -0.1100
  956loPI   C5A14623   2.660   1.975   7.865 -0.1430  0.2144 -0.1691
  956loPI   C6A14624   2.236   1.787   8.011  0.0972 -0.1757 -0.2645
  956loPI   C1B14625   2.204   2.093   6.380  0.1858 -0.0160 -0.0543
  956loPI   C2B14626   2.277   2.068   6.786 -0.1695 -0.3324  0.2292
  956loPI   C3B14627   2.345   2.043   7.201  0.1113  0.4718 -0.0776
  956loPI   C4B14628   2.290   2.106   7.583 -0.2323 -0.0308  0.3338
  957loPI    C114629   9.795  12.557   5.834  0.1439  0.0153  0.0268
  957loPI    C214630   9.519  12.629   5.553 -0.1345 -0.0127  0.2876
  957loPI    C314631   9.779  12.915   5.656 -0.0110 -0.0115 -0.0153
  957loPI   PO414632   9.632  12.415   6.021 -0.0017  0.1624  0.1255
  957loPI   GL114633   9.379  12.515   6.347  0.1858  0.0165  0.3294
  957loPI   GL214634   9.649  12.592   6.509  0.2990 -0.2664  0.0642
  957loPI   C1A14635   9.239  12.699   6.826  0.2009  0.2360 -0.1923
  957loPI   C2A14636   9.149  12.604   7.284  0.1208 -0.1847  0.0116
  957loPI   C3A14637   9.364  12.575   7.715  0.3169  0.2484 -0.2011
  957loPI   C4A14638   9.645  12.653   7.903  0.2566 -0.0337 -0.0113
  957loPI   C5A14639  10.009  12.860   8.210  0.0772 -0.1618  0.1705
  957loPI   C6A14640  10.395  12.956   8.228 -0.2484  0.0873  0.1890
  957loPI   C1B14641   9.648  12.412   6.918  0.2186  0.1190  0.0560
  957loPI   C2B14642  10.024  12.189   7.127 -0.2297 -0.0075 -0.0968
  957loPI   C3B14643   9.992  12.131   7.606 -0.3513 -0.0922 -0.2320
  957loPI   C4B14644   9.983  11.791   7.936  0.0498 -0.3457 -0.2298
  958loPI    C114645   6.256   9.495   5.373  0.0905 -0.0687 -0.0644
  958loPI    C214646   6.098   9.158   5.519  0.1567 -0.1096 -0.0866
  958loPI    C314647   6.304   9.150   5.177 -0.1013  0.0065 -0.2477
  958loPI   PO414648   6.309   9.669   5.565  0.1147  0.0934  0.1235
  958loPI   GL114649   6.258   9.894   5.905  0.1984 -0.0460  0.1443
  958loPI   GL214650   6.478  10.127   6.008 -0.3370  0.0891  0.2419
  958loPI   C1A14651   6.168   9.805   6.370 -0.0333  0.1682 -0.0225
  958loPI   C2A14652   6.197   9.866   6.891  0.1212  0.2546  0.1810
  958loPI   C3A14653   6.349   9.846   7.347 -0.1894 -0.0908  0.2105
  958loPI   C4A14654   6.487   9.834   7.764 -0.3222 -0.2616 -0.1948
  958loPI   C5A14655   6.530   9.748   8.198 -0.1730 -0.1938  0.2851
  958loPI   C6A14656   6.585   9.343   8.345 -0.0927  0.3281  0.2811
  958loPI   C1B14657   6.341  10.296   6.464 -0.0881 -0.0299 -0.2676
  958loPI   C2B14658   6.290  10.441   6.888  0.1581  0.1999  0.1544
  958loPI   C3B14659   6.235  10.352   7.314  0.0675 -0.0048 -0.0222
  958loPI   C4B14660   6.160  10.162   7.661  0.1232 -0.0481  0.1951
  959loPI    C114661   1.086   5.099   4.817 -0.0124  0.1646  0.2174
  959loPI    C214662   1.398   5.338   4.742  0.1409 -0.1016 -0.0141
  959loPI    C314663   1.341   5.009   4.522 -0.0957 -0.2525  0.2661
  959loPI   PO414664   0.928   5.231   4.957  0.2454  0.4222 -0.0195
  959loPI   GL114665   0.802   5.384   5.387 -0.1903 -0.0982  0.0477
  959loPI   GL214666   0.934   5.567   5.403  0.2256 -0.0381 -0.2203
  959loPI   C1A14667   0.620   5.441   5.839  0.0402 -0.2329 -0.0070
  959loPI   C2A14668   0.691   5.481   6.238 -0.3007 -0.0217  0.0251
  959loPI   C3A14669   0.774   5.458   6.671  0.0296  0.0844  0.0138
  959loPI   C4A14670   1.010   5.435   7.083 -0.1658 -0.0214  0.0730
  959loPI   C5A14671   0.984   5.427   7.517 -0.0052 -0.1987 -0.0013
  959loPI   C6A14672   0.800   5.240   7.874 -0.0028  0.3483  0.2366
  959loPI   C1B14673   1.026   5.772   5.761 -0.1713 -0.0114 -0.2638
  959loPI   C2B14674   1.033   5.927   6.149 -0.1114  0.2532 -0.0344
  959loPI   C3B14675   0.960   5.895   6.524  0.2185  0.0838  0.0300
  959loPI   C4B14676   0.861   5.993   6.909  0.0242  0.3908  0.0319
  960loPI    C114677   6.007   5.224   5.325 -0.1172  0.1107  0.0387
  960loPI    C214678   6.048   5.536   5.571 -0.1189 -0.0782  0.2824
  960loPI    C314679   5.924   5.593   5.195 -0.1798  0.2065  0.3432
  960loPI   PO414680   6.180   5.017   5.458  0.3509  0.3719  0.1303
  960loPI   GL114681   6.306   4.836   5.819  0.1561  0.0087 -0.1556
  960loPI   GL214682   6.336   5.007   5.914 -0.1351 -0.0109  0.1496
  960loPI   C1A14683   6.439   4.585   6.191  0.0688  0.1456  0.4412
  960loPI   C2A14684   6.476   4.657   6.604  0.0781  0.0691  0.2554
  960loPI   C3A14685   6.303   4.738   7.005 -0.1203  0.0301 -0.3112
  960loPI   C4A14686   6.222   4.706   7.443  0.1035  0.2057  0.2594
  960loPI   C5A14687   6.194   4.735   7.870  0.1871  0.0894 -0.0520
  960loPI   C6A14688   6.445   4.683   8.268  0.1642 -0.1241 -0.0931
  960loPI   C1B14689   6.181   5.176   6.392 -0.1405  0.3829 -0.0154
  960loPI   C2B14690   6.115   5.295   6.816  0.2125  0.2469 -0.1382
  960loPI   C3B14691   6.009   5.120   7.276 -0.1316 -0.4920  0.0243
  960loPI   C4B14692   5.905   5.075   7.704 -0.2012 -0.1006  0.1482
  961loPI    C114693   0.124   9.603   5.095  0.0603 -0.1262  0.0177
  961loPI    C214694   0.046   9.217   5.025 -0.0106 -0.1033 -0.0315
  961loPI    C314695   0.195   9.448   4.734  0.1045 -0.1117  0.0201
  961loPI   PO414696   0.278   9.617   5.274 -0.0632 -0.3375 -0.0995
  961loPI   GL114697   0.342   9.547   5.783  0.1011  0.1214 -0.1694
  961loPI   GL214698   0.435   9.797   5.872  0.1193  0.2159 -0.0493
  961loPI   C1A14699   0.138   9.450   6.170 -0.0282 -0.0886  0.0792
  961loPI   C2A14700   0.244   9.498   6.618  0.2718  0.0759  0.1799
  961loPI   C3A14701   0.365   9.491   6.966 -0.2458  0.2268  0.0722
  961loPI   C4A14702   0.301   9.493   7.391 -0.2382 -0.0824 -0.2129
  961loPI   C5A14703   0.321   9.527   7.788  0.4218  0.0441  0.0804
  961loPI   C6A14704  -0.048   9.520   8.129 -0.1469  0.0961 -0.0130
  961loPI   C1B14705   0.316  10.032   6.176 -0.0018  0.1469 -0.1315
  961loPI   C2B14706   0.326   9.952   6.668 -0.0187 -0.1821  0.1549
  961loPI   C3B14707   0.289   9.964   7.122 -0.0660 -0.0621 -0.1251
  961loPI   C4B14708   0.200   9.940   7.459 -0.1777 -0.1801 -0.1342
  962loPI    C114709  12.537  10.361   5.267 -0.2070 -0.1720  0.0830
  962loPI    C214710  12.186  10.523   5.164  0.0091  0.1676 -0.1411
  962loPI    C314711  12.401  10.322   4.893 -0.0684 -0.1518  0.0295
  962loPI   PO414712  12.491  10.294   5.581  0.1099  0.1783 -0.0076
  962loPI   GL114713  12.714  10.406   5.852  0.0420 -0.0535 -0.0423
  962loPI   GL214714  12.929  10.544   5.982 -0.1024 -0.0670  0.1450
  962loPI   C1A14715  12.460  10.315   6.221 -0.4475 -0.2233 -0.1125
  962loPI   C2A14716  12.465  10.248   6.599  0.3266  0.1755 -0.1156
  962loPI   C3A14717  12.528  10.280   7.055 -0.0963  0.1462  0.0018
  962loPI   C4A14718  12.698  10.191   7.516  0.0235 -0.0807 -0.1641
  962loPI   C5A14719  12.837   9.962   7.932 -0.3173 -0.0184 -0.1406
  962loPI   C6A14720  12.621  10.028   8.312 -0.1964 -0.0232  0.0106
  962loPI   C1B14721  12.859  10.490   6.415 -0.1925 -0.4278  0.1643
  962loPI   C2B14722  12.994  10.497   6.885 -0.2930  0.1706 -0.1202
  962loPI   C3B14723  13.187  10.425   7.341  0.0180  0.1123 -0.0875
  962loPI   C4B14724  13.436  10.280   7.631 -0.1473  0.0484 -0.3027
  963loPI    C114725  14.034   9.202   4.914 -0.0678  0.2850 -0.2356
  963loPI    C214726  14.276   9.321   4.619  0.2189  0.0929 -0.0828
  963loPI    C314727  14.209   8.931   4.678 -0.0744  0.1417 -0.0785
  963loPI   PO414728  14.134   9.330   5.102 -0.0413  0.2799 -0.2688
  963loPI   GL114729  14.222   9.293   5.545  0.3052  0.1490 -0.2380
  963loPI   GL214730  13.997   9.138   5.733 -0.3564  0.1370  0.1545
  963loPI   C1A14731  14.442   9.247   5.999 -0.3950 -0.1217  0.0452
  963loPI   C2A14732  14.234   9.146   6.370 -0.1725 -0.2323 -0.0319
  963loPI   C3A14733  14.255   9.148   6.755  0.5470  0.0947  0.1817
  963loPI   C4A14734  14.120   9.134   7.181  0.0120 -0.1010  0.1147
  963loPI   C5A14735  13.998   9.111   7.696 -0.2716  0.0044  0.3285
  963loPI   C6A14736  13.694   8.858   7.918  0.2447  0.0862 -0.0201
  963loPI   C1B14737  13.843   8.944   6.112  0.2662 -0.3249 -0.0267
  963loPI   C2B14738  13.626   9.031   6.446 -0.0185 -0.1066 -0.2248
  963loPI   C3B14739  13.640   8.818   6.732  0.3710 -0.1959 -0.3414
  963loPI   C4B14740  13.775   8.748   7.206 -0.0696 -0.0714 -0.0470
  964loPI    C114741  15.555   8.192   5.669 -0.0529 -0.0551 -0.0678
  964loPI    C214742  15.640   8.573   5.757  0.1024 -0.0661 -0.1667
  964loPI    C314743  15.821   8.277   5.957 -0.2316 -0.0898  0.1098
  964loPI   PO414744  15.329   8.172   5.607 -0.0251  0.0613  0.0744
  964loPI   GL114745  15.160   8.006   6.024 -0.2961  0.1242 -0.0021
  964loPI   GL214746  15.312   8.292   6.083  0.2025 -0.4420  0.3120
  964loPI   C1A14747  15.029   8.069   6.503  0.0942  0.2090 -0.1645
  964loPI   C2A14748  15.141   8.226   6.803  0.0310 -0.0138 -0.0138
  964loPI   C3A14749  15.170   8.074   7.204  0.0833  0.2545  0.0167
  964loPI   C4A14750  15.340   8.109   7.633  0.0535  0.0327 -0.4486
  964loPI   C5A14751  15.304   8.472   7.814 -0.1518 -0.2866  0.0335
  964loPI   C6A14752  15.457   8.853   7.958 -0.0408  0.2645  0.0926
  964loPI   C1B14753  15.482   8.317   6.380 -0.2307 -0.0546  0.2663
  964loPI   C2B14754  15.585   8.429   6.705  0.0524  0.1726  0.1058
  964loPI   C3B14755  15.567   8.420   7.224  0.1630 -0.0461  0.2477
  964loPI   C4B14756  15.704   8.477   7.604  0.4597 -0.0376  0.0512
  965loPI    C114757  10.351  15.805   5.640  0.1051 -0.1063 -0.0506
  965loPI    C214758  10.715  15.692   5.519  0.1931  0.2907 -0.1708
  965loPI    C314759  10.440  15.803   5.250 -0.0308 -0.0372 -0.0828
  965loPI   PO414760  10.305  15.639   5.835 -0.1975  0.1198  0.1668
  965loPI   GL114761   9.919  15.837   6.058  0.2578  0.2991  0.0313
  965loPI   GL214762  10.222  15.937   6.207  0.3865 -0.1282 -0.0063
  965loPI   C1A14763   9.721  16.083   6.351 -0.0422 -0.0060  0.0532
  965loPI   C2A14764   9.702  16.070   6.854  0.0250  0.3260  0.1262
  965loPI   C3A14765   9.826  16.106   7.260 -0.2146  0.2631  0.0003
  965loPI   C4A14766   9.930  16.155   7.711 -0.2113 -0.0303  0.0131
  965loPI   C5A14767   9.850  16.241   8.143  0.0897  0.0735 -0.2384
  965loPI   C6A14768   9.743  16.455   8.490 -0.1847 -0.0263 -0.3503
  965loPI   C1B14769  10.140  15.829   6.671 -0.1828 -0.0514 -0.0442
  965loPI   C2B14770  10.180  15.745   7.061  0.1339  0.0748 -0.1998
  965loPI   C3B14771  10.283  15.810   7.539 -0.3124 -0.1054 -0.2971
  965loPI   C4B14772  10.267  15.902   8.053  0.1048  0.3306 -0.2078
  966loPI    C114773   1.885   8.498   5.434  0.3470 -0.1354  0.0169
  966loPI    C214774   2.100   8.628   5.122  0.0083  0.2783 -0.0535
  966loPI    C314775   1.834   8.334   5.072  0.2327  0.0743 -0.0642
  966loPI   PO414776   2.052   8.415   5.603 -0.2510  0.1048 -0.0171
  966loPI   GL114777   1.944   8.128   5.933  0.3477  0.1995 -0.0032
  966loPI   GL214778   1.800   7.864   5.977  0.1927  0.0275  0.1665
  966loPI   C1A14779   1.957   8.341   6.274 -0.0263 -0.0285 -0.3041
  966loPI   C2A14780   2.059   8.322   6.657  0.4072  0.0812 -0.2608
  966loPI   C3A14781   2.113   8.441   7.055  0.0315  0.4298 -0.0328
  966loPI   C4A14782   2.113   8.548   7.442 -0.1182 -0.0922  0.0078
  966loPI   C5A14783   2.182   8.626   7.896 -0.2895 -0.1691  0.0639
  966loPI   C6A14784   2.198   8.998   8.071 -0.3225 -0.3151  0.0039
  966loPI   C1B14785   1.788   7.837   6.509 -0.0054 -0.3332  0.1783
  966loPI   C2B14786   1.875   7.882   6.957  0.2526 -0.0661 -0.0939
  966loPI   C3B14787   2.029   7.999   7.313  0.0515  0.1480 -0.1511
  966loPI   C4B14788   2.223   8.117   7.815  0.0879 -0.1510  0.3254
  967loPI    C114789  14.893   1.349   5.609  0.3563  0.0023  0.0310
  967loPI    C214790  14.597   1.505   5.390  0.1062 -0.1696  0.2410
  967loPI    C314791  14.863   1.746   5.567  0.0474 -0.0100  0.1150
  967loPI   PO414792  14.722   1.111   5.697  0.0070 -0.1077 -0.0926
  967loPI   GL114793  14.730   0.957   6.100 -0.1706 -0.2617 -0.0202
  967loPI   GL214794  14.810   0.634   6.119  0.2303  0.1090  0.1022
  967loPI   C1A14795  14.580   1.253   6.338 -0.0779  0.2095  0.0778
  967loPI   C2A14796  14.499   1.253   6.789  0.0200 -0.1782  0.2176
  967loPI   C3A14797  14.475   1.175   7.204 -0.0370  0.0377 -0.1240
  967loPI   C4A14798  14.389   1.298   7.695  0.2984 -0.0212  0.1341
  967loPI   C5A14799  14.434   1.647   8.073 -0.1226 -0.0744 -0.1858
  967loPI   C6A14800  14.695   1.787   8.380  0.0722  0.1442  0.1409
  967loPI   C1B14801  15.010   0.510   6.519  0.0258  0.2852  0.1650
  967loPI   C2B14802  15.340   0.675   6.756 -0.0377 -0.0438  0.1268
  967loPI   C3B14803  15.331   0.787   7.150 -0.0806  0.0340  0.0642
  967loPI   C4B14804  15.376   0.702   7.618 -0.3764 -0.1038 -0.2056
  968loPI    C114805  12.649   3.195   5.135  0.1998 -0.2001  0.1617
  968loPI    C214806  12.343   3.330   4.916  0.1096  0.0746  0.4496
  968loPI    C314807  12.518   2.983   4.822  0.2003  0.2760 -0.1723
  968loPI   PO414808  12.594   3.346   5.402 -0.2947  0.3256  0.0404
  968loPI   GL114809  12.780   3.459   5.722  0.0036  0.0613 -0.0105
  968loPI   GL214810  12.572   3.768   5.745  0.0143  0.2031 -0.0558
  968loPI   C1A14811  13.046   3.635   6.014  0.0509  0.0605  0.0763
  968loPI   C2A14812  13.002   3.778   6.473  0.2681  0.2036  0.1010
  968loPI   C3A14813  13.151   4.090   6.756  0.1050  0.1742 -0.0456
  968loPI   C4A14814  13.127   4.462   7.047 -0.0228 -0.1118 -0.1427
  968loPI   C5A14815  13.039   4.602   7.412 -0.0735  0.0942  0.1509
  968loPI   C6A14816  13.193   4.674   7.813  0.0467  0.3521  0.2081
  968loPI   C1B14817  12.575   3.763   6.162  0.1690 -0.0560 -0.0770
  968loPI   C2B14818  12.559   3.677   6.651 -0.0546 -0.1880  0.0220
  968loPI   C3B14819  12.745   3.805   6.963 -0.1976  0.0098  0.4119
  968loPI   C4B14820  12.995   4.023   7.271  0.0642  0.2874 -0.1273
  969loPI    C114821   7.056  12.469   5.704 -0.0802  0.1519 -0.0637
  969loPI    C214822   6.829  12.454   5.376  0.0701  0.0232 -0.1635
  969loPI    C314823   7.152  12.690   5.385  0.1804 -0.1257 -0.1829
  969loPI   PO414824   6.829  12.447   5.881 -0.1253  0.2197 -0.0283
  969loPI   GL114825   6.713  12.564   6.279  0.0383 -0.1794 -0.0332
  969loPI   GL214826   6.457  12.700   6.214  0.2505  0.2843 -0.0906
  969loPI   C1A14827   6.854  12.414   6.618 -0.1081  0.2532 -0.0546
  969loPI   C2A14828   6.829  12.491   7.055 -0.2792 -0.0212  0.0717
  969loPI   C3A14829   6.861  12.533   7.530 -0.3706 -0.1710 -0.0206
  969loPI   C4A14830   6.712  12.554   8.054  0.0696  0.1418 -0.2069
  969loPI   C5A14831   6.292  12.623   8.256 -0.0008  0.3333  0.2145
  969loPI   C6A14832   5.933  12.709   8.319  0.0966 -0.0947  0.3497
  969loPI   C1B14833   6.329  12.672   6.615  0.1287 -0.0158  0.2046
  969loPI   C2B14834   6.322  12.547   7.019 -0.0460  0.2612  0.0508
  969loPI   C3B14835   6.403  12.415   7.323  0.0341  0.1731  0.1196
  969loPI   C4B14836   6.506  12.138   7.764  0.0301 -0.1342 -0.2275
  970loPI    C114837  12.523  14.654   5.502 -0.2385  0.1720  0.0368
  970loPI    C214838  12.705  14.641   5.146 -0.2994 -0.1835  0.0147
  970loPI    C314839  12.355  14.830   5.185 -0.0056  0.3796  0.0261
  970loPI   PO414840  12.720  14.601   5.690  0.0953  0.2706  0.0492
  970loPI   GL114841  12.516  14.738   6.031  0.0243  0.2366  0.2067
  970loPI   GL214842  12.567  14.396   6.142 -0.0590  0.2635 -0.0148
  970loPI   C1A14843  12.228  14.774   6.439  0.0094  0.0199 -0.0853
  970loPI   C2A14844  12.050  14.776   6.817  0.1969 -0.0105  0.0938
  970loPI   C3A14845  12.058  14.801   7.206  0.2334 -0.1239  0.1086
  970loPI   C4A14846  12.156  14.659   7.673 -0.2321 -0.0401 -0.0252
  970loPI   C5A14847  12.375  14.406   8.126 -0.1292 -0.4423 -0.0619
  970loPI   C6A14848  12.523  14.286   8.478 -0.1672  0.2898  0.3176
  970loPI   C1B14849  12.232  14.182   6.360 -0.0729 -0.3824  0.0740
  970loPI   C2B14850  12.351  14.010   6.780 -0.0009 -0.1624  0.0502
  970loPI   C3B14851  12.561  14.061   7.225  0.3546 -0.0284 -0.1066
  970loPI   C4B14852  12.812  13.909   7.508 -0.2433 -0.2485 -0.0712
  971loPI    C114853   5.410   8.433   5.596 -0.0924 -0.0405 -0.0338
  971loPI    C214854   5.623   8.496   5.262 -0.1945 -0.2229 -0.1351
  971loPI    C314855   5.338   8.755   5.371 -0.0748 -0.0965 -0.1202
  971loPI   PO414856   5.443   8.203   5.699  0.2377  0.1055  0.1488
  971loPI   GL114857   5.336   7.973   6.101  0.3099  0.1202 -0.3682
  971loPI   GL214858   5.123   7.758   6.166 -0.0320 -0.1065 -0.0210
  971loPI   C1A14859   5.405   7.940   6.563 -0.2029  0.3269 -0.0519
  971loPI   C2A14860   5.441   7.865   7.008 -0.0074 -0.1373  0.2416
  971loPI   C3A14861   5.397   7.930   7.381  0.2392  0.3312 -0.1291
  971loPI   C4A14862   5.520   7.943   7.779  0.0059  0.1637  0.1352
  971loPI   C5A14863   5.731   8.098   8.010 -0.2707 -0.0250 -0.1616
  971loPI   C6A14864   6.160   7.955   8.076  0.0063  0.0375  0.3290
  971loPI   C1B14865   4.923   7.892   6.452  0.1827 -0.2586 -0.0326
  971loPI   C2B14866   4.934   7.848   6.827 -0.0386 -0.0399  0.1428
  971loPI   C3B14867   4.864   8.013   7.229 -0.0045 -0.2800 -0.2213
  971loPI   C4B14868   4.965   7.877   7.647  0.1182  0.2427 -0.1624
  972loPI    C114869  11.653   1.761   5.272 -0.0261 -0.4293  0.1136
  972loPI    C214870  11.869   1.913   4.972 -0.0328 -0.1223  0.2598
  972loPI    C314871  11.484   1.822   4.915 -0.0191 -0.1191  0.1597
  972loPI   PO414872  11.759   1.867   5.518 -0.0888 -0.0322 -0.3344
  972loPI   GL114873  11.557   1.874   5.934  0.2507 -0.1848 -0.3120
  972loPI   GL214874  11.331   1.713   6.125 -0.0908  0.0628 -0.2064
  972loPI   C1A14875  11.404   2.213   6.203  0.1668  0.0806  0.1390
  972loPI   C2A14876  11.394   2.364   6.523 -0.0328  0.0875 -0.1271
  972loPI   C3A14877  11.315   2.198   6.886  0.2617  0.1179 -0.4948
  972loPI   C4A14878  11.179   2.270   7.281  0.0078  0.0611  0.2209
  972loPI   C5A14879  11.114   2.399   7.725 -0.1522  0.2948  0.3134
  972loPI   C6A14880  10.969   2.573   8.121 -0.0559 -0.1524 -0.0862
  972loPI   C1B14881  11.457   1.863   6.568  0.2923  0.0466 -0.0382
  972loPI   C2B14882  11.602   1.727   6.964 -0.0491  0.1804 -0.2044
  972loPI   C3B14883  11.623   1.803   7.455 -0.1466  0.0414 -0.0339
  972loPI   C4B14884  11.630   1.769   7.873  0.0366  0.1273 -0.1833
  973loPI    C114885   0.885   7.172   4.638  0.1109 -0.1218  0.0759
  973loPI    C214886   1.241   7.324   4.739 -0.0601  0.1471  0.2884
  973loPI    C314887   1.003   7.524   4.487 -0.0761 -0.0157  0.1729
  973loPI   PO414888   0.941   6.978   4.843  0.1793  0.0218 -0.0378
  973loPI   GL114889   0.645   6.826   5.154 -0.2796  0.3153  0.1576
  973loPI   GL214890   0.455   6.663   5.140  0.0055 -0.0328 -0.2757
  973loPI   C1A14891   0.692   6.970   5.607 -0.0029  0.0935  0.0658
  973loPI   C2A14892   0.531   7.202   5.936 -0.0247 -0.2580 -0.0740
  973loPI   C3A14893   0.552   7.166   6.388  0.2381 -0.1563  0.0409
  973loPI   C4A14894   0.477   7.043   6.790 -0.0767  0.0542  0.2287
  973loPI   C5A14895   0.427   7.047   7.201  0.0915 -0.0912  0.2821
  973loPI   C6A14896   0.266   6.940   7.587  0.4535  0.0032 -0.2357
  973loPI   C1B14897   0.264   6.636   5.524  0.1884 -0.3150 -0.0899
  973loPI   C2B14898   0.299   6.651   5.931 -0.1716 -0.1102  0.1309
  973loPI   C3B14899   0.272   6.679   6.391  0.1383  0.2223  0.2009
  973loPI   C4B14900   0.136   6.746   6.864  0.0893  0.0966  0.0967
  974loPI    C114901  11.983   2.524   5.278 -0.0480  0.2709  0.2135
  974loPI    C214902  12.329   2.500   5.080 -0.2155  0.0086 -0.0573
  974loPI    C314903  12.159   2.857   5.144  0.1726  0.1536  0.2078
  974loPI   PO414904  12.045   2.275   5.423 -0.1673 -0.1898  0.0585
  974loPI   GL114905  12.048   2.173   5.804 -0.1647  0.0200  0.2073
  974loPI   GL214906  12.222   1.954   5.995  0.2659 -0.0021  0.0578
  974loPI   C1A14907  11.880   2.129   6.288 -0.2569  0.3219 -0.2349
  974loPI   C2A14908  11.814   2.136   6.738 -0.0266 -0.0296 -0.2171
  974loPI   C3A14909  11.780   2.151   7.145 -0.3253  0.1223  0.0031
  974loPI   C4A14910  11.618   2.324   7.545  0.0185  0.0028  0.4383
  974loPI   C5A14911  11.598   2.268   7.950 -0.2856 -0.2046 -0.1931
  974loPI   C6A14912  11.440   2.265   8.428  0.4466  0.0581  0.1033
  974loPI   C1B14913  12.306   1.909   6.532  0.1064 -0.0058 -0.1078
  974loPI   C2B14914  12.221   1.991   6.941 -0.1880 -0.1498  0.1665
  974loPI   C3B14915  12.194   1.974   7.411 -0.1419  0.1130 -0.2755
  974loPI   C4B14916  11.986   2.077   7.731 -0.0645 -0.1606 -0.0970
  975loPI    C114917   4.345  13.177   5.094  0.1135 -0.0183 -0.1286
  975loPI    C214918   4.608  13.278   4.810  0.0173  0.0849 -0.1818
  975loPI    C314919   4.230  13.407   4.788 -0.0482 -0.0940 -0.1255
  975loPI   PO414920   4.604  13.188   5.306 -0.2997 -0.1163 -0.1575
  975loPI   GL114921   4.536  13.090   5.724 -0.0844  0.1262  0.1420
  975loPI   GL214922   4.754  12.992   5.770  0.1469  0.0410  0.1658
  975loPI   C1A14923   4.358  13.070   6.111  0.0039  0.0629  0.0900
  975loPI   C2A14924   4.542  13.044   6.569  0.0660 -0.1519  0.2253
  975loPI   C3A14925   4.382  12.938   6.997  0.0721  0.1208 -0.2549
  975loPI   C4A14926   4.378  12.805   7.449  0.2144 -0.0504  0.2835
  975loPI   C5A14927   4.270  12.633   7.804  0.0479 -0.2071 -0.1466
  975loPI   C6A14928   4.100  12.468   8.230 -0.1720 -0.1466  0.0888
  975loPI   C1B14929   4.931  13.017   6.107 -0.2267  0.0280 -0.0583
  975loPI   C2B14930   5.082  12.939   6.478  0.0950  0.1636  0.1862
  975loPI   C3B14931   4.949  12.845   6.775 -0.1848  0.1335  0.0014
  975loPI   C4B14932   4.848  12.691   7.139  0.0086  0.0498  0.1673
  976loPI    C114933  11.194   6.459   4.933  0.1341 -0.0713  0.0878
  976loPI    C214934  11.559   6.297   4.958  0.1892  0.0459  0.0490
  976loPI    C314935  11.496   6.613   4.721  0.0594  0.0181  0.0456
  976loPI   PO414936  11.114   6.438   5.136 -0.0483 -0.0035  0.2251
  976loPI   GL114937  11.116   6.540   5.481 -0.0002  0.1654 -0.3975
  976loPI   GL214938  11.437   6.393   5.612 -0.0318  0.2288  0.0215
  976loPI   C1A14939  11.004   6.643   5.854 -0.1709  0.1203 -0.1517
  976loPI   C2A14940  11.061   6.585   6.273  0.3110 -0.0453  0.1230
  976loPI   C3A14941  11.107   6.574   6.684  0.5087 -0.2373 -0.0380
  976loPI   C4A14942  11.119   6.590   7.036  0.1778 -0.4390 -0.0379
  976loPI   C5A14943  11.094   6.546   7.532  0.0249 -0.2326 -0.0379
  976loPI   C6A14944  10.738   6.664   7.891 -0.0027 -0.1621  0.4173
  976loPI   C1B14945  11.479   6.418   6.059  0.2228  0.1271 -0.0186
  976loPI   C2B14946  11.623   6.333   6.482  0.2027  0.0684 -0.0453
  976loPI   C3B14947  11.525   6.350   6.927 -0.1150 -0.0890  0.1981
  976loPI   C4B14948  11.626   6.334   7.266  0.0570  0.2192 -0.0056
  977loPI    C114949  13.918  17.965   5.554 -0.2643  0.1473  0.0375
  977loPI    C214950  13.922  18.192   5.883  0.3600  0.1504  0.0397
  977loPI    C314951  14.193  18.253   5.595  0.0411 -0.0838 -0.3186
  977loPI   PO414952  13.941  17.747   5.659  0.3276  0.4317  0.2215
  977loPI   GL114953  14.239  17.776   5.980  0.0944  0.0723  0.0917
  977loPI   GL214954  14.524  17.717   6.017  0.2631 -0.0282 -0.3505
  977loPI   C1A14955  14.060  17.921   6.296  0.1235 -0.1561 -0.1689
  977loPI   C2A14956  14.100  17.786   6.747  0.3237  0.0966  0.0419
  977loPI   C3A14957  14.058  17.857   7.166 -0.0722  0.2546 -0.2281
  977loPI   C4A14958  14.070  17.930   7.573 -0.0959  0.0125  0.0218
  977loPI   C5A14959  14.350  18.164   7.907 -0.1022 -0.1809  0.1157
  977loPI   C6A14960  14.600  18.212   8.205  0.3266  0.1678  0.0848
  977loPI   C1B14961  14.516  17.759   6.443  0.3292  0.2345  0.3111
  977loPI   C2B14962  14.583  17.774   6.934 -0.3613  0.1075 -0.0310
  977loPI   C3B14963  14.526  17.730   7.354  0.0802 -0.1095 -0.1149
  977loPI   C4B14964  14.465  17.698   7.796  0.1266 -0.2604 -0.2731
  978loPI    C114965   8.805   0.697   5.921  0.0678 -0.0020 -0.0120
  978loPI    C214966   9.175   0.809   5.821  0.0501 -0.1073 -0.2004
  978loPI    C314967   8.892   0.779   5.540 -0.2130  0.3779  0.0001
  978loPI   PO414968   8.676   0.786   6.101 -0.2612 -0.1687 -0.0449
  978loPI   GL114969   8.623   0.718   6.462  0.1475 -0.0201  0.1394
  978loPI   GL214970   8.388   0.715   6.750  0.4150 -0.2090 -0.0593
  978loPI   C1A14971   8.871   0.604   6.814 -0.1143 -0.2094 -0.0573
  978loPI   C2A14972   8.769   0.507   7.262 -0.0328  0.2724  0.2967
  978loPI   C3A14973   8.860   0.792   7.639 -0.1677 -0.1203  0.1264
  978loPI   C4A14974   8.861   0.881   8.099 -0.0517  0.2367  0.1171
  978loPI   C5A14975   8.792   0.863   8.441  0.1699 -0.2002 -0.0570
  978loPI   C6A14976   8.450   1.074   8.525  0.0798 -0.1689  0.1055
  978loPI   C1B14977   8.464   0.869   7.155 -0.4305  0.1264  0.0114
  978loPI   C2B14978   8.379   0.861   7.645  0.2484 -0.0191 -0.2299
  978loPI   C3B14979   8.398   0.747   8.116 -0.2532  0.0595  0.3368
  978loPI   C4B14980   8.172   0.459   8.315  0.2080 -0.1785  0.0165
  979loPI    C114981  14.061   1.277   5.284  0.0246 -0.0393 -0.0289
  979loPI    C214982  13.999   1.641   5.438 -0.0685 -0.0890  0.0526
  979loPI    C314983  13.779   1.515   5.128  0.0979 -0.0009 -0.1034
  979loPI   PO414984  14.164   1.152   5.570  0.1729 -0.1106  0.3329
  979loPI   GL114985  14.397   1.456   5.857 -0.1055  0.2022 -0.0147
  979loPI   GL214986  14.605   1.612   5.982  0.0279 -0.1083 -0.0076
  979loPI   C1A14987  14.174   1.477   6.316 -0.0930  0.2158  0.1359
  979loPI   C2A14988  14.068   1.435   6.800  0.0029  0.0381  0.3341
  979loPI   C3A14989  13.988   1.561   7.193 -0.0223  0.1678  0.0087
  979loPI   C4A14990  13.651   1.726   7.440 -0.0391 -0.3607 -0.4837
  979loPI   C5A14991  13.589   1.702   7.842 -0.3563 -0.0996  0.2134
  979loPI   C6A14992  13.292   1.704   8.152  0.2532  0.0187 -0.1365
  979loPI   C1B14993  14.535   1.801   6.384  0.2747 -0.1747  0.1854
  979loPI   C2B14994  14.498   1.782   6.779  0.2373  0.1869  0.1277
  979loPI   C3B14995  14.495   1.772   7.199  0.0009 -0.1762 -0.4187
  979loPI   C4B14996  14.473   1.760   7.574  0.3086  0.1591 -0.3803
  980loPI    C114997   8.862   6.089   5.399  0.0254 -0.0410 -0.0349
  980loPI    C214998   8.790   6.436   5.213 -0.1156 -0.0303  0.0381
  980loPI    C314999   8.726   6.090   5.023  0.0668 -0.0168 -0.0499
  980loPI   PO415000   8.802   6.104   5.648 -0.5436 -0.0728  0.1199
  980loPI   GL115001   8.805   5.797   5.977 -0.4034 -0.0213  0.2086
  980loPI   GL215002   9.071   5.670   6.092  0.0456  0.1881 -0.2440
  980loPI   C1A15003   8.827   5.889   6.415 -0.1849  0.0630  0.0821
  980loPI   C2A15004   8.862   6.102   6.752  0.0262  0.2383  0.1575
  980loPI   C3A15005   8.925   6.036   7.156 -0.1274  0.3065 -0.2304
  980loPI   C4A15006   8.905   6.028   7.658 -0.0607 -0.0527 -0.2021
  980loPI   C5A15007   8.988   5.808   8.033 -0.1110  0.2663 -0.0501
  980loPI   C6A15008   9.199   5.497   8.182 -0.0349 -0.3404  0.2756
  980loPI   C1B15009   9.174   5.480   6.443  0.2220  0.1063 -0.0461
  980loPI   C2B15010   9.356   5.354   6.884 -0.0977 -0.1425  0.1133
  980loPI   C3B15011   9.412   5.293   7.347 -0.4132  0.0816  0.2816
  980loPI   C4B15012   9.498   5.169   7.859  0.1431 -0.0794 -0.0357
  981loPI    C115013   9.202  12.326   5.790  0.0949 -0.1487  0.0724
  981loPI    C215014   8.927  12.541   5.595  0.1589 -0.1446 -0.0141
  981loPI    C315015   9.148  12.712   5.881  0.0019 -0.1744  0.1267
  981loPI   PO415016   9.142  12.050   5.827 -0.2284 -0.2697  0.0072
  981loPI   GL115017   8.940  12.040   6.235  0.1010  0.1191  0.1836
  981loPI   GL215018   9.083  11.785   6.493  0.1188  0.1509 -0.2394
  981loPI   C1A15019   9.053  12.254   6.599  0.1750  0.1754  0.0055
  981loPI   C2A15020   9.169  12.184   7.020  0.0155 -0.2891 -0.1109
  981loPI   C3A15021   9.189  12.129   7.467 -0.2084 -0.2301  0.2010
  981loPI   C4A15022   9.101  12.112   7.883 -0.3197 -0.0613 -0.0620
  981loPI   C5A15023   8.781  12.270   8.247  0.2303  0.2341  0.0028
  981loPI   C6A15024   8.391  12.212   8.444  0.0070 -0.1596 -0.1251
  981loPI   C1B15025   9.174  11.629   6.878  0.0878 -0.2372  0.3824
  981loPI   C2B15026   9.000  11.295   7.099 -0.0459  0.0775  0.1565
  981loPI   C3B15027   9.080  11.180   7.528 -0.1107 -0.1958  0.2767
  981loPI   C4B15028   8.835  10.930   7.782 -0.1129 -0.0368  0.0075
  982loPI    C115029   3.799   5.220   5.128 -0.0262 -0.0628  0.1060
  982loPI    C215030   3.434   5.381   5.094  0.0716  0.1071 -0.1719
  982loPI    C315031   3.642   5.286   4.766  0.1632 -0.2564 -0.0134
  982loPI   PO415032   3.753   5.094   5.366 -0.1200 -0.0927  0.0218
  982loPI   GL115033   3.664   5.254   5.846  0.0499  0.1454  0.2500
  982loPI   GL215034   3.910   5.507   5.732 -0.0614 -0.0581  0.2747
  982loPI   C1A15035   3.557   5.111   6.236  0.3139  0.0728 -0.1209
  982loPI   C2A15036   3.541   5.080   6.626  0.1122 -0.4790 -0.2072
  982loPI   C3A15037   3.500   5.026   7.034  0.0793 -0.2079 -0.0998
  982loPI   C4A15038   3.569   5.061   7.503  0.0654 -0.0565 -0.0770
  982loPI   C5A15039   3.573   4.824   7.895 -0.1574  0.0289 -0.1942
  982loPI   C6A15040   3.617   4.976   8.290 -0.1710 -0.1970  0.0105
  982loPI   C1B15041   3.828   5.558   6.202  0.1571  0.0596 -0.0126
  982loPI   C2B15042   3.764   5.524   6.603 -0.2264  0.0623 -0.0876
  982loPI   C3B15043   3.679   5.501   7.052  0.0280 -0.1549  0.0175
  982loPI   C4B15044   3.735   5.520   7.474 -0.0776 -0.0497  0.2251
  983loPI    C115045   6.830   7.253   5.047 -0.0147 -0.1134 -0.0492
  983loPI    C215046   6.451   7.312   4.933  0.0082 -0.0331 -0.0845
  983loPI    C315047   6.716   7.161   4.674  0.0638  0.1638 -0.1441
  983loPI   PO415048   6.818   7.278   5.313 -0.2973  0.1316 -0.0324
  983loPI   GL115049   6.691   7.129   5.727 -0.3740 -0.1134 -0.0963
  983loPI   GL215050   6.424   6.883   5.731 -0.0582 -0.1091 -0.1018
  983loPI   C1A15051   6.712   7.365   6.128  0.1140 -0.1698 -0.2292
  983loPI   C2A15052   6.636   7.481   6.511 -0.4085  0.0254  0.3728
  983loPI   C3A15053   6.589   7.689   6.913  0.0792 -0.2375 -0.0671
  983loPI   C4A15054   6.462   7.815   7.366 -0.0097 -0.0831 -0.2193
  983loPI   C5A15055   6.531   7.977   7.747  0.2407 -0.1274 -0.0327
  983loPI   C6A15056   6.681   8.110   8.090 -0.0097  0.0865 -0.2499
  983loPI   C1B15057   6.463   6.886   6.134  0.1069  0.0833 -0.0894
  983loPI   C2B15058   6.397   7.042   6.508 -0.1424 -0.0849 -0.0423
  983loPI   C3B15059   6.498   7.102   6.904  0.2351  0.0979 -0.1056
  983loPI   C4B15060   6.296   7.378   7.222 -0.0756 -0.0369  0.1767
  984loPI    C115061  15.747   9.415   4.981  0.0980 -0.0465 -0.1911
  984loPI    C215062  15.367   9.510   4.899 -0.0526 -0.1779  0.3198
  984loPI    C315063  15.651   9.791   4.884 -0.1998 -0.0376  0.1179
  984loPI   PO415064  15.708   9.351   5.281 -0.1417  0.0950  0.1086
  984loPI   GL115065  15.473   9.425   5.647 -0.1596 -0.0444 -0.0202
  984loPI   GL215066  15.540   9.494   5.874 -0.1257  0.2130  0.1927
  984loPI   C1A15067  15.533   9.042   6.058  0.0025  0.0751  0.1090
  984loPI   C2A15068  15.269   8.760   6.278 -0.2091  0.1253  0.2073
  984loPI   C3A15069  15.129   8.709   6.657  0.1810 -0.2813 -0.3619
  984loPI   C4A15070  15.102   8.675   7.051 -0.0922  0.0965 -0.1389
  984loPI   C5A15071  14.930   8.440   7.415 -0.2376 -0.0381  0.0574
  984loPI   C6A15072  14.770   8.109   7.652 -0.1334  0.0454 -0.2925
  984loPI   C1B15073  15.599   9.458   6.363  0.1422 -0.2018 -0.2609
  984loPI   C2B15074  15.590   9.389   6.850 -0.0506 -0.2519  0.2358
  984loPI   C3B15075  15.614   9.350   7.371 -0.1002  0.2168 -0.0036
  984loPI   C4B15076  15.414   9.321   7.703  0.0109 -0.0493  0.1104
  985loPI    C115077   7.530   7.672   5.565  0.1830  0.2963 -0.0907
  985loPI    C215078   7.486   7.811   5.192 -0.0453  0.1732 -0.1110
  985loPI    C315079   7.174   7.649   5.384  0.0462  0.3257  0.1712
  985loPI   PO415080   7.724   7.424   5.597  0.1554 -0.1154  0.0795
  985loPI   GL115081   8.050   7.328   5.835  0.2505  0.1419 -0.0212
  985loPI   GL215082   7.939   7.037   5.856 -0.0410  0.1564 -0.2374
  985loPI   C1A15083   8.062   7.389   6.230 -0.0060 -0.1115  0.1992
  985loPI   C2A15084   8.403   7.223   6.519  0.2218 -0.2699 -0.2341
  985loPI   C3A15085   8.533   7.107   6.942 -0.2324  0.1650 -0.0885
  985loPI   C4A15086   8.714   7.006   7.299  0.2922 -0.1184  0.0039
  985loPI   C5A15087   8.699   7.060   7.829 -0.0566  0.2843  0.2764
  985loPI   C6A15088   8.323   7.101   8.159 -0.0811 -0.2642 -0.1679
  985loPI   C1B15089   7.819   6.932   6.263  0.2486  0.0134  0.1443
  985loPI   C2B15090   7.666   6.648   6.739  0.1629  0.3440 -0.3413
  985loPI   C3B15091   7.824   6.641   7.137  0.2870  0.2292 -0.0550
  985loPI   C4B15092   7.944   6.459   7.547 -0.2193 -0.1852 -0.1158
  986loPI    C115093  11.134   3.861   5.313  0.1460 -0.1258  0.0103
  986loPI    C215094  11.260   3.658   5.634  0.1072 -0.1160  0.0317
  986loPI    C315095  10.993   3.493   5.386 -0.1669  0.0316  0.2218
  986loPI   PO415096  11.325   4.109   5.396  0.1423  0.3286  0.2409
  986loPI   GL115097  11.336   4.231   5.847  0.1493  0.2471  0.2308
  986loPI   GL215098  11.325   4.510   6.004 -0.0784  0.0687 -0.0437
  986loPI   C1A15099  11.313   3.957   6.144  0.1019  0.0214  0.3143
  986loPI   C2A15100  11.240   3.815   6.610 -0.0868 -0.1398 -0.1326
  986loPI   C3A15101  11.320   3.945   7.011  0.0851  0.1270 -0.2962
  986loPI   C4A15102  11.187   3.774   7.347 -0.1918  0.4993 -0.4884
  986loPI   C5A15103  11.208   3.590   7.802  0.3154 -0.0201  0.0116
  986loPI   C6A15104  11.518   3.254   7.886 -0.0628 -0.0461 -0.0362
  986loPI   C1B15105  11.311   4.437   6.430  0.2630 -0.1576  0.0795
  986loPI   C2B15106  11.213   4.415   6.893  0.1843  0.1642  0.0182
  986loPI   C3B15107  11.239   4.297   7.337  0.2947  0.2819 -0.0184
  986loPI   C4B15108  11.440   4.047   7.650 -0.0408 -0.1392  0.0896
  987loPI    C115109   6.090   3.199   5.546  0.2641 -0.1753 -0.0377
  987loPI    C215110   6.080   2.896   5.285 -0.0530 -0.0923 -0.1259
  987loPI    C315111   6.006   3.270   5.162 -0.1817 -0.0495  0.0773
  987loPI   PO415112   6.039   3.137   5.737  0.1330  0.1774  0.1281
  987loPI   GL115113   5.878   3.129   6.066  0.0205  0.1075 -0.1716
  987loPI   GL215114   5.918   2.826   6.152 -0.2516  0.1589 -0.2410
  987loPI   C1A15115   5.705   3.301   6.476 -0.1567 -0.2775 -0.0883
  987loPI   C2A15116   5.656   3.382   6.849  0.1349 -0.2239 -0.0655
  987loPI   C3A15117   5.608   3.327   7.347  0.1854 -0.0483 -0.2416
  987loPI   C4A15118   5.645   3.475   7.771  0.1859 -0.1258 -0.0511
  987loPI   C5A15119   5.910   3.180   8.115  0.0558  0.1461 -0.2378
  987loPI   C6A15120   6.275   3.300   8.384  0.1392 -0.0607  0.2297
  987loPI   C1B15121   5.951   2.892   6.556  0.0017  0.1524  0.1531
  987loPI   C2B15122   5.938   2.992   6.929 -0.1156 -0.0293 -0.1067
  987loPI   C3B15123   5.917   2.855   7.284  0.0250 -0.1721 -0.2781
  987loPI   C4B15124   5.787   2.884   7.681  0.1136 -0.0439 -0.2737
  988loPI    C115125  17.418   7.426   5.174  0.2601  0.0369  0.1659
  988loPI    C215126  17.125   7.634   5.000  0.1185 -0.3582 -0.0817
  988loPI    C315127  17.491   7.633   4.840  0.1289 -0.2731 -0.0590
  988loPI   PO415128  17.216   7.360   5.387 -0.0231 -0.1309 -0.0657
  988loPI   GL115129  16.986   7.415   5.783  0.1026  0.0292  0.1017
  988loPI   GL215130  17.136   7.180   5.941 -0.1164  0.1811 -0.0642
  988loPI   C1A15131  16.742   7.596   6.104 -0.1180 -0.4044  0.2518
  988loPI   C2A15132  16.509   7.422   6.539  0.0802 -0.0789  0.0787
  988loPI   C3A15133  16.507   7.280   6.819  0.1013 -0.0217  0.0650
  988loPI   C4A15134  16.626   7.379   7.207  0.0547 -0.0964 -0.0034
  988loPI   C5A15135  16.695   7.465   7.665  0.1877 -0.1464  0.2340
  988loPI   C6A15136  16.759   7.656   7.956  0.0257 -0.0109 -0.3008
  988loPI   C1B15137  16.982   7.214   6.363 -0.0599  0.3528 -0.0904
  988loPI   C2B15138  16.932   7.557   6.750  0.1400 -0.2503  0.3087
  988loPI   C3B15139  17.064   7.663   7.138  0.1224  0.1564 -0.0814
  988loPI   C4B15140  17.086   7.702   7.511 -0.1191 -0.0875 -0.1953
  989loPI    C115141   7.573  17.418   5.958 -0.0655 -0.2465 -0.0044
  989loPI    C215142   7.237  17.202   5.936 -0.1113 -0.1551 -0.2197
  989loPI    C315143   7.415  17.331   5.601  0.1422 -0.2076 -0.1076
  989loPI   PO415144   7.723  17.242   6.090  0.3058  0.2054  0.0671
  989loPI   GL115145   7.819  17.172   6.504  0.1412 -0.0816  0.0692
  989loPI   GL215146   8.092  16.998   6.369  0.1651 -0.1289  0.1346
  989loPI   C1A15147   8.024  17.009   6.906  0.1040  0.0978 -0.0979
  989loPI   C2A15148   7.989  17.018   7.365 -0.0785 -0.2337  0.0522
  989loPI   C3A15149   7.990  16.814   7.791  0.1592 -0.0172 -0.1583
  989loPI   C4A15150   8.058  16.553   8.116 -0.0885 -0.2383 -0.0704
  989loPI   C5A15151   7.767  16.237   8.236 -0.0866 -0.0249 -0.0890
  989loPI   C6A15152   7.814  15.803   8.333  0.1130  0.1538  0.1632
  989loPI   C1B15153   7.942  16.572   6.618  0.0074 -0.0293  0.1323
  989loPI   C2B15154   7.987  16.483   7.045 -0.1610 -0.1046 -0.0778
  989loPI   C3B15155   8.101  16.513   7.382  0.1811 -0.1859 -0.2211
  989loPI   C4B15156   8.182  16.201   7.778 -0.1080 -0.0502 -0.1833
  990loPI    C115157  12.502   6.147   5.540 -0.1828 -0.1652  0.2670
  990loPI    C215158  12.448   5.944   5.200  0.1794  0.1037  0.0412
  990loPI    C315159  12.180   5.914   5.495 -0.1020 -0.1915 -0.2352
  990loPI   PO415160  12.770   6.104   5.637  0.2278 -0.0585 -0.0311
  990loPI   GL115161  12.937   6.248   6.079 -0.1595 -0.0133  0.0725
  990loPI   GL215162  13.221   6.189   5.894  0.1005 -0.1523 -0.3934
  990loPI   C1A15163  12.978   6.208   6.479  0.1919  0.0294 -0.0500
  990loPI   C2A15164  12.970   6.171   6.933 -0.3282  0.1266 -0.1431
  990loPI   C3A15165  13.018   6.122   7.303 -0.1754 -0.0204  0.0539
  990loPI   C4A15166  13.108   6.047   7.760 -0.0357 -0.1924  0.1220
  990loPI   C5A15167  12.974   5.940   8.230 -0.2233  0.0681 -0.2069
  990loPI   C6A15168  12.938   6.196   8.615 -0.1015 -0.0372 -0.1730
  990loPI   C1B15169  13.397   6.082   6.302  0.0551  0.0833  0.2257
  990loPI   C2B15170  13.391   6.000   6.763 -0.2443  0.0291  0.0134
  990loPI   C3B15171  13.488   5.912   7.248  0.1826  0.0349  0.1068
  990loPI   C4B15172  13.516   5.789   7.696 -0.2087  0.0663 -0.0924
  991loPI    C115173  12.662  15.897   5.647 -0.3643  0.1766 -0.0266
  991loPI    C215174  12.790  15.732   5.307 -0.2329 -0.0774  0.1429
  991loPI    C315175  12.702  16.121   5.319  0.1232  0.0154 -0.0862
  991loPI   PO415176  12.535  15.662   5.811  0.1042 -0.0134  0.2719
  991loPI   GL115177  12.533  15.314   6.109 -0.2548  0.0761  0.0793
  991loPI   GL215178  12.737  15.609   6.319 -0.1042 -0.2505  0.1606
  991loPI   C1A15179  12.578  15.133   6.442 -0.2066 -0.0410  0.3778
  991loPI   C2A15180  12.584  15.102   6.827 -0.0786 -0.2913 -0.4172
  991loPI   C3A15181  12.540  15.023   7.272  0.2460 -0.0912 -0.0100
  991loPI   C4A15182  12.502  15.000   7.698  0.0565  0.2563 -0.2109
  991loPI   C5A15183  12.264  14.997   8.144 -0.1954  0.0708  0.0663
  991loPI   C6A15184  12.075  15.181   8.500  0.0358 -0.2136 -0.0201
  991loPI   C1B15185  12.593  15.595   6.747 -0.0515 -0.0159 -0.0363
  991loPI   C2B15186  12.550  15.586   7.158 -0.2406 -0.2820 -0.0452
  991loPI   C3B15187  12.497  15.550   7.610  0.2272  0.0500 -0.2474
  991loPI   C4B15188  12.459  15.501   8.029  0.1230 -0.0166  0.1587
  992loPI    C115189  12.366   0.672   5.296  0.1829  0.2917 -0.1612
  992loPI    C215190  12.110   0.552   5.013  0.1549  0.1384 -0.0719
  992loPI    C315191  12.151   0.942   5.093 -0.0478  0.1647 -0.0894
  992loPI   PO415192  12.332   0.499   5.555 -0.1390  0.5252  0.1238
  992loPI   GL115193  12.118   0.424   5.936  0.0385 -0.0467 -0.0811
  992loPI   GL215194  12.162   0.006   6.138  0.1250 -0.2831  0.0107
  992loPI   C1A15195  12.123   0.499   6.312 -0.1757 -0.0801 -0.0100
  992loPI   C2A15196  12.086   0.567   6.731 -0.2079  0.2509 -0.2222
  992loPI   C3A15197  11.969   0.843   7.216  0.1769  0.2773  0.0589
  992loPI   C4A15198  12.257   1.115   7.474 -0.0063 -0.0785  0.2634
  992loPI   C5A15199  12.609   1.378   7.577 -0.1048  0.2363  0.0304
  992loPI   C6A15200  12.495   1.678   7.858 -0.0890 -0.0863  0.1642
  992loPI   C1B15201  12.252   0.072   6.540  0.1946 -0.1144 -0.1671
  992loPI   C2B15202  12.252   0.119   7.003  0.2082 -0.2857  0.1235
  992loPI   C3B15203  12.222   0.252   7.417  0.2433 -0.0173 -0.1243
  992loPI   C4B15204  12.433   0.552   7.433  0.2331 -0.1959  0.0940
  993loPI    C115205  10.342  16.362   5.640  0.0942 -0.2585  0.0594
  993loPI    C215206   9.991  16.517   5.526  0.0905 -0.1704  0.1874
  993loPI    C315207  10.164  16.230   5.307  0.0572 -0.0437 -0.0076
  993loPI   PO415208  10.242  16.291   5.842  0.0618  0.1357 -0.0575
  993loPI   GL115209  10.059  16.492   6.164  0.0848  0.1384  0.2183
  993loPI   GL215210  10.072  16.826   6.131 -0.0293  0.1698 -0.0082
  993loPI   C1A15211  10.207  16.305   6.546 -0.2347 -0.0317 -0.1429
  993loPI   C2A15212  10.235  16.274   6.988  0.2088  0.0559  0.0631
  993loPI   C3A15213  10.356  16.281   7.479 -0.5143 -0.1756  0.2959
  993loPI   C4A15214  10.374  16.393   7.877  0.0583  0.1661 -0.1144
  993loPI   C5A15215  10.527  16.571   8.262 -0.3359  0.2404  0.0368
  993loPI   C6A15216  10.670  16.693   8.694  0.4280 -0.2668  0.1017
  993loPI   C1B15217  10.178  16.757   6.633 -0.4505  0.0108 -0.0847
  993loPI   C2B15218  10.318  16.720   7.006  0.0154 -0.2790  0.0773
  993loPI   C3B15219  10.396  16.821   7.514  0.2984 -0.0539 -0.1293
  993loPI   C4B15220  10.397  16.996   7.890  0.1527 -0.0864  0.0768
  994loPI    C115221   6.426  12.570   5.610  0.0357  0.1648  0.0678
  994loPI    C215222   6.195  12.803   5.382 -0.1947  0.1051  0.2360
  994loPI    C315223   6.583  12.887   5.424 -0.2177  0.2997  0.0780
  994loPI   PO415224   6.274  12.476   5.825  0.1045 -0.0080 -0.1385
  994loPI   GL115225   6.070  12.312   6.202 -0.1990  0.0924  0.1951
  994loPI   GL215226   6.045  11.918   6.159  0.0481 -0.0540  0.2430
  994loPI   C1A15227   5.953  12.284   6.611  0.0572 -0.1650  0.1631
  994loPI   C2A15228   5.932  12.232   7.014  0.0390  0.1792  0.2520
  994loPI   C3A15229   6.038  12.036   7.263 -0.0223  0.0231 -0.0894
  994loPI   C4A15230   6.134  11.842   7.604  0.0703  0.2175  0.0402
  994loPI   C5A15231   6.263  11.646   7.955  0.0220  0.2510  0.1268
  994loPI   C6A15232   6.097  11.554   8.369 -0.1401 -0.3624  0.1187
  994loPI   C1B15233   5.818  11.834   6.448  0.0865 -0.1887 -0.1304
  994loPI   C2B15234   5.741  11.712   6.910 -0.2500 -0.1836  0.1222
  994loPI   C3B15235   5.803  11.607   7.290 -0.0558 -0.0099  0.3436
  994loPI   C4B15236   5.751  11.560   7.636 -0.0849  0.1901  0.0314
  995loPI    C115237   7.414   8.826   5.275  0.0732 -0.1261 -0.0482
  995loPI    C215238   7.753   8.914   5.083 -0.0380  0.0525 -0.1660
  995loPI    C315239   7.408   8.901   4.882 -0.0879 -0.2284 -0.0662
  995loPI   PO415240   7.485   8.670   5.505 -0.1420  0.0129 -0.0364
  995loPI   GL115241   7.235   8.535   5.829 -0.4802 -0.1590  0.0074
  995loPI   GL215242   7.531   8.381   5.960 -0.2211  0.0509  0.0854
  995loPI   C1A15243   7.029   8.340   6.110  0.3156 -0.0150 -0.2047
  995loPI   C2A15244   7.078   8.373   6.528 -0.1725 -0.0804 -0.0752
  995loPI   C3A15245   7.193   8.484   6.915 -0.2424  0.0896  0.0322
  995loPI   C4A15246   7.189   8.354   7.420  0.2022 -0.2096  0.2737
  995loPI   C5A15247   7.199   8.025   7.813  0.3164  0.0467 -0.0580
  995loPI   C6A15248   7.179   7.616   7.681 -0.0101  0.0790 -0.0566
  995loPI   C1B15249   7.386   8.043   6.116  0.0491  0.0910  0.1934
  995loPI   C2B15250   7.142   7.881   6.448 -0.0775 -0.1270  0.1188
  995loPI   C3B15251   7.046   7.858   6.856  0.1719  0.1042  0.0598
  995loPI   C4B15252   7.015   7.900   7.310 -0.0852 -0.3246  0.1790
  996loPI    C115253  15.987   5.360   4.963 -0.0775  0.2631 -0.0599
  996loPI    C215254  15.752   5.213   4.675  0.0091 -0.0613  0.0312
  996loPI    C315255  16.049   5.464   4.582 -0.0745 -0.0241 -0.1395
  996loPI   PO415256  16.110   5.260   5.167  0.0976 -0.0391 -0.1852
  996loPI   GL115257  16.065   5.086   5.550 -0.0831  0.2803 -0.2049
  996loPI   GL215258  15.751   5.377   5.625  0.0294 -0.0606 -0.1920
  996loPI   C1A15259  16.154   4.952   5.967  0.1653 -0.0786 -0.1861
  996loPI   C2A15260  16.261   4.980   6.415  0.0761  0.0923  0.1609
  996loPI   C3A15261  16.126   4.893   6.806 -0.0418 -0.0217  0.1133
  996loPI   C4A15262  16.158   4.984   7.194 -0.2752  0.1388  0.1185
  996loPI   C5A15263  16.012   4.969   7.637  0.2049 -0.1701 -0.0243
  996loPI   C6A15264  16.158   5.029   7.962  0.0833  0.4316  0.1218
  996loPI   C1B15265  15.850   5.331   6.096  0.1373  0.1957  0.1785
  996loPI   C2B15266  15.870   5.237   6.557 -0.0996 -0.1115  0.2442
  996loPI   C3B15267  15.630   5.179   6.792 -0.0352 -0.1075 -0.0569
  996loPI   C4B15268  15.491   5.418   7.089 -0.1863  0.0255 -0.0690
  997loPI    C115269  17.155   8.831   5.231 -0.0104 -0.0445 -0.0195
  997loPI    C215270  16.786   8.952   5.134  0.1327  0.3177 -0.1289
  997loPI    C315271  17.044   8.846   4.847  0.1570  0.1876 -0.0603
  997loPI   PO415272  17.057   8.808   5.511 -0.1801 -0.2389  0.0623
  997loPI   GL115273  17.052   8.471   5.768 -0.0498 -0.1263  0.0202
  997loPI   GL215274  17.219   8.206   5.713 -0.2830 -0.2884  0.1319
  997loPI   C1A15275  17.166   8.523   6.162  0.0205  0.1148 -0.2193
  997loPI   C2A15276  17.263   8.423   6.551  0.1185 -0.2557 -0.1170
  997loPI   C3A15277  17.338   8.446   6.958  0.6757  0.2570  0.1769
  997loPI   C4A15278  17.629   8.484   7.246  0.2553 -0.2430  0.0462
  997loPI   C5A15279  17.821   8.293   7.661  0.1237 -0.2592  0.0257
  997loPI   C6A15280  17.670   8.018   8.114  0.3291  0.2266 -0.1822
  997loPI   C1B15281  17.534   8.156   6.032 -0.2260  0.1048 -0.2098
  997loPI   C2B15282  17.502   7.940   6.368  0.1114 -0.0671 -0.4223
  997loPI   C3B15283  17.346   7.969   6.802  0.0291 -0.1042 -0.2017
  997loPI   C4B15284  17.559   7.973   7.263  0.4710 -0.2423  0.1029
  998loPI    C115285   1.654  10.190   5.384  0.1088 -0.0879 -0.0647
  998loPI    C215286   1.347  10.445   5.411 -0.0688 -0.3066  0.0237
  998loPI    C315287   1.610  10.479   5.112  0.0448  0.1220  0.1647
  998loPI   PO415288   1.685  10.165   5.611 -0.2462 -0.1712  0.1327
  998loPI   GL115289   1.534  10.380   5.886  0.1428 -0.1153  0.1276
  998loPI   GL215290   1.230  10.153   5.835 -0.1379  0.2108  0.0098
  998loPI   C1A15291   1.746  10.299   6.250 -0.1535  0.1363  0.0055
  998loPI   C2A15292   1.812  10.180   6.713 -0.0242  0.0955  0.0230
  998loPI   C3A15293   1.646  10.124   7.151 -0.2337  0.2275 -0.2110
  998loPI   C4A15294   1.581  10.050   7.596 -0.1535  0.0130 -0.0633
  998loPI   C5A15295   1.370   9.723   7.856 -0.0137  0.0217 -0.1879
  998loPI   C6A15296   1.001   9.681   8.004 -0.0211 -0.1989 -0.0493
  998loPI   C1B15297   1.208   9.954   6.281 -0.4588  0.0086  0.1272
  998loPI   C2B15298   1.383   9.906   6.699 -0.2940 -0.1598  0.1180
  998loPI   C3B15299   1.170   9.876   6.980  0.1801 -0.2437  0.3086
  998loPI   C4B15300   1.134   9.906   7.417 -0.3189 -0.0813 -0.2797
  999loPI    C115301  11.028   2.369   5.292  0.2432  0.1787 -0.1019
  999loPI    C215302  10.853   2.529   4.970  0.0034  0.0392 -0.0434
  999loPI    C315303  11.109   2.225   4.928 -0.2509 -0.1734 -0.0835
  999loPI   PO415304  11.118   2.539   5.436  0.4293 -0.1304 -0.1759
  999loPI   GL115305  11.266   2.756   5.809  0.0006 -0.1099  0.2701
  999loPI   GL215306  11.213   3.031   5.668 -0.1756  0.0124  0.1096
  999loPI   C1A15307  11.347   2.867   6.250  0.0084  0.0656  0.0698
  999loPI   C2A15308  11.293   2.861   6.666 -0.1398 -0.0874  0.0693
  999loPI   C3A15309  11.234   2.795   7.041  0.2571  0.2617 -0.0686
  999loPI   C4A15310  11.428   2.789   7.404 -0.1887 -0.0776  0.3853
  999loPI   C5A15311  11.619   2.749   7.827 -0.1465  0.0637 -0.0760
  999loPI   C6A15312  11.505   2.708   8.235  0.0180 -0.1534 -0.4402
  999loPI   C1B15313  11.252   3.389   6.038  0.0469  0.1089 -0.0426
  999loPI   C2B15314  11.319   3.330   6.482 -0.2355 -0.3015 -0.1081
  999loPI   C3B15315  11.215   3.344   6.907 -0.0796  0.0251  0.1302
  999loPI   C4B15316  11.263   3.259   7.273  0.2105  0.4289 -0.0888
 1000loPI    C115317  15.799  15.507   5.343 -0.0673  0.1983 -0.0372
 1000loPI    C215318  15.430  15.534   5.192 -0.1220  0.0656  0.0708
 1000loPI    C315319  15.747  15.570   4.951 -0.2032  0.2836 -0.0062
 1000loPI   PO415320  15.762  15.328   5.536  0.2613 -0.0364 -0.1193
 1000loPI   GL115321  15.790  15.374   5.962  0.1719  0.0874  0.1236
 1000loPI   GL215322  15.753  15.127   6.216  0.0931  0.1145 -0.0102
 1000loPI   C1A15323  15.999  15.651   6.288  0.3528 -0.0150 -0.1040
 1000loPI   C2A15324  15.970  15.796   6.741  0.0707 -0.2417  0.1847
 1000loPI   C3A15325  15.975  15.868   7.125 -0.0413  0.0074 -0.1465
 1000loPI   C4A15326  16.122  15.784   7.558  0.2704 -0.0254 -0.0131
 1000loPI   C5A15327  16.146  15.622   7.989 -0.1923 -0.2631  0.1033
 1000loPI   C6A15328  16.360  15.509   8.361  0.0433 -0.0627  0.0984
 1000loPI   C1B15329  15.787  15.282   6.641  0.1465  0.4519 -0.1617
 1000loPI   C2B15330  15.734  15.239   7.013 -0.2445  0.0296  0.1173
 1000loPI   C3B15331  15.771  15.349   7.372 -0.1615  0.1053  0.1074
 1000loPI   C4B15332  15.724  15.183   7.744  0.2184 -0.2743 -0.1143
 1001loPI    C115333   6.059   0.406   5.897 -0.0889 -0.2094 -0.1096
 1001loPI    C215334   5.769   0.211   5.703 -0.1453  0.0291 -0.2690
 1001loPI    C315335   5.959   0.515   5.526 -0.0761  0.1368 -0.0149
 1001loPI   PO415336   6.332   0.160   6.046 -0.1666 -0.3294 -0.0569
 1001loPI   GL115337   6.187  -0.152   6.383 -0.2147  0.0394  0.0665
 1001loPI   GL215338   6.243  -0.443   6.390  0.1879  0.1291  0.3905
 1001loPI   C1A15339   6.504   0.039   6.756  0.0321 -0.1003  0.3276
 1001loPI   C2A15340   6.406   0.200   7.149  0.0369 -0.2961 -0.0878
 1001loPI   C3A15341   6.445   0.127   7.539  0.0398 -0.0927 -0.1293
 1001loPI   C4A15342   6.511  -0.171   7.882 -0.3608 -0.3646  0.0088
 1001loPI   C5A15343   6.710  -0.374   8.200  0.0544 -0.2894  0.1907
 1001loPI   C6A15344   7.024  -0.654   8.255 -0.1300  0.0756  0.1408
 1001loPI   C1B15345   6.150  -0.407   6.821  0.0914  0.0393 -0.0586
 1001loPI   C2B15346   6.179  -0.356   7.202  0.0480  0.1397  0.0617
 1001loPI   C3B15347   6.097  -0.372   7.582 -0.3569  0.1522 -0.0371
 1001loPI   C4B15348   6.083  -0.417   8.072  0.1650 -0.0889  0.0462
 1002loPI    C115349  17.947  16.235   5.199  0.0097  0.2199  0.2089
 1002loPI    C215350  18.251  16.268   4.941  0.0224  0.1675  0.2169
 1002loPI    C315351  17.957  16.539   4.939  0.0013  0.1445  0.1198
 1002loPI   PO415352  18.067  16.069   5.392  0.0423 -0.2248  0.0008
 1002loPI   GL115353  18.092  16.080   5.819 -0.0114  0.0971 -0.1671
 1002loPI   GL215354  18.222  15.890   6.021 -0.0352 -0.0115  0.0351
 1002loPI   C1A15355  18.061  16.388   6.269 -0.0897  0.2339  0.0476
 1002loPI   C2A15356  18.093  16.258   6.688  0.0088 -0.2071 -0.4077
 1002loPI   C3A15357  17.954  16.114   7.111 -0.1735 -0.0339  0.0626
 1002loPI   C4A15358  18.248  15.823   7.461  0.0541  0.0959 -0.2785
 1002loPI   C5A15359  18.194  15.650   7.915  0.0834 -0.0426  0.0807
 1002loPI   C6A15360  17.998  15.302   8.228 -0.1188  0.0177 -0.1453
 1002loPI   C1B15361  18.234  15.875   6.484 -0.1262 -0.0040  0.3309
 1002loPI   C2B15362  18.403  15.943   6.955 -0.0519 -0.2744 -0.0073
 1002loPI   C3B15363  18.329  16.352   7.367  0.1703 -0.0983 -0.1957
 1002loPI   C4B15364  18.486  16.329   7.702  0.1329 -0.0627  0.1104
 1003loPI    C115365   1.406   4.717   4.928 -0.1317 -0.2194  0.0087
 1003loPI    C215366   1.769   4.755   4.763  0.0222  0.0045  0.3861
 1003loPI    C315367   1.608   4.392   4.812  0.2522 -0.1059  0.3363
 1003loPI   PO415368   1.392   4.845   5.164  0.1536  0.2795 -0.0462
 1003loPI   GL115369   1.530   4.779   5.503 -0.3151 -0.0765  0.2305
 1003loPI   GL215370   1.744   4.474   5.666  0.3737  0.1176 -0.4072
 1003loPI   C1A15371   1.672   4.931   5.787  0.0114 -0.4410 -0.1081
 1003loPI   C2A15372   1.481   4.984   6.122  0.1204  0.1658  0.1932
 1003loPI   C3A15373   1.472   4.905   6.526 -0.0172  0.1413 -0.0503
 1003loPI   C4A15374   1.414   4.676   6.928  0.0238  0.1086  0.1785
 1003loPI   C5A15375   1.292   4.540   7.395 -0.1124  0.2499 -0.0812
 1003loPI   C6A15376   1.268   4.502   7.854  0.2717 -0.1613  0.0419
 1003loPI   C1B15377   1.866   4.521   6.047 -0.0698  0.0147 -0.0627
 1003loPI   C2B15378   1.866   4.483   6.465  0.1039 -0.1710  0.0663
 1003loPI   C3B15379   1.837   4.369   6.977 -0.1488 -0.0025 -0.2260
 1003loPI   C4B15380   1.782   4.298   7.403  0.1792  0.0835 -0.0562
 1004loPI    C115381  16.626  12.160   5.577 -0.0251 -0.0471  0.0702
 1004loPI    C215382  16.830  12.293   5.260  0.0261 -0.3011 -0.0051
 1004loPI    C315383  16.441  12.205   5.225 -0.0942  0.1488  0.1296
 1004loPI   PO415384  16.617  12.335   5.842  0.0913  0.0282  0.2838
 1004loPI   GL115385  16.898  12.516   6.132  0.1796 -0.1364 -0.0299
 1004loPI   GL215386  16.937  12.818   6.169  0.2707  0.0035  0.1197
 1004loPI   C1A15387  17.042  12.383   6.550  0.0229  0.3647  0.0632
 1004loPI   C2A15388  17.111  12.297   6.961  0.0095  0.3500 -0.0984
 1004loPI   C3A15389  17.111  12.299   7.411  0.0390  0.0133 -0.1395
 1004loPI   C4A15390  16.852  12.505   7.804  0.0228  0.2346  0.0197
 1004loPI   C5A15391  16.918  12.726   8.264  0.2731 -0.0965 -0.0736
 1004loPI   C6A15392  16.844  13.057   8.590 -0.0242 -0.1012 -0.1369
 1004loPI   C1B15393  17.083  12.874   6.534 -0.1978 -0.4241  0.4306
 1004loPI   C2B15394  17.120  12.791   6.946 -0.3540  0.0449 -0.1007
 1004loPI   C3B15395  17.101  12.823   7.371  0.0863 -0.2418 -0.2286
 1004loPI   C4B15396  17.230  12.805   7.815 -0.1582  0.1108 -0.2499
 1005loPI    C115397   8.275  13.239   5.780  0.0063 -0.1053 -0.1736
 1005loPI    C215398   8.476  13.585   5.783  0.1250 -0.1737 -0.1905
 1005loPI    C315399   8.439  13.378   5.443  0.0250 -0.1612 -0.1875
 1005loPI   PO415400   8.069  13.269   5.885  0.2846  0.3582  0.3291
 1005loPI   GL115401   7.866  13.270   6.224 -0.2380  0.1936 -0.0213
 1005loPI   GL215402   7.796  13.005   6.218  0.2122 -0.0602 -0.3027
 1005loPI   C1A15403   8.066  13.404   6.632  0.0049 -0.1563 -0.0162
 1005loPI   C2A15404   8.009  13.538   7.097 -0.1174 -0.1195 -0.2080
 1005loPI   C3A15405   8.143  13.643   7.603 -0.3244  0.1754  0.0671
 1005loPI   C4A15406   8.152  13.763   7.988 -0.0214  0.0887 -0.1261
 1005loPI   C5A15407   8.117  13.584   8.421 -0.1137  0.0823 -0.1165
 1005loPI   C6A15408   8.337  13.505   8.761  0.2666  0.0742 -0.3470
 1005loPI   C1B15409   7.623  13.101   6.766  0.0550  0.1340 -0.0321
 1005loPI   C2B15410   7.715  13.157   7.154 -0.1981  0.0727 -0.0139
 1005loPI   C3B15411   7.875  13.231   7.608  0.1642  0.2362 -0.0796
 1005loPI   C4B15412   7.809  13.391   8.018  0.0333  0.0277  0.3795
 1006loPI    C115413   9.453  16.237   5.653  0.2496  0.1108 -0.0201
 1006loPI    C215414   9.648  16.236   5.304 -0.0606 -0.2967 -0.2001
 1006loPI    C315415   9.269  16.364   5.322  0.0149 -0.0985  0.0270
 1006loPI   PO415416   9.610  16.358   5.824 -0.0869  0.0674  0.0583
 1006loPI   GL115417   9.549  16.644   6.142 -0.1545  0.1754 -0.1849
 1006loPI   GL215418   9.386  16.968   6.297  0.1226 -0.0840 -0.0240
 1006loPI   C1A15419   9.653  16.543   6.560 -0.1170  0.1828  0.0186
 1006loPI   C2A15420   9.831  16.582   6.961  0.0760  0.0607  0.2420
 1006loPI   C3A15421   9.916  16.605   7.371 -0.0104 -0.0751 -0.1167
 1006loPI   C4A15422   9.997  16.662   7.790  0.1128  0.0624 -0.0167
 1006loPI   C5A15423   9.994  16.800   8.186 -0.0364  0.1003 -0.0594
 1006loPI   C6A15424  10.103  16.907   8.665 -0.1045  0.2505  0.3434
 1006loPI   C1B15425   9.389  16.913   6.754  0.1010 -0.1648 -0.0063
 1006loPI   C2B15426   9.482  16.879   7.180  0.0475 -0.0077 -0.2094
 1006loPI   C3B15427   9.520  16.943   7.630 -0.0115  0.0784 -0.1561
 1006loPI   C4B15428   9.664  17.173   7.961 -0.2673  0.0895 -0.1760
 1007loPI    C115429   0.879  12.862   5.420  0.0889  0.1442 -0.3593
 1007loPI    C215430   0.491  12.845   5.324  0.0355  0.0666 -0.1373
 1007loPI    C315431   0.736  12.546   5.220 -0.0476 -0.0777  0.0760
 1007loPI   PO415432   0.885  12.894   5.673 -0.2938 -0.0973 -0.2375
 1007loPI   GL115433   0.768  13.103   5.962 -0.3030  0.3885 -0.2117
 1007loPI   GL215434   0.628  13.316   6.125  0.0109 -0.0574 -0.4116
 1007loPI   C1A15435   0.638  12.854   6.366 -0.0526 -0.1088  0.2282
 1007loPI   C2A15436   0.879  12.756   6.748  0.3547 -0.0170 -0.1048
 1007loPI   C3A15437   0.823  12.811   7.225  0.0688 -0.1347  0.2440
 1007loPI   C4A15438   0.853  12.681   7.638 -0.0898 -0.1078 -0.0213
 1007loPI   C5A15439   1.039  12.778   8.057 -0.1124 -0.2371 -0.1199
 1007loPI   C6A15440   1.153  13.146   8.277  0.0055 -0.0449  0.1243
 1007loPI   C1B15441   0.480  13.293   6.553  0.2758 -0.0955 -0.0421
 1007loPI   C2B15442   0.344  13.272   6.854  0.0986  0.2750  0.1323
 1007loPI   C3B15443   0.408  13.128   7.250  0.0478 -0.1163 -0.2345
 1007loPI   C4B15444   0.309  12.951   7.687  0.2775  0.0863  0.0581
 1008loPI    C115445   3.472  10.980   5.322  0.2719  0.1027  0.0852
 1008loPI    C215446   3.317  10.844   4.979  0.2052 -0.1450  0.2113
 1008loPI    C315447   3.714  10.865   5.025  0.2142  0.0809  0.0464
 1008loPI   PO415448   3.243  11.185   5.379  0.3701 -0.3188  0.0462
 1008loPI   GL115449   3.176  11.285   5.716 -0.1719  0.3368 -0.1015
 1008loPI   GL215450   2.939  11.180   5.901 -0.0878 -0.0333  0.1210
 1008loPI   C1A15451   3.128  11.530   6.156  0.0970 -0.2153 -0.1378
 1008loPI   C2A15452   3.105  11.560   6.591  0.0809 -0.0597 -0.0270
 1008loPI   C3A15453   3.022  11.502   6.982  0.0401  0.0008 -0.1370
 1008loPI   C4A15454   3.032  11.378   7.406 -0.1840  0.2639 -0.1044
 1008loPI   C5A15455   3.007  11.289   7.875 -0.1573 -0.0947  0.2066
 1008loPI   C6A15456   2.833  10.870   7.997  0.3007  0.0457  0.0942
 1008loPI   C1B15457   3.022  11.033   6.316  0.6094  0.0730  0.1019
 1008loPI   C2B15458   3.089  10.978   6.727  0.0251  0.0316 -0.0972
 1008loPI   C3B15459   3.065  11.020   7.065 -0.2662  0.0825  0.0607
 1008loPI   C4B15460   2.951  10.924   7.409 -0.0873  0.0756  0.0050
 1009loPI    C115461  14.621  12.561   5.511 -0.0341 -0.0954 -0.0439
 1009loPI    C215462  14.225  12.546   5.451 -0.0335 -0.0311 -0.0655
 1009loPI    C315463  14.469  12.316   5.234 -0.0309  0.2072 -0.3203
 1009loPI   PO415464  14.690  12.528   5.738 -0.0184  0.0550  0.2609
 1009loPI   GL115465  14.516  12.692   6.122  0.1114  0.2840 -0.1138
 1009loPI   GL215466  14.275  12.836   5.866 -0.1024  0.0163 -0.0235
 1009loPI   C1A15467  14.574  12.593   6.575 -0.1275  0.1082 -0.1773
 1009loPI   C2A15468  14.740  12.574   7.014 -0.3188 -0.0986  0.1385
 1009loPI   C3A15469  14.646  12.632   7.417 -0.0033 -0.0774  0.0368
 1009loPI   C4A15470  14.646  12.752   7.916 -0.1662  0.0570  0.4698
 1009loPI   C5A15471  14.704  12.709   8.366 -0.1344 -0.0523 -0.0886
 1009loPI   C6A15472  14.458  12.931   8.489  0.0297  0.3047 -0.0375
 1009loPI   C1B15473  14.115  12.807   6.370 -0.0541 -0.1399 -0.1298
 1009loPI   C2B15474  14.233  12.795   6.864  0.0378 -0.0373  0.1221
 1009loPI   C3B15475  14.340  12.870   7.201  0.0533  0.0598 -0.0665
 1009loPI   C4B15476  14.279  12.975   7.621  0.1459 -0.1550  0.1236
 1010loPI    C115477   4.380   1.710   5.371  0.0165  0.0394 -0.0982
 1010loPI    C215478   4.420   1.313   5.391 -0.0275  0.0289 -0.2093
 1010loPI    C315479   4.650   1.525   5.141  0.0842  0.0878 -0.0580
 1010loPI   PO415480   4.340   1.771   5.585 -0.1441  0.0683 -0.2566
 1010loPI   GL115481   4.212   1.847   6.002  0.2263  0.2059  0.0894
 1010loPI   GL215482   4.500   1.810   6.098  0.1832 -0.1249  0.1982
 1010loPI   C1A15483   3.966   1.991   6.381 -0.1086 -0.0353  0.0318
 1010loPI   C2A15484   4.023   2.037   6.791  0.0511  0.1142  0.1575
 1010loPI   C3A15485   3.897   2.010   7.260 -0.0172 -0.0737  0.0299
 1010loPI   C4A15486   3.870   1.966   7.811  0.1094  0.1438  0.1405
 1010loPI   C5A15487   3.986   1.917   8.132  0.0622 -0.2038 -0.1694
 1010loPI   C6A15488   4.082   1.577   8.418 -0.0064 -0.1896  0.2097
 1010loPI   C1B15489   4.363   1.682   6.429 -0.1149  0.3814 -0.3680
 1010loPI   C2B15490   4.485   1.558   6.794  0.0702  0.0523  0.1413
 1010loPI   C3B15491   4.602   1.562   7.193  0.1667 -0.0191  0.2529
 1010loPI   C4B15492   4.642   1.534   7.600 -0.0260 -0.2278 -0.0275
 1011loPI    C115493   2.997   2.223   5.057 -0.0276 -0.3606 -0.1068
 1011loPI    C215494   3.139   2.456   4.765  0.0668 -0.0333  0.1928
 1011loPI    C315495   2.846   2.196   4.688  0.0470  0.0926 -0.1771
 1011loPI   PO415496   3.204   2.430   5.273  0.1777  0.2283  0.2456
 1011loPI   GL115497   3.229   2.545   5.762 -0.0359 -0.0751 -0.2731
 1011loPI   GL215498   2.948   2.355   5.904  0.2484 -0.2373 -0.1640
 1011loPI   C1A15499   3.523   2.662   6.111 -0.1630 -0.2339  0.0728
 1011loPI   C2A15500   3.661   2.716   6.524 -0.2025 -0.2552  0.0013
 1011loPI   C3A15501   3.625   2.761   6.914 -0.2543  0.1638 -0.0326
 1011loPI   C4A15502   3.740   2.831   7.315 -0.0460 -0.1192 -0.3219
 1011loPI   C5A15503   3.945   2.812   7.743  0.2295  0.2222  0.1073
 1011loPI   C6A15504   3.856   2.868   8.103 -0.1375 -0.0048  0.1971
 1011loPI   C1B15505   3.040   2.498   6.250 -0.2245 -0.0064 -0.1770
 1011loPI   C2B15506   3.178   2.563   6.588 -0.2784  0.0098 -0.0405
 1011loPI   C3B15507   3.144   2.532   6.992 -0.0142 -0.0884 -0.0633
 1011loPI   C4B15508   3.129   2.438   7.446 -0.2876 -0.0930 -0.0209
 1012loPI    C115509  15.006   1.547   5.105  0.0233 -0.1290  0.1892
 1012loPI    C215510  15.068   1.667   4.728 -0.0369 -0.1163  0.1833
 1012loPI    C315511  14.878   1.322   4.799 -0.2185 -0.0136  0.2028
 1012loPI   PO415512  15.224   1.706   5.203  0.0561  0.1383  0.0126
 1012loPI   GL115513  15.340   1.973   5.462 -0.0150 -0.0487  0.0076
 1012loPI   GL215514  15.350   1.686   5.683 -0.1161 -0.0764  0.2662
 1012loPI   C1A15515  15.119   2.064   5.835 -0.2029 -0.2083 -0.0524
 1012loPI   C2A15516  14.971   2.058   6.242 -0.0017  0.0115 -0.0598
 1012loPI   C3A15517  14.960   2.068   6.759  0.3130  0.0846  0.2545
 1012loPI   C4A15518  14.922   2.051   7.172 -0.1889 -0.0807 -0.1144
 1012loPI   C5A15519  14.873   2.074   7.669  0.0537 -0.0375 -0.1040
 1012loPI   C6A15520  14.652   2.238   8.059 -0.0694  0.2688 -0.0719
 1012loPI   C1B15521  15.357   1.782   6.179 -0.0677  0.3082 -0.2265
 1012loPI   C2B15522  15.401   1.744   6.648 -0.3470  0.1654 -0.1152
 1012loPI   C3B15523  15.356   1.784   7.170 -0.1912  0.4655  0.1927
 1012loPI   C4B15524  15.321   1.851   7.569  0.0107  0.4409  0.0408
 1013loPI    C115525  12.294   6.360   4.860  0.0329  0.1011 -0.3360
 1013loPI    C215526  12.617   6.416   5.089 -0.0653 -0.4022 -0.0588
 1013loPI    C315527  12.634   6.167   4.777 -0.1053 -0.1945 -0.2294
 1013loPI   PO415528  12.044   6.287   5.006 -0.3268 -0.0398  0.0012
 1013loPI   GL115529  11.974   6.465   5.495 -0.1082  0.0549 -0.0412
 1013loPI   GL215530  11.846   6.665   5.666  0.0831 -0.0111 -0.2666
 1013loPI   C1A15531  11.889   6.196   5.859 -0.0721  0.2822  0.0912
 1013loPI   C2A15532  12.006   6.095   6.301  0.1629  0.2312  0.2157
 1013loPI   C3A15533  12.075   6.159   6.722 -0.0816 -0.3357  0.2892
 1013loPI   C4A15534  12.038   6.022   7.126  0.3258  0.0110  0.0120
 1013loPI   C5A15535  11.835   5.977   7.524 -0.0010 -0.2544  0.0945
 1013loPI   C6A15536  11.873   6.267   7.933 -0.1402 -0.0709 -0.1390
 1013loPI   C1B15537  11.897   6.668   6.138  0.0793  0.0037  0.0555
 1013loPI   C2B15538  12.027   6.591   6.570  0.2704 -0.1004  0.1065
 1013loPI   C3B15539  12.122   6.540   7.030  0.2483 -0.2570 -0.0168
 1013loPI   C4B15540  12.173   6.376   7.535  0.0388 -0.2454 -0.2657
 1014loPI    C115541  17.206   4.730   4.861 -0.0050 -0.0779  0.0825
 1014loPI    C215542  16.923   4.449   4.876  0.0341 -0.1218  0.0025
 1014loPI    C315543  17.219   4.420   4.609  0.0760 -0.0403  0.0399
 1014loPI   PO415544  17.241   4.705   5.112 -0.2546  0.1407 -0.1817
 1014loPI   GL115545  17.321   4.460   5.463 -0.2119  0.0629 -0.0255
 1014loPI   GL215546  17.616   4.509   5.446  0.3310 -0.0371 -0.1913
 1014loPI   C1A15547  17.114   4.467   5.975  0.0323  0.3671 -0.1727
 1014loPI   C2A15548  17.021   4.425   6.377  0.0101 -0.1568  0.0903
 1014loPI   C3A15549  17.062   4.345   6.855  0.0083  0.0680  0.2668
 1014loPI   C4A15550  17.053   4.462   7.329 -0.0210 -0.0595  0.4601
 1014loPI   C5A15551  16.982   4.429   7.782 -0.3158  0.4527  0.0743
 1014loPI   C6A15552  17.031   4.055   7.990  0.0711  0.2457 -0.1224
 1014loPI   C1B15553  17.632   4.338   5.878 -0.0690  0.1345 -0.0110
 1014loPI   C2B15554  17.441   4.253   6.251  0.0091 -0.0236  0.0034
 1014loPI   C3B15555  17.459   4.126   6.671  0.0772  0.0194 -0.3886
 1014loPI   C4B15556  17.560   4.145   7.122 -0.1521  0.1717 -0.2075
 1015loPI    C115557  16.799  14.357   5.745  0.1321 -0.2592 -0.1641
 1015loPI    C215558  16.469  14.480   5.554  0.0270  0.0208  0.1857
 1015loPI    C315559  16.830  14.582   5.416 -0.0417  0.0490  0.0248
 1015loPI   PO415560  16.691  14.329   6.019  0.1666 -0.0770  0.0595
 1015loPI   GL115561  16.312  14.194   6.284  0.2813 -0.1073  0.1900
 1015loPI   GL215562  16.468  13.895   6.185 -0.0604  0.1397  0.2961
 1015loPI   C1A15563  16.054  13.956   6.572 -0.1113  0.0578 -0.1210
 1015loPI   C2A15564  16.056  13.679   6.901 -0.1198 -0.1084 -0.1160
 1015loPI   C3A15565  16.090  13.478   7.298  0.0866  0.1459 -0.1855
 1015loPI   C4A15566  16.103  13.335   7.659  0.0653  0.1200  0.1199
 1015loPI   C5A15567  16.150  13.056   8.069  0.0246 -0.0832  0.0250
 1015loPI   C6A15568  16.428  12.786   8.331 -0.3356  0.3233 -0.2420
 1015loPI   C1B15569  16.509  13.617   6.528  0.0979 -0.1402  0.3292
 1015loPI   C2B15570  16.562  13.512   7.006 -0.0892  0.0875  0.0104
 1015loPI   C3B15571  16.570  13.646   7.455 -0.1020  0.2784 -0.0013
 1015loPI   C4B15572  16.533  13.528   7.917 -0.0098  0.2369 -0.2738
 1016loPI    C115573  12.829   7.708   5.134 -0.0231  0.2653 -0.0099
 1016loPI    C215574  13.116   7.429   5.140 -0.2423  0.0384  0.1656
 1016loPI    C315575  13.207   7.811   5.218  0.0304 -0.0104  0.0998
 1016loPI   PO415576  12.637   7.577   5.349 -0.0123  0.2054 -0.0199
 1016loPI   GL115577  12.503   7.567   5.739  0.1022 -0.0578  0.1433
 1016loPI   GL215578  12.707   7.382   5.931  0.1537  0.2786 -0.3172
 1016loPI   C1A15579  12.333   7.493   6.228 -0.2262  0.0979  0.3122
 1016loPI   C2A15580  12.355   7.464   6.635 -0.1807  0.0149 -0.0012
 1016loPI   C3A15581  12.369   7.401   7.027  0.2283 -0.1853 -0.0550
 1016loPI   C4A15582  12.295   7.259   7.437  0.0767 -0.0379 -0.3153
 1016loPI   C5A15583  12.260   7.300   7.841  0.2312  0.0062  0.0112
 1016loPI   C6A15584  12.329   7.439   8.279  0.0834  0.2390  0.2307
 1016loPI   C1B15585  12.743   7.184   6.280 -0.1047  0.1420 -0.0087
 1016loPI   C2B15586  12.840   7.274   6.683  0.4146 -0.0169 -0.1992
 1016loPI   C3B15587  12.889   7.195   7.125 -0.0684 -0.0990 -0.0231
 1016loPI   C4B15588  12.973   7.081   7.509  0.3958 -0.3641 -0.0101
 1017loPI    C115589  14.768  15.024   5.665 -0.0176  0.1984 -0.0622
 1017loPI    C215590  14.717  15.075   5.271 -0.1307 -0.1640 -0.0980
 1017loPI    C315591  14.863  14.730   5.411 -0.0060 -0.0043  0.1737
 1017loPI   PO415592  14.822  15.322   5.769 -0.1226 -0.1189  0.2752
 1017loPI   GL115593  14.923  15.658   6.017  0.0508  0.0000  0.0882
 1017loPI   GL215594  15.059  15.512   6.191 -0.1849 -0.3700 -0.2574
 1017loPI   C1A15595  14.740  15.924   6.408 -0.1816  0.2386 -0.0770
 1017loPI   C2A15596  14.551  16.004   6.880 -0.0603 -0.0782 -0.0704
 1017loPI   C3A15597  14.558  16.186   7.265 -0.1557 -0.1675 -0.0189
 1017loPI   C4A15598  14.638  16.286   7.650 -0.1238 -0.0612 -0.0435
 1017loPI   C5A15599  14.973  16.433   7.968  0.0235  0.2226  0.2109
 1017loPI   C6A15600  14.966  16.851   8.229 -0.2710  0.1280 -0.1605
 1017loPI   C1B15601  15.020  15.542   6.650 -0.1065 -0.0992 -0.0299
 1017loPI   C2B15602  15.047  15.887   6.896  0.1667  0.1434 -0.1119
 1017loPI   C3B15603  14.997  15.985   7.280  0.1754  0.1349  0.2269
 1017loPI   C4B15604  15.019  15.933   7.700  0.1059  0.2597 -0.1785
 1018loPI    C115605  17.635  10.101   5.546  0.2003  0.0583 -0.2662
 1018loPI    C215606  17.995   9.928   5.516  0.0674 -0.2570 -0.0949
 1018loPI    C315607  17.715   9.857   5.239  0.1601  0.0552 -0.2742
 1018loPI   PO415608  17.571  10.147   5.754  0.0063 -0.0872 -0.3925
 1018loPI   GL115609  17.641   9.946   6.026 -0.3044  0.0752 -0.2065
 1018loPI   GL215610  17.904   9.823   6.129 -0.0464 -0.0968 -0.1106
 1018loPI   C1A15611  17.415  10.055   6.382  0.1268 -0.2330 -0.1750
 1018loPI   C2A15612  17.489   9.938   6.751  0.2235  0.2010  0.1335
 1018loPI   C3A15613  17.405   9.959   7.135 -0.0643 -0.2361 -0.0688
 1018loPI   C4A15614  17.369   9.731   7.541 -0.3089  0.1722 -0.1317
 1018loPI   C5A15615  17.546   9.835   7.971 -0.0346 -0.1487  0.1595
 1018loPI   C6A15616  17.229   9.889   8.338 -0.0879  0.0535 -0.1158
 1018loPI   C1B15617  17.842   9.719   6.447  0.2505 -0.0530 -0.1916
 1018loPI   C2B15618  17.927   9.735   6.887  0.0877  0.0466  0.1774
 1018loPI   C3B15619  17.861   9.712   7.246  0.1080  0.2097 -0.2119
 1018loPI   C4B15620  17.812   9.565   7.652  0.1193 -0.2093  0.0852
 1019loPI    C115621   4.902   3.211   5.227 -0.1430 -0.0172 -0.2013
 1019loPI    C215622   5.048   3.583   5.240 -0.0208 -0.0707  0.0261
 1019loPI    C315623   5.199   3.318   4.982  0.0121 -0.0129 -0.0143
 1019loPI   PO415624   4.819   3.213   5.452  0.3078  0.1755  0.0788
 1019loPI   GL115625   4.831   3.074   5.898 -0.0351 -0.1357 -0.1873
 1019loPI   GL215626   4.995   2.857   6.020 -0.0723 -0.1369 -0.0258
 1019loPI   C1A15627   4.596   3.171   6.296 -0.2547  0.0046  0.1348
 1019loPI   C2A15628   4.610   3.257   6.726  0.0724 -0.3104 -0.3743
 1019loPI   C3A15629   4.615   3.254   7.146 -0.2835  0.1916  0.0522
 1019loPI   C4A15630   4.511   3.367   7.523 -0.0588 -0.1263 -0.0849
 1019loPI   C5A15631   4.514   3.716   7.846  0.0747 -0.1352  0.1909
 1019loPI   C6A15632   4.348   3.924   8.204  0.0043  0.1481  0.2890
 1019loPI   C1B15633   4.967   2.933   6.478  0.2196  0.1533  0.0879
 1019loPI   C2B15634   4.955   2.944   6.901 -0.1399  0.0103  0.1187
 1019loPI   C3B15635   4.929   2.840   7.343  0.2340 -0.1900  0.2230
 1019loPI   C4B15636   4.808   2.967   7.827 -0.1544 -0.0144 -0.2295
 1020loPI    C115637   4.505  12.692   5.034 -0.1939  0.0451 -0.1732
 1020loPI    C215638   4.820  12.452   4.977 -0.1578  0.0354  0.0587
 1020loPI    C315639   4.808  12.811   4.802  0.0034  0.0540  0.0846
 1020loPI   PO415640   4.462  12.723   5.281  0.2457  0.3798  0.0593
 1020loPI   GL115641   4.433  12.544   5.706  0.0015  0.0642 -0.0934
 1020loPI   GL215642   4.202  12.686   5.783 -0.0324 -0.2966 -0.0852
 1020loPI   C1A15643   4.677  12.574   6.027 -0.1231  0.1129 -0.1096
 1020loPI   C2A15644   4.593  12.556   6.535  0.0124  0.1053 -0.0065
 1020loPI   C3A15645   4.506  12.374   6.964 -0.1859 -0.2025 -0.0184
 1020loPI   C4A15646   4.333  12.322   7.321 -0.0758  0.0640 -0.0731
 1020loPI   C5A15647   4.287  12.149   7.732  0.2492 -0.0881 -0.0261
 1020loPI   C6A15648   4.554  12.218   8.132  0.1241  0.1803 -0.2864
 1020loPI   C1B15649   3.983  12.725   6.119  0.1494  0.0801 -0.0676
 1020loPI   C2B15650   4.083  12.923   6.432  0.0993 -0.0964 -0.0252
 1020loPI   C3B15651   3.983  13.128   6.847  0.1970 -0.1127  0.0670
 1020loPI   C4B15652   3.884  13.133   7.152  0.1096 -0.0917 -0.0582
 1021loPI    C115653   1.327  15.990   5.561 -0.0785 -0.0563  0.0242
 1021loPI    C215654   1.105  16.235   5.335  0.0101 -0.1134 -0.1263
 1021loPI    C315655   0.960  15.879   5.446 -0.1196  0.0063  0.0946
 1021loPI   PO415656   1.444  16.187   5.745  0.3186  0.0531 -0.1058
 1021loPI   GL115657   1.220  16.362   6.174  0.0191  0.1547  0.0927
 1021loPI   GL215658   1.425  16.676   6.127  0.0846 -0.1023  0.0072
 1021loPI   C1A15659   1.069  16.138   6.436 -0.2157  0.3455  0.2044
 1021loPI   C2A15660   1.106  16.152   6.822 -0.3317  0.0877 -0.3352
 1021loPI   C3A15661   1.172  16.279   7.191 -0.0246 -0.1796  0.2242
 1021loPI   C4A15662   1.097  16.186   7.526  0.0004  0.0788 -0.2739
 1021loPI   C5A15663   1.142  15.770   7.667  0.1054 -0.0997 -0.1841
 1021loPI   C6A15664   1.396  15.683   7.954 -0.1891 -0.0456 -0.3682
 1021loPI   C1B15665   1.410  16.644   6.573  0.0815 -0.2310 -0.0829
 1021loPI   C2B15666   1.490  16.663   6.878 -0.0797  0.1128  0.1128
 1021loPI   C3B15667   1.708  16.887   7.162  0.0219  0.2276  0.1340
 1021loPI   C4B15668   1.886  17.102   7.494  0.0479  0.0813 -0.0702
 1022loPI    C115669   6.382  14.195   5.669 -0.4343  0.1658  0.0466
 1022loPI    C215670   6.330  13.859   5.458  0.0176  0.0497  0.1093
 1022loPI    C315671   6.334  14.214   5.273  0.1838 -0.0329 -0.0481
 1022loPI   PO415672   6.240  14.171   5.946  0.0537 -0.0602 -0.0825
 1022loPI   GL115673   6.029  14.034   6.281  0.2094  0.1419 -0.2078
 1022loPI   GL215674   6.210  13.645   6.505 -0.0851  0.0711 -0.0017
 1022loPI   C1A15675   6.006  14.024   6.766  0.1041 -0.0692 -0.2018
 1022loPI   C2A15676   6.087  14.076   7.194  0.0639 -0.1469 -0.0196
 1022loPI   C3A15677   6.003  14.110   7.641  0.3761 -0.2892 -0.0171
 1022loPI   C4A15678   5.716  14.182   7.989  0.0938  0.0043 -0.1201
 1022loPI   C5A15679   5.208  14.198   8.136 -0.1834 -0.0856 -0.0867
 1022loPI   C6A15680   4.870  14.225   7.808 -0.1183 -0.1375 -0.0497
 1022loPI   C1B15681   6.216  13.505   6.933 -0.0235  0.3075 -0.0793
 1022loPI   C2B15682   6.109  13.503   7.359 -0.1345 -0.1812 -0.3139
 1022loPI   C3B15683   6.151  13.390   7.746  0.2296 -0.0391 -0.0440
 1022loPI   C4B15684   6.218  13.138   8.129  0.0287 -0.3255 -0.1336
 1023loPI    C115685   9.397   9.727   5.709 -0.2097  0.2449 -0.1321
 1023loPI    C215686   9.119   9.762   5.995 -0.0871  0.1233  0.0031
 1023loPI    C315687   9.505   9.824   6.082 -0.0282 -0.1014 -0.0908
 1023loPI   PO415688   9.445   9.519   5.670 -0.0147  0.1046 -0.1356
 1023loPI   GL115689   9.435   9.271   6.040  0.1524  0.0466  0.1933
 1023loPI   GL215690   9.517   8.971   6.129 -0.0383  0.0518 -0.0503
 1023loPI   C1A15691   9.407   9.489   6.441 -0.4265 -0.2880  0.1266
 1023loPI   C2A15692   9.509   9.281   6.817 -0.1480 -0.0603  0.0984
 1023loPI   C3A15693   9.561   9.253   7.293  0.2556  0.0588 -0.1358
 1023loPI   C4A15694   9.692   9.286   7.635  0.1976 -0.0221 -0.0866
 1023loPI   C5A15695   9.657   9.506   8.012 -0.3138 -0.0194  0.0109
 1023loPI   C6A15696   9.720   9.471   8.398  0.3333 -0.2867  0.0063
 1023loPI   C1B15697   9.560   8.744   6.513 -0.3039  0.2835 -0.0500
 1023loPI   C2B15698   9.522   8.817   7.013 -0.0913 -0.0774  0.0915
 1023loPI   C3B15699   9.617   8.622   7.426  0.0740  0.0113  0.0062
 1023loPI   C4B15700   9.377   8.713   7.765 -0.0826 -0.0517  0.4133
 1024loPI    C115701   1.633  17.271   5.666 -0.0289 -0.0063 -0.1491
 1024loPI    C215702   1.546  17.070   5.332  0.2816 -0.2538 -0.0853
 1024loPI    C315703   1.693  17.441   5.309 -0.0233 -0.1375 -0.2109
 1024loPI   PO415704   1.580  17.126   5.917 -0.3029 -0.2068  0.1742
 1024loPI   GL115705   1.537  17.194   6.254  0.2887  0.1096  0.2807
 1024loPI   GL215706   1.500  17.490   6.428  0.0875 -0.2230  0.3969
 1024loPI   C1A15707   1.726  17.094   6.670 -0.1086  0.1864  0.0649
 1024loPI   C2A15708   1.812  17.386   7.047  0.0777  0.3558 -0.1727
 1024loPI   C3A15709   1.714  17.595   7.397 -0.0725 -0.1947 -0.0352
 1024loPI   C4A15710   1.580  17.779   7.824  0.0965 -0.1648  0.1096
 1024loPI   C5A15711   1.450  18.098   8.102  0.0626  0.1250  0.0971
 1024loPI   C6A15712   1.305  18.386   8.372  0.0050 -0.3351 -0.2792
 1024loPI   C1B15713   1.527  17.731   6.794  0.0518  0.0595  0.2174
 1024loPI   C2B15714   1.880  17.840   7.023 -0.0862  0.2486 -0.2089
 1024loPI   C3B15715   2.044  17.933   7.422 -0.1869 -0.0679 -0.0690
 1024loPI   C4B15716   2.396  17.995   7.615 -0.2063  0.2076 -0.0144
 1025loPI    C115717   1.971   7.238   5.239  0.1680  0.0043  0.0182
 1025loPI    C215718   2.168   7.255   4.892 -0.0556  0.0707 -0.1072
 1025loPI    C315719   2.047   6.902   5.036 -0.0560  0.0533 -0.1502
 1025loPI   PO415720   2.133   7.278   5.488  0.2499 -0.0577 -0.0741
 1025loPI   GL115721   2.118   7.554   5.746 -0.1626  0.1658  0.3929
 1025loPI   GL215722   2.091   7.202   5.966 -0.0369 -0.1054 -0.1848
 1025loPI   C1A15723   2.262   7.765   6.015  0.1596 -0.1831 -0.0751
 1025loPI   C2A15724   2.341   7.890   6.528 -0.1925  0.1407  0.1750
 1025loPI   C3A15725   2.347   8.013   6.926 -0.0442  0.1031  0.1302
 1025loPI   C4A15726   2.516   8.142   7.258 -0.2103  0.0727  0.1623
 1025loPI   C5A15727   2.760   8.107   7.566  0.3339 -0.1448  0.0148
 1025loPI   C6A15728   3.083   8.214   7.801 -0.2879 -0.2494  0.0540
 1025loPI   C1B15729   2.043   7.350   6.371  0.0462  0.1377 -0.1171
 1025loPI   C2B15730   2.129   7.469   6.800 -0.1208  0.1349  0.0299
 1025loPI   C3B15731   2.178   7.440   7.162  0.1629  0.0415  0.1098
 1025loPI   C4B15732   2.421   7.605   7.400  0.2509  0.2211  0.0207
 1026loPI    C115733  15.202  13.295   5.710 -0.2800  0.0812 -0.3313
 1026loPI    C215734  15.518  13.473   5.542 -0.0861 -0.0943 -0.1590
 1026loPI    C315735  15.473  13.077   5.512 -0.1138 -0.1119  0.0961
 1026loPI   PO415736  15.131  13.357   5.952 -0.0190  0.1131  0.0103
 1026loPI   GL115737  15.229  13.466   6.323  0.0600 -0.2877  0.0331
 1026loPI   GL215738  15.067  13.168   6.471  0.2905  0.0327  0.1556
 1026loPI   C1A15739  14.909  13.617   6.637  0.1863  0.1692  0.0619
 1026loPI   C2A15740  14.737  13.580   6.991 -0.1371  0.1107  0.0069
 1026loPI   C3A15741  14.737  13.624   7.372 -0.1346 -0.2904 -0.1852
 1026loPI   C4A15742  14.665  13.808   7.800 -0.1755 -0.0556  0.0829
 1026loPI   C5A15743  14.441  13.822   8.193 -0.0603  0.1397 -0.0990
 1026loPI   C6A15744  14.377  13.896   8.631 -0.1185 -0.0723 -0.0498
 1026loPI   C1B15745  15.195  13.323   6.923  0.2764  0.2262  0.1270
 1026loPI   C2B15746  15.171  13.404   7.295 -0.0849  0.0644 -0.0524
 1026loPI   C3B15747  15.223  13.463   7.744  0.0773  0.0501  0.0991
 1026loPI   C4B15748  15.088  13.640   8.195 -0.0065 -0.0793 -0.2350
 1027loPI    C115749   0.122   5.531   5.003  0.3237 -0.0904 -0.0252
 1027loPI    C215750  -0.130   5.286   5.193  0.0203  0.2688  0.0471
 1027loPI    C315751  -0.043   5.224   4.808 -0.2116  0.1639  0.0103
 1027loPI   PO415752   0.062   5.755   5.196 -0.0933 -0.3684  0.0231
 1027loPI   GL115753  -0.107   5.816   5.482  0.1187 -0.0368  0.2820
 1027loPI   GL215754  -0.401   5.744   5.610 -0.0825  0.0099 -0.0224
 1027loPI   C1A15755   0.064   5.611   5.872 -0.3582 -0.0395  0.1292
 1027loPI   C2A15756   0.149   5.672   6.232 -0.0622  0.0348  0.0885
 1027loPI   C3A15757   0.290   5.729   6.671 -0.0859 -0.0048 -0.1670
 1027loPI   C4A15758   0.111   5.654   7.072 -0.1733 -0.0932  0.0808
 1027loPI   C5A15759  -0.148   5.460   7.388 -0.2691  0.1172 -0.3090
 1027loPI   C6A15760  -0.072   5.497   7.831  0.0855  0.1419  0.0618
 1027loPI   C1B15761  -0.440   5.690   6.063 -0.1093 -0.1194  0.2809
 1027loPI   C2B15762  -0.245   5.511   6.452 -0.2625  0.1362 -0.0180
 1027loPI   C3B15763  -0.167   5.264   6.836 -0.2109  0.0681  0.3959
 1027loPI   C4B15764   0.051   4.984   7.273  0.0549 -0.0347 -0.0779
 1028loPI    C115765  15.303   2.616   4.932  0.0520 -0.0948  0.1371
 1028loPI    C215766  14.945   2.574   4.760 -0.0309  0.1573  0.2433
 1028loPI    C315767  15.274   2.599   4.534 -0.1225  0.3306  0.1269
 1028loPI   PO415768  15.241   2.454   5.193 -0.1514 -0.3201 -0.1912
 1028loPI   GL115769  15.164   2.674   5.592 -0.0593  0.1562 -0.0537
 1028loPI   GL215770  15.438   2.430   5.715 -0.0016  0.0766 -0.1695
 1028loPI   C1A15771  15.353   2.827   5.985  0.1996 -0.1734  0.2777
 1028loPI   C2A15772  15.306   2.828   6.427 -0.3232  0.1606 -0.1908
 1028loPI   C3A15773  15.362   2.828   6.821 -0.0322  0.2484 -0.1199
 1028loPI   C4A15774  15.332   2.797   7.242 -0.1177  0.0746  0.0517
 1028loPI   C5A15775  15.318   2.839   7.702  0.3280  0.0321 -0.2107
 1028loPI   C6A15776  15.384   2.751   8.197  0.3801  0.1298 -0.1206
 1028loPI   C1B15777  15.427   2.300   6.148 -0.0173 -0.3882 -0.2015
 1028loPI   C2B15778  15.378   2.223   6.535  0.1649 -0.2173 -0.3202
 1028loPI   C3B15779  15.359   2.324   6.911  0.1309  0.1174 -0.1225
 1028loPI   C4B15780  15.382   2.313   7.294  0.1067  0.1290 -0.1033
 1029loPI    C115781   8.249  15.696   5.584 -0.0977  0.1626 -0.2331
 1029loPI    C215782   8.135  15.378   5.369  0.0741 -0.1199  0.0826
 1029loPI    C315783   8.524  15.457   5.418  0.0327  0.1747 -0.0378
 1029loPI   PO415784   8.219  15.681   5.926  0.0333 -0.1816  0.4698
 1029loPI   GL115785   8.272  15.370   6.283  0.0112 -0.1332 -0.2330
 1029loPI   GL215786   7.943  15.491   6.367  0.0841  0.3169 -0.0426
 1029loPI   C1A15787   8.297  15.171   6.604  0.0536 -0.0747 -0.0107
 1029loPI   C2A15788   8.209  15.405   7.007  0.1354 -0.0557  0.0699
 1029loPI   C3A15789   8.282  15.736   7.175 -0.2418 -0.1670 -0.1970
 1029loPI   C4A15790   8.374  15.709   7.673  0.1114  0.2804  0.0182
 1029loPI   C5A15791   8.410  15.801   8.148 -0.1751 -0.0854 -0.0573
 1029loPI   C6A15792   8.236  16.085   8.417  0.0974  0.2010 -0.2256
 1029loPI   C1B15793   7.811  15.499   6.679  0.1798  0.4241 -0.0916
 1029loPI   C2B15794   7.676  15.487   7.048  0.0817 -0.1650 -0.0388
 1029loPI   C3B15795   7.828  15.555   7.463  0.2125  0.1723 -0.1329
 1029loPI   C4B15796   7.597  15.283   7.737 -0.1440  0.0041  0.0500
 1030loPI    C115797  13.015  18.015   5.210 -0.2887 -0.0779 -0.3214
 1030loPI    C215798  13.193  17.956   4.857  0.0782  0.2069 -0.1902
 1030loPI    C315799  13.217  18.313   5.036  0.1335 -0.0112  0.2520
 1030loPI   PO415800  13.000  17.814   5.353 -0.2392  0.3285 -0.4454
 1030loPI   GL115801  12.791  17.672   5.835  0.3418 -0.1002  0.1487
 1030loPI   GL215802  13.115  17.733   5.882  0.1284 -0.2512 -0.1822
 1030loPI   C1A15803  12.692  17.340   6.090  0.2155  0.1680 -0.0411
 1030loPI   C2A15804  12.811  17.423   6.466 -0.0504 -0.0791  0.4701
 1030loPI   C3A15805  12.769  17.365   6.903 -0.0522 -0.2782 -0.1805
 1030loPI   C4A15806  12.876  17.326   7.324  0.0541 -0.3682 -0.2361
 1030loPI   C5A15807  13.237  17.229   7.668 -0.1921  0.3127 -0.0390
 1030loPI   C6A15808  13.509  17.525   7.849  0.1867 -0.1502  0.1022
 1030loPI   C1B15809  13.078  17.784   6.343  0.0507 -0.0228 -0.1992
 1030loPI   C2B15810  13.106  17.780   6.816  0.2149  0.0942  0.0744
 1030loPI   C3B15811  12.944  17.852   7.175  0.0890  0.2187  0.1061
 1030loPI   C4B15812  13.057  17.768   7.578  0.0293  0.2039 -0.2337
 1031loPI    C115813  13.224   5.997   5.456 -0.3852 -0.0708  0.0409
 1031loPI    C215814  12.973   5.706   5.343 -0.2064 -0.1576 -0.1388
 1031loPI    C315815  12.968   6.060   5.155 -0.1678 -0.1728 -0.1686
 1031loPI   PO415816  13.515   5.872   5.505  0.1670  0.3674 -0.1095
 1031loPI   GL115817  13.758   5.979   5.842 -0.1125  0.1151 -0.0348
 1031loPI   GL215818  13.847   5.878   6.137  0.0270  0.0087  0.0573
 1031loPI   C1A15819  13.685   6.386   5.995 -0.0442  0.0682  0.1405
 1031loPI   C2A15820  13.768   6.554   6.396  0.0774  0.3495  0.1887
 1031loPI   C3A15821  13.759   6.632   6.754  0.1331 -0.1719 -0.0417
 1031loPI   C4A15822  13.865   6.674   7.149 -0.2286  0.0785  0.0538
 1031loPI   C5A15823  13.901   6.614   7.514 -0.0033 -0.2031 -0.0727
 1031loPI   C6A15824  13.908   6.719   7.897 -0.1243  0.2435 -0.1853
 1031loPI   C1B15825  13.831   6.087   6.519 -0.0255 -0.2840 -0.1878
 1031loPI   C2B15826  13.816   6.128   6.883  0.2081 -0.2186 -0.0963
 1031loPI   C3B15827  13.911   6.159   7.292 -0.0992  0.0951 -0.2245
 1031loPI   C4B15828  13.960   6.175   7.741 -0.0840 -0.0604 -0.0622
 1032loPI    C115829   1.619   6.685   4.647 -0.0421  0.0471  0.2717
 1032loPI    C215830   1.248   6.536   4.665  0.0229 -0.1455  0.0532
 1032loPI    C315831   1.309   6.903   4.518 -0.0861 -0.0932  0.1375
 1032loPI   PO415832   1.742   6.511   4.941  0.1747  0.0233  0.1157
 1032loPI   GL115833   1.790   6.528   5.376 -0.2149  0.2473  0.0796
 1032loPI   GL215834   2.074   6.672   5.502 -0.3020  0.1773  0.1985
 1032loPI   C1A15835   1.656   6.389   5.725 -0.4164 -0.3864 -0.2155
 1032loPI   C2A15836   1.754   6.370   6.217  0.2187 -0.0305 -0.1578
 1032loPI   C3A15837   1.674   6.477   6.614  0.1385  0.1187  0.1035
 1032loPI   C4A15838   1.692   6.471   7.104  0.2132  0.1012  0.3899
 1032loPI   C5A15839   1.616   6.264   7.495  0.0866  0.1002  0.6264
 1032loPI   C6A15840   1.742   6.283   7.852  0.0660 -0.0873  0.1446
 1032loPI   C1B15841   1.963   6.731   5.904 -0.0827  0.2286  0.1003
 1032loPI   C2B15842   1.901   6.859   6.320  0.1022  0.1571 -0.2426
 1032loPI   C3B15843   1.900   7.038   6.759 -0.1461  0.4856  0.0874
 1032loPI   C4B15844   1.908   6.983   7.153  0.0706  0.2541 -0.2837
 1033loPI    C115845   9.917   0.725   5.323  0.1062  0.1895  0.0266
 1033loPI    C215846  10.172   0.497   5.115  0.1432  0.1204  0.1468
 1033loPI    C315847  10.032   0.837   4.956 -0.0521 -0.0740 -0.1062
 1033loPI   PO415848  10.153   0.802   5.604 -0.1270  0.0822 -0.2356
 1033loPI   GL115849  10.336   0.941   5.970  0.0587 -0.0548  0.2218
 1033loPI   GL215850  10.065   0.767   6.162 -0.0226 -0.5581  0.1029
 1033loPI   C1A15851  10.588   1.210   6.255  0.4145  0.1927 -0.3817
 1033loPI   C2A15852  10.595   1.178   6.690  0.0279  0.1933  0.2057
 1033loPI   C3A15853  10.631   1.320   7.155  0.5435 -0.0826  0.1673
 1033loPI   C4A15854  10.779   1.508   7.514  0.0235 -0.3024 -0.0761
 1033loPI   C5A15855  10.736   1.673   7.992 -0.1776  0.2014 -0.2568
 1033loPI   C6A15856  10.828   1.662   8.341  0.0043  0.0254  0.1259
 1033loPI   C1B15857  10.182   0.977   6.550 -0.0659 -0.2015 -0.1566
 1033loPI   C2B15858  10.222   0.789   6.936 -0.1077 -0.2114  0.0752
 1033loPI   C3B15859  10.313   0.514   7.260 -0.0178  0.0509 -0.2065
 1033loPI   C4B15860  10.172   0.639   7.618  0.3197  0.2836  0.3693
 1034loPI    C115861  15.013  13.675   5.487 -0.2648  0.0098  0.1332
 1034loPI    C215862  14.942  13.819   5.121 -0.2967 -0.0741  0.1061
 1034loPI    C315863  15.214  13.530   5.173 -0.1420  0.0827  0.1775
 1034loPI   PO415864  14.830  13.637   5.556  0.1465  0.2556  0.1898
 1034loPI   GL115865  14.697  13.700   5.933 -0.0174  0.0645  0.0634
 1034loPI   GL215866  14.710  13.484   6.198  0.0044 -0.1615  0.0384
 1034loPI   C1A15867  14.946  13.893   6.252  0.0097  0.0764  0.0551
 1034loPI   C2A15868  15.175  14.035   6.584 -0.0147  0.0740 -0.2339
 1034loPI   C3A15869  15.238  13.906   6.967 -0.0002  0.2660  0.1833
 1034loPI   C4A15870  15.234  13.916   7.310 -0.2336  0.0005  0.1873
 1034loPI   C5A15871  15.189  13.965   7.755  0.1210 -0.0799 -0.2277
 1034loPI   C6A15872  15.258  14.125   8.148  0.1711  0.0164  0.0493
 1034loPI   C1B15873  14.438  13.765   6.544  0.1917 -0.0973 -0.3141
 1034loPI   C2B15874  14.345  13.838   6.968 -0.2086  0.2816  0.1346
 1034loPI   C3B15875  14.344  14.009   7.350 -0.0403 -0.0373 -0.0465
 1034loPI   C4B15876  14.227  14.025   7.775 -0.3414  0.0069  0.1251
 1035loPI    C115877   3.129   3.793   5.255  0.0969  0.0000 -0.2187
 1035loPI    C215878   2.768   3.769   5.086 -0.1541  0.3062  0.2506
 1035loPI    C315879   3.061   3.973   4.905 -0.1516 -0.0972 -0.2221
 1035loPI   PO415880   3.070   3.824   5.541  0.1295  0.1054  0.0323
 1035loPI   GL115881   2.590   3.755   5.677 -0.0782  0.1226  0.0330
 1035loPI   GL215882   2.527   3.934   5.521  0.3447 -0.0028  0.1913
 1035loPI   C1A15883   2.605   3.812   6.093  0.0105  0.0247 -0.0643
 1035loPI   C2A15884   2.560   3.816   6.546 -0.1762  0.1845  0.1473
 1035loPI   C3A15885   2.679   3.827   7.051  0.2908  0.2296  0.0613
 1035loPI   C4A15886   2.796   3.683   7.408 -0.3006 -0.3332  0.1080
 1035loPI   C5A15887   2.773   3.695   7.791 -0.1138  0.1008  0.0167
 1035loPI   C6A15888   2.834   3.671   8.206  0.1358  0.0507  0.2185
 1035loPI   C1B15889   2.758   4.252   5.878  0.1277  0.1446 -0.0419
 1035loPI   C2B15890   2.755   4.254   6.299 -0.0453 -0.0993 -0.1615
 1035loPI   C3B15891   2.872   4.183   6.713  0.0626 -0.0316 -0.1972
 1035loPI   C4B15892   2.818   4.333   7.026 -0.4308  0.1733  0.2329
 1036loPI    C115893   7.964  12.305   5.490 -0.1990 -0.1397 -0.1428
 1036loPI    C215894   8.328  12.425   5.376 -0.1589  0.0295  0.1512
 1036loPI    C315895   8.072  12.278   5.106  0.0639  0.0707 -0.0869
 1036loPI   PO415896   7.963  12.157   5.667  0.3082  0.0500  0.1321
 1036loPI   GL115897   7.948  12.229   6.034  0.0608 -0.0699 -0.1346
 1036loPI   GL215898   7.737  12.479   6.092  0.2000 -0.0138 -0.5304
 1036loPI   C1A15899   7.895  12.194   6.515  0.2751  0.0508 -0.1983
 1036loPI   C2A15900   7.790  12.108   6.957 -0.1448 -0.0404  0.2638
 1036loPI   C3A15901   7.954  12.099   7.233 -0.2055 -0.0225  0.0858
 1036loPI   C4A15902   8.201  12.284   7.624 -0.4316 -0.2800 -0.4464
 1036loPI   C5A15903   8.445  12.439   7.898 -0.3026 -0.1290 -0.1920
 1036loPI   C6A15904   8.478  12.732   8.161 -0.1511  0.2514  0.0976
 1036loPI   C1B15905   7.747  12.690   6.580  0.5033 -0.1781 -0.0396
 1036loPI   C2B15906   7.848  12.675   7.035 -0.0776  0.3832 -0.1855
 1036loPI   C3B15907   7.922  12.737   7.494 -0.0501  0.1544  0.2855
 1036loPI   C4B15908   8.068  12.812   7.845  0.2564  0.1310 -0.1598
 1037loPI    C115909  17.319   5.653   4.937  0.0503 -0.0892  0.1553
 1037loPI    C215910  17.621   5.880   5.069  0.1505 -0.1277 -0.0054
 1037loPI    C315911  17.671   5.649   4.746 -0.0603 -0.1121 -0.0505
 1037loPI   PO415912  17.217   5.598   5.108 -0.2040 -0.0705  0.2884
 1037loPI   GL115913  17.220   5.525   5.539  0.0789 -0.1065 -0.0931
 1037loPI   GL215914  16.983   5.582   5.548 -0.0728 -0.2169  0.2020
 1037loPI   C1A15915  17.270   5.272   5.915  0.1929 -0.1333  0.1672
 1037loPI   C2A15916  17.321   5.286   6.346  0.1621 -0.0355  0.0838
 1037loPI   C3A15917  17.393   5.191   6.787  0.2908 -0.1554  0.0873
 1037loPI   C4A15918  17.389   5.208   7.283 -0.3678  0.0361  0.2754
 1037loPI   C5A15919  17.445   5.320   7.730 -0.1325 -0.0852 -0.1776
 1037loPI   C6A15920  17.141   5.596   7.877 -0.0691 -0.3134 -0.1700
 1037loPI   C1B15921  16.777   5.625   5.952  0.3060 -0.0303  0.0894
 1037loPI   C2B15922  16.638   5.758   6.326 -0.1127  0.0215  0.0744
 1037loPI   C3B15923  16.822   5.970   6.644  0.0025  0.2074 -0.0495
 1037loPI   C4B15924  17.037   5.998   7.066  0.1167  0.2412 -0.2591
 1038loPI    C115925   5.743   8.040   5.297  0.1396  0.2739 -0.1312
 1038loPI    C215926   5.855   7.880   4.948  0.3758 -0.0246  0.0761
 1038loPI    C315927   6.077   8.168   5.116  0.2348  0.1547 -0.0415
 1038loPI   PO415928   5.724   7.862   5.457 -0.3636 -0.1034 -0.0934
 1038loPI   GL115929   5.859   7.646   5.763  0.1000  0.1115  0.0763
 1038loPI   GL215930   5.896   7.923   5.928  0.1033  0.1510 -0.1800
 1038loPI   C1A15931   5.761   7.414   6.137 -0.2700 -0.2382  0.1548
 1038loPI   C2A15932   5.685   7.533   6.434  0.0145  0.1417  0.0362
 1038loPI   C3A15933   5.642   7.453   6.927 -0.0520 -0.0359  0.2598
 1038loPI   C4A15934   5.720   7.379   7.386 -0.1788 -0.2343 -0.3519
 1038loPI   C5A15935   5.875   7.478   7.792 -0.2302 -0.0553 -0.1269
 1038loPI   C6A15936   5.814   7.548   8.137 -0.1993 -0.0140 -0.1328
 1038loPI   C1B15937   5.813   7.982   6.281 -0.0493 -0.3165 -0.2190
 1038loPI   C2B15938   5.834   7.870   6.749 -0.1765 -0.1279  0.0096
 1038loPI   C3B15939   6.062   7.844   7.101 -0.0522 -0.1504  0.2412
 1038loPI   C4B15940   6.009   7.912   7.576 -0.1910 -0.0158 -0.0892
 1039loPI    C115941   1.588  15.342   5.288 -0.1606 -0.0169  0.1030
 1039loPI    C215942   1.894  15.152   5.463 -0.1595  0.0616  0.1869
 1039loPI    C315943   1.844  15.129   5.066 -0.0379  0.0584  0.1714
 1039loPI   PO415944   1.562  15.532   5.472 -0.1676  0.1520 -0.1978
 1039loPI   GL115945   1.443  15.580   5.973  0.0906 -0.1735 -0.1588
 1039loPI   GL215946   1.556  15.261   5.970 -0.0145 -0.0457 -0.1313
 1039loPI   C1A15947   1.329  15.672   6.323 -0.2301 -0.0726  0.3163
 1039loPI   C2A15948   1.270  15.657   6.730 -0.2989 -0.0446  0.3529
 1039loPI   C3A15949   1.339  15.762   7.245  0.1431 -0.1170  0.0626
 1039loPI   C4A15950   1.654  15.991   7.602 -0.0613 -0.2530  0.1175
 1039loPI   C5A15951   1.818  15.906   7.939  0.1648 -0.0986  0.3114
 1039loPI   C6A15952   1.849  16.158   8.256 -0.0058 -0.0273 -0.2634
 1039loPI   C1B15953   1.801  15.018   6.211  0.0678  0.0108 -0.0189
 1039loPI   C2B15954   1.951  14.867   6.666  0.1222 -0.0029  0.0540
 1039loPI   C3B15955   1.837  14.770   7.038  0.2016 -0.2523  0.1034
 1039loPI   C4B15956   1.831  14.961   7.433 -0.1650  0.0921 -0.2515
 1040loPI    C115957   7.193   5.748   5.181  0.1653  0.0650  0.2045
 1040loPI    C215958   7.310   5.399   5.022 -0.2024  0.0697 -0.0898
 1040loPI    C315959   7.129   5.673   4.793  0.0845  0.4596  0.1379
 1040loPI   PO415960   7.392   5.944   5.302  0.0587  0.2767 -0.1173
 1040loPI   GL115961   7.585   5.888   5.747  0.0854 -0.1829 -0.0339
 1040loPI   GL215962   7.807   5.681   5.922  0.0129 -0.0140 -0.4381
 1040loPI   C1A15963   7.456   6.038   6.169 -0.2556 -0.1342  0.0578
 1040loPI   C2A15964   7.568   6.116   6.571 -0.1563  0.3055  0.1361
 1040loPI   C3A15965   7.515   6.232   7.026 -0.1834 -0.1036  0.0770
 1040loPI   C4A15966   7.562   6.163   7.395  0.2288  0.2496 -0.0653
 1040loPI   C5A15967   7.514   6.476   7.859 -0.0428  0.0278 -0.1093
 1040loPI   C6A15968   7.434   6.518   8.242  0.1199  0.0947  0.1386
 1040loPI   C1B15969   7.869   5.744   6.354  0.0132  0.1284  0.0302
 1040loPI   C2B15970   7.894   5.722   6.715  0.0513  0.0987 -0.1471
 1040loPI   C3B15971   7.990   5.419   7.057  0.2252  0.4327 -0.0275
 1040loPI   C4B15972   8.103   5.258   7.336 -0.1219  0.3213 -0.0109
 1041loPI    C115973   5.709  11.590   5.299 -0.0627 -0.0986 -0.0998
 1041loPI    C215974   5.994  11.466   5.047 -0.0218 -0.1558 -0.0263
 1041loPI    C315975   5.698  11.701   4.915  0.0236 -0.1491 -0.1173
 1041loPI   PO415976   5.631  11.327   5.386 -0.1933 -0.1792  0.0823
 1041loPI   GL115977   5.538  11.210   5.693  0.1378  0.1451 -0.1171
 1041loPI   GL215978   5.226  11.317   5.859  0.4471 -0.0393  0.1634
 1041loPI   C1A15979   5.215  10.797   5.759  0.0604 -0.1035 -0.1577
 1041loPI   C2A15980   4.934  10.655   6.028  0.0573  0.0917  0.2652
 1041loPI   C3A15981   4.967  10.496   6.433  0.0731 -0.1345  0.1271
 1041loPI   C4A15982   4.923  10.484   6.866  0.0057 -0.0491 -0.0469
 1041loPI   C5A15983   4.840  10.458   7.412 -0.0008  0.0573  0.1709
 1041loPI   C6A15984   4.921  10.371   7.927 -0.0362 -0.1415  0.1404
 1041loPI   C1B15985   5.235  11.433   6.271  0.0854 -0.0835 -0.2507
 1041loPI   C2B15986   5.352  11.415   6.744  0.2808 -0.1397  0.2465
 1041loPI   C3B15987   5.385  11.235   7.189 -0.0962  0.2249 -0.3800
 1041loPI   C4B15988   5.408  11.218   7.637 -0.1636  0.0682  0.1725
 1042loPI    C115989  11.587  16.131   5.695 -0.2245 -0.1979  0.1194
 1042loPI    C215990  11.851  16.053   5.404  0.1139  0.1309  0.3283
 1042loPI    C315991  11.647  15.754   5.576 -0.1333 -0.0634 -0.2763
 1042loPI   PO415992  11.703  16.208   5.878  0.0773 -0.1731  0.1222
 1042loPI   GL115993  11.578  16.658   6.026 -0.1153 -0.2359 -0.1642
 1042loPI   GL215994  11.544  16.403   6.337 -0.3173 -0.0412  0.1362
 1042loPI   C1A15995  11.507  16.918   6.434 -0.3824  0.0920  0.2039
 1042loPI   C2A15996  11.478  17.040   6.769  0.0544  0.0096  0.2468
 1042loPI   C3A15997  11.475  17.169   7.237  0.0460  0.1755 -0.2394
 1042loPI   C4A15998  11.776  17.143   7.633  0.3325 -0.0399  0.1336
 1042loPI   C5A15999  12.036  17.229   7.953 -0.1998 -0.0211 -0.1809
 1042loPI   C6A16000  12.245  17.307   8.304 -0.1904 -0.0731 -0.0419
 1042loPI   C1B16001  11.479  16.537   6.727 -0.0647 -0.1084  0.3131
 1042loPI   C2B16002  11.591  16.542   7.150  0.2041 -0.0299 -0.1255
 1042loPI   C3B16003  11.686  16.500   7.600 -0.0290  0.0183 -0.1704
 1042loPI   C4B16004  11.699  16.676   7.921 -0.2199 -0.2497 -0.0078
 1043loPI    C116005   7.845   9.759   5.611  0.0326 -0.0905  0.0419
 1043loPI    C216006   7.548   9.610   5.389  0.0342 -0.3834  0.2311
 1043loPI    C316007   7.632  10.001   5.374 -0.5517 -0.2405  0.3919
 1043loPI   PO416008   8.048   9.423   5.800  0.0947  0.0700 -0.1326
 1043loPI   GL116009   7.905   9.477   6.174  0.0485 -0.2392  0.2308
 1043loPI   GL216010   7.649   9.405   6.105  0.1483 -0.2321  0.1082
 1043loPI   C1A16011   8.081   9.536   6.565  0.1882  0.1834 -0.0304
 1043loPI   C2A16012   8.092   9.564   6.970  0.1099  0.3013  0.1126
 1043loPI   C3A16013   8.391   9.608   7.289  0.0136 -0.0517 -0.2894
 1043loPI   C4A16014   8.294   9.772   7.715  0.0603 -0.0221  0.2220
 1043loPI   C5A16015   8.378   9.639   8.077 -0.3825  0.2023  0.0503
 1043loPI   C6A16016   8.304   9.141   7.995  0.0932  0.0867  0.1358
 1043loPI   C1B16017   7.574   9.442   6.558  0.4216 -0.1204 -0.0913
 1043loPI   C2B16018   7.579   9.445   6.905 -0.1259 -0.1180 -0.3581
 1043loPI   C3B16019   7.706   9.352   7.277  0.1149 -0.0104 -0.1096
 1043loPI   C4B16020   8.114   9.272   7.497 -0.1116  0.2098 -0.2923
 1044loPI    C116021   6.564   8.071   5.169  0.0620  0.1557  0.0715
 1044loPI    C216022   6.730   7.707   5.147  0.1742  0.1916  0.2998
 1044loPI    C316023   6.357   7.765   5.014  0.2698  0.0662 -0.0339
 1044loPI   PO416024   6.538   8.225   5.440  0.0028  0.0831  0.2406
 1044loPI   GL116025   6.486   8.191   5.795  0.1596  0.0153 -0.0856
 1044loPI   GL216026   6.685   8.504   5.867 -0.1179 -0.1368  0.1470
 1044loPI   C1A16027   6.314   8.194   6.174  0.1025  0.0606 -0.0641
 1044loPI   C2A16028   6.206   8.293   6.499 -0.2930  0.0235 -0.3991
 1044loPI   C3A16029   6.164   8.347   6.896 -0.1605  0.3935 -0.0444
 1044loPI   C4A16030   6.083   8.346   7.386  0.0305 -0.1414  0.1422
 1044loPI   C5A16031   6.297   8.433   7.779  0.0281  0.4613  0.0326
 1044loPI   C6A16032   6.462   8.515   8.210  0.0530 -0.1487 -0.0959
 1044loPI   C1B16033   6.630   8.569   6.261  0.2313 -0.0433 -0.2040
 1044loPI   C2B16034   6.387   8.756   6.614  0.3328 -0.2203  0.0986
 1044loPI   C3B16035   6.406   8.810   7.050 -0.0078  0.2473  0.1657
 1044loPI   C4B16036   6.449   8.876   7.511 -0.2018  0.1679  0.2272
 1045loPI    C116037   2.910   1.217   5.496  0.0975 -0.2314 -0.1887
 1045loPI    C216038   2.886   1.589   5.640  0.1482 -0.2531 -0.1235
 1045loPI    C316039   2.687   1.490   5.307 -0.2757 -0.3019  0.1358
 1045loPI   PO416040   2.849   1.100   5.708 -0.1619  0.0105 -0.0809
 1045loPI   GL116041   3.111   1.045   5.962  0.0032 -0.0265 -0.2094
 1045loPI   GL216042   3.472   0.841   6.030  0.0488  0.0141  0.0014
 1045loPI   C1A16043   3.346   1.243   6.306  0.5697 -0.1035 -0.0672
 1045loPI   C2A16044   3.530   1.310   6.656 -0.1490  0.1872 -0.0334
 1045loPI   C3A16045   3.764   1.129   7.023  0.1713  0.1475  0.0194
 1045loPI   C4A16046   3.840   1.113   7.394  0.1576  0.3609 -0.0226
 1045loPI   C5A16047   3.799   1.015   7.721  0.1875 -0.2990 -0.2034
 1045loPI   C6A16048   4.077   0.807   7.958  0.1291  0.2731  0.0421
 1045loPI   C1B16049   3.491   0.791   6.411 -0.0643  0.0294 -0.2355
 1045loPI   C2B16050   3.322   0.854   6.705  0.0310  0.1146  0.0916
 1045loPI   C3B16051   3.413   0.672   6.981  0.1690  0.2831  0.1098
 1045loPI   C4B16052   3.592   0.705   7.359 -0.0470  0.2492 -0.1620
 1046loPI    C116053   8.220   1.202   5.863 -0.1310  0.4144 -0.1350
 1046loPI    C216054   8.466   1.339   5.578  0.0692  0.0122 -0.1626
 1046loPI    C316055   8.448   0.946   5.656 -0.2855  0.0757  0.1030
 1046loPI   PO416056   8.253   1.357   6.061 -0.0343 -0.0605  0.0121
 1046loPI   GL116057   8.562   1.310   6.314 -0.0623  0.3953  0.1497
 1046loPI   GL216058   8.683   1.559   6.175  0.0985 -0.3910 -0.0888
 1046loPI   C1A16059   8.743   1.147   6.707  0.1196  0.3603  0.0984
 1046loPI   C2A16060   8.931   1.030   7.146 -0.0083 -0.1621  0.0688
 1046loPI   C3A16061   9.099   1.270   7.526  0.0005  0.1696  0.3960
 1046loPI   C4A16062   9.324   1.555   7.648 -0.0343 -0.0444  0.0586
 1046loPI   C5A16063   9.866   1.669   7.892  0.3215 -0.1598 -0.0565
 1046loPI   C6A16064  10.060   1.470   8.291  0.2057  0.0324 -0.2362
 1046loPI   C1B16065   8.625   1.619   6.654  0.1490  0.0573 -0.2052
 1046loPI   C2B16066   8.650   1.542   7.136 -0.0907 -0.0219  0.0173
 1046loPI   C3B16067   8.601   1.249   7.495  0.1857  0.2736  0.0982
 1046loPI   C4B16068   8.535   1.295   7.954  0.2295 -0.1895  0.3192
 1047loPI    C116069  10.468   3.666   5.263 -0.0263 -0.0386 -0.1748
 1047loPI    C216070  10.290   4.000   5.134 -0.0288  0.0216 -0.0179
 1047loPI    C316071  10.082   3.660   5.160 -0.0616  0.0392 -0.0491
 1047loPI   PO416072  10.543   3.757   5.505  0.2652 -0.3485  0.2388
 1047loPI   GL116073  10.426   4.016   5.982 -0.1425  0.0343  0.0258
 1047loPI   GL216074  10.371   3.758   6.008 -0.3833  0.1367 -0.1769
 1047loPI   C1A16075  10.777   4.161   6.204  0.0285  0.2431  0.0962
 1047loPI   C2A16076  10.871   4.181   6.592  0.0518  0.0745 -0.0440
 1047loPI   C3A16077  10.824   4.088   7.033 -0.0377  0.1688  0.4330
 1047loPI   C4A16078  10.736   4.060   7.364  0.1557 -0.2271  0.0197
 1047loPI   C5A16079  10.901   4.032   7.792 -0.0422  0.4391  0.0820
 1047loPI   C6A16080  10.801   4.209   8.248 -0.0954  0.2151  0.0650
 1047loPI   C1B16081  10.340   3.896   6.465  0.0176  0.1717  0.1928
 1047loPI   C2B16082  10.395   3.876   6.940 -0.1223  0.0705  0.2227
 1047loPI   C3B16083  10.328   3.720   7.306 -0.0306 -0.0456  0.1933
 1047loPI   C4B16084  10.287   3.725   7.792 -0.3999  0.1430  0.2515
 1048loPI    C116085  12.263   5.464   5.050  0.0659  0.2563 -0.0399
 1048loPI    C216086  12.158   5.108   4.901  0.0329  0.1667  0.1919
 1048loPI    C316087  12.385   5.357   4.685 -0.0756  0.0717 -0.0347
 1048loPI   PO416088  12.372   5.482   5.320 -0.0826  0.2136  0.0141
 1048loPI   GL116089  12.573   5.617   5.637 -0.1757  0.1118 -0.0481
 1048loPI   GL216090  12.416   5.416   5.788 -0.1973  0.1583  0.1096
 1048loPI   C1A16091  12.497   5.804   6.097 -0.0664  0.0878  0.0270
 1048loPI   C2A16092  12.511   5.943   6.516  0.0414 -0.1283  0.1078
 1048loPI   C3A16093  12.495   5.899   6.979  0.0577 -0.0298 -0.1090
 1048loPI   C4A16094  12.542   5.794   7.349 -0.0153 -0.3955 -0.0594
 1048loPI   C5A16095  12.682   5.616   7.768  0.0172 -0.0305 -0.1451
 1048loPI   C6A16096  13.112   5.564   7.887  0.1412 -0.2341  0.0623
 1048loPI   C1B16097  12.469   5.323   6.221 -0.1085 -0.3439  0.0346
 1048loPI   C2B16098  12.525   5.221   6.609 -0.0219 -0.1726  0.0776
 1048loPI   C3B16099  12.507   5.282   6.986 -0.1709  0.0874 -0.1251
 1048loPI   C4B16100  12.498   5.282   7.412  0.0746 -0.2770 -0.0274
 1049loPI    C116101   7.813   1.757   5.733 -0.3046 -0.1382  0.0468
 1049loPI    C216102   7.559   1.582   5.478 -0.0074 -0.2373 -0.1880
 1049loPI    C316103   7.954   1.553   5.418  0.0707 -0.3128  0.3201
 1049loPI   PO416104   7.843   1.702   5.970  0.3999  0.1363  0.1013
 1049loPI   GL116105   8.224   1.807   6.210  0.0605 -0.2941 -0.0721
 1049loPI   GL216106   8.173   1.649   6.471  0.1488  0.1335 -0.1018
 1049loPI   C1A16107   8.325   2.138   6.423 -0.1632  0.2917 -0.1792
 1049loPI   C2A16108   8.155   2.462   6.725 -0.1838 -0.0206 -0.0715
 1049loPI   C3A16109   8.042   2.471   7.112  0.1947 -0.0975  0.1556
 1049loPI   C4A16110   7.922   2.447   7.535 -0.1893  0.2880 -0.2837
 1049loPI   C5A16111   7.687   2.645   7.803 -0.0822 -0.0508 -0.1134
 1049loPI   C6A16112   7.476   2.598   8.217  0.0915  0.0144  0.0792
 1049loPI   C1B16113   8.191   1.824   6.898 -0.0627 -0.3006  0.0398
 1049loPI   C2B16114   8.264   1.889   7.309  0.0373  0.1793  0.2662
 1049loPI   C3B16115   8.435   1.770   7.648 -0.0801  0.0728 -0.0001
 1049loPI   C4B16116   8.793   1.693   7.720  0.1475 -0.1459  0.0417
 1050loPI    C116117   3.905   3.444   5.583  0.1538 -0.2110 -0.0040
 1050loPI    C216118   3.889   3.476   5.185 -0.1457 -0.0449  0.0187
 1050loPI    C316119   3.865   3.116   5.357 -0.1910 -0.1020 -0.1059
 1050loPI   PO416120   4.068   3.660   5.634  0.1840 -0.3323 -0.0604
 1050loPI   GL116121   4.321   3.865   5.866 -0.1108 -0.0680 -0.0655
 1050loPI   GL216122   4.477   4.019   5.721  0.1029  0.1238  0.4507
 1050loPI   C1A16123   4.087   4.082   6.258 -0.1403  0.3439  0.1247
 1050loPI   C2A16124   3.988   4.193   6.630 -0.3621 -0.0248  0.1263
 1050loPI   C3A16125   3.940   4.159   7.024 -0.2475 -0.3189 -0.1037
 1050loPI   C4A16126   3.999   4.135   7.389  0.2053  0.3368 -0.0010
 1050loPI   C5A16127   4.029   4.131   7.812  0.0428  0.1907 -0.1336
 1050loPI   C6A16128   3.991   3.715   8.044  0.0492  0.1775  0.1176
 1050loPI   C1B16129   4.574   4.165   6.168  0.4154 -0.2318  0.0670
 1050loPI   C2B16130   4.501   4.184   6.555 -0.0116  0.0881 -0.1476
 1050loPI   C3B16131   4.539   4.251   7.055  0.1126  0.0284  0.1774
 1050loPI   C4B16132   4.421   4.283   7.543 -0.0508 -0.0862 -0.1621
 1051loPI    C116133   0.884  14.559   5.332 -0.0607 -0.0780  0.0374
 1051loPI    C216134   0.910  14.168   5.250 -0.1141 -0.0367 -0.1820
 1051loPI    C316135   0.730  14.415   4.992 -0.1766  0.1167  0.0064
 1051loPI   PO416136   1.161  14.527   5.543 -0.3416 -0.1811  0.3209
 1051loPI   GL116137   1.428  14.421   5.988 -0.1091 -0.0968 -0.0928
 1051loPI   GL216138   1.707  14.254   6.029  0.3276 -0.3521  0.1685
 1051loPI   C1A16139   1.497  14.659   6.421  0.2171 -0.2109 -0.1620
 1051loPI   C2A16140   1.355  14.779   6.780 -0.1067  0.2143  0.0680
 1051loPI   C3A16141   1.275  14.822   7.253  0.1247 -0.0810 -0.1071
 1051loPI   C4A16142   1.234  14.994   7.663  0.0782 -0.0722  0.1553
 1051loPI   C5A16143   1.452  15.162   7.974  0.3400 -0.1733 -0.2738
 1051loPI   C6A16144   1.278  15.260   8.363 -0.0170 -0.1793 -0.0577
 1051loPI   C1B16145   1.601  14.090   6.355  0.2527  0.5173 -0.4630
 1051loPI   C2B16146   1.671  14.050   6.806  0.2286  0.0301  0.1605
 1051loPI   C3B16147   1.646  13.877   7.247 -0.2746  0.1613 -0.0750
 1051loPI   C4B16148   1.420  13.547   7.587 -0.1299  0.3121 -0.0852
 1052loPI    C116149   9.143  11.074   5.612  0.2885  0.2938 -0.2093
 1052loPI    C216150   8.893  11.087   5.300 -0.1188 -0.0432  0.0926
 1052loPI    C316151   9.068  10.742   5.402  0.3450  0.1542 -0.0111
 1052loPI   PO416152   9.189  11.119   5.827 -0.0701  0.0184 -0.0962
 1052loPI   GL116153   9.202  10.962   6.221  0.0360 -0.0144  0.1082
 1052loPI   GL216154   9.330  10.734   6.303  0.1734 -0.1191  0.1481
 1052loPI   C1A16155   9.191  10.987   6.696 -0.3766 -0.2773 -0.2036
 1052loPI   C2A16156   9.460  10.921   7.167  0.1565 -0.1561 -0.1850
 1052loPI   C3A16157   9.424  10.647   7.557 -0.2047 -0.0553 -0.0153
 1052loPI   C4A16158   9.445  10.525   7.943  0.2602  0.0505  0.0935
 1052loPI   C5A16159   9.628  10.289   8.263 -0.0252 -0.0538 -0.1891
 1052loPI   C6A16160   9.753   9.977   8.296  0.1237  0.3886  0.0603
 1052loPI   C1B16161   9.203  10.448   6.658  0.2550 -0.0784 -0.1995
 1052loPI   C2B16162   9.221  10.166   7.002  0.0877  0.1212 -0.0168
 1052loPI   C3B16163   9.319  10.126   7.432  0.2858 -0.1454 -0.1629
 1052loPI   C4B16164   9.351  10.029   7.926 -0.1452  0.1809 -0.2417
 1053loPI    C116165   5.737   9.580   5.183  0.0972 -0.1805  0.1220
 1053loPI    C216166   6.038   9.754   4.984 -0.0382 -0.0922 -0.0076
 1053loPI    C316167   5.948   9.371   4.915 -0.0840 -0.0621 -0.1172
 1053loPI   PO416168   5.755   9.547   5.446  0.2373  0.3203 -0.1799
 1053loPI   GL116169   5.837   9.503   5.853  0.1611 -0.1606  0.2360
 1053loPI   GL216170   5.671   9.764   5.889  0.1601 -0.1442 -0.0913
 1053loPI   C1A16171   5.921   9.422   6.219  0.1572 -0.0486  0.0124
 1053loPI   C2A16172   5.956   9.424   6.720  0.0260 -0.0464 -0.3180
 1053loPI   C3A16173   5.904   9.437   7.113  0.0725 -0.1376 -0.1926
 1053loPI   C4A16174   5.962   9.534   7.431  0.1334 -0.1680  0.1543
 1053loPI   C5A16175   5.900   9.761   7.790 -0.1492  0.3628  0.0387
 1053loPI   C6A16176   6.058  10.014   8.243  0.0852 -0.0488  0.1497
 1053loPI   C1B16177   5.548   9.820   6.286  0.0920 -0.0521 -0.0232
 1053loPI   C2B16178   5.398   9.817   6.625 -0.0198  0.0400 -0.1214
 1053loPI   C3B16179   5.430   9.766   7.069 -0.2671 -0.0909  0.0657
 1053loPI   C4B16180   5.451   9.733   7.542 -0.0110 -0.1483 -0.0586
 1054loPI    C116181   1.919  12.044   5.168 -0.0856  0.0804 -0.0857
 1054loPI    C216182   2.258  11.923   4.993 -0.0160  0.0824  0.0462
 1054loPI    C316183   2.117  12.290   4.923  0.0838  0.1311  0.0992
 1054loPI   PO416184   1.919  11.851   5.367 -0.2171 -0.1307  0.0580
 1054loPI   GL116185   1.871  11.745   5.767  0.0195  0.0064  0.3012
 1054loPI   GL216186   2.085  11.677   5.879  0.1651  0.0190 -0.0756
 1054loPI   C1A16187   1.754  11.861   6.221 -0.0926 -0.1556 -0.1341
 1054loPI   C2A16188   1.753  11.773   6.702 -0.4113 -0.0406  0.5169
 1054loPI   C3A16189   1.678  11.655   7.172  0.0321  0.2618  0.0038
 1054loPI   C4A16190   1.708  11.753   7.615 -0.2121  0.0536  0.2724
 1054loPI   C5A16191   1.674  11.801   8.095  0.1320 -0.0017 -0.4127
 1054loPI   C6A16192   1.366  11.879   8.465  0.0123  0.1116  0.0103
 1054loPI   C1B16193   2.164  11.584   6.330 -0.1017 -0.2211 -0.1013
 1054loPI   C2B16194   2.167  11.544   6.726  0.1553 -0.0024  0.0031
 1054loPI   C3B16195   2.095  11.408   7.119  0.2358  0.1987  0.2435
 1054loPI   C4B16196   2.122  11.457   7.573 -0.0235  0.0533 -0.2275
 1055loPI    C116197  17.119   1.904   5.279 -0.1352  0.2614  0.0909
 1055loPI    C216198  16.769   1.925   5.086 -0.0960  0.1779  0.0100
 1055loPI    C316199  17.109   1.889   4.879 -0.0444  0.1998  0.0907
 1055loPI   PO416200  17.080   1.814   5.487  0.1598 -0.2637  0.2004
 1055loPI   GL116201  16.883   1.834   5.906 -0.3328  0.1467  0.1492
 1055loPI   GL216202  17.132   1.606   5.977 -0.1646 -0.1128 -0.1949
 1055loPI   C1A16203  16.992   2.148   6.178 -0.3681  0.1226  0.1243
 1055loPI   C2A16204  17.120   2.231   6.675  0.1898  0.1865  0.2159
 1055loPI   C3A16205  17.084   2.354   7.107  0.2469 -0.0113  0.1469
 1055loPI   C4A16206  17.173   2.483   7.518 -0.0142  0.2842 -0.1069
 1055loPI   C5A16207  17.239   2.543   7.891 -0.2896 -0.0413  0.1426
 1055loPI   C6A16208  17.616   2.725   8.058  0.0877  0.2056 -0.3001
 1055loPI   C1B16209  17.098   1.744   6.429  0.4029  0.2307  0.0861
 1055loPI   C2B16210  17.087   1.788   6.861 -0.1411 -0.0584 -0.0254
 1055loPI   C3B16211  17.224   1.843   7.274 -0.0746 -0.1671  0.0562
 1055loPI   C4B16212  17.194   1.972   7.669  0.4300  0.0564 -0.2772
 1056loPI    C116213   3.347   4.819   5.191 -0.1899  0.1279 -0.2443
 1056loPI    C216214   3.343   4.578   4.872  0.0509 -0.2174  0.0055
 1056loPI    C316215   3.687   4.741   4.995 -0.0578 -0.0033  0.0312
 1056loPI   PO416216   3.107   4.725   5.339 -0.0173 -0.0264  0.1334
 1056loPI   GL116217   2.831   4.860   5.675 -0.0447 -0.0069 -0.2730
 1056loPI   GL216218   2.570   5.030   5.708 -0.2070 -0.1501  0.1802
 1056loPI   C1A16219   3.158   4.524   5.947  0.1003  0.2629 -0.2682
 1056loPI   C2A16220   3.113   4.548   6.458  0.0683 -0.3787 -0.0302
 1056loPI   C3A16221   3.227   4.597   6.829  0.2313  0.0590  0.0955
 1056loPI   C4A16222   3.143   4.650   7.254  0.0532  0.0817  0.2270
 1056loPI   C5A16223   3.018   4.519   7.640 -0.1137  0.2704  0.0520
 1056loPI   C6A16224   2.872   4.283   7.930 -0.0372  0.3780  0.1229
 1056loPI   C1B16225   2.499   5.069   6.223  0.2947  0.0320 -0.1345
 1056loPI   C2B16226   2.479   5.100   6.623  0.0093  0.0452 -0.0915
 1056loPI   C3B16227   2.320   5.107   6.989 -0.1348  0.0916  0.0096
 1056loPI   C4B16228   2.179   5.009   7.366 -0.0543 -0.0481  0.1589
 1057loPI    C116229   0.609   8.514   5.103 -0.1528 -0.2260 -0.0373
 1057loPI    C216230   0.435   8.322   4.799 -0.0016 -0.0780 -0.2198
 1057loPI    C316231   0.714   8.599   4.727  0.1088 -0.1137  0.0585
 1057loPI   PO416232   0.459   8.682   5.306  0.1165 -0.2090  0.2094
 1057loPI   GL116233   0.444   8.739   5.711 -0.1906 -0.0226  0.2257
 1057loPI   GL216234   0.248   9.018   5.902  0.0525  0.0496  0.1403
 1057loPI   C1A16235   0.644   8.654   6.123  0.0675 -0.0125 -0.2065
 1057loPI   C2A16236   0.668   8.697   6.637  0.1137 -0.1481  0.0018
 1057loPI   C3A16237   0.678   8.645   7.059 -0.1740  0.1117 -0.0830
 1057loPI   C4A16238   0.679   8.644   7.475  0.0056 -0.0148 -0.2468
 1057loPI   C5A16239   0.853   8.314   7.774  0.0732 -0.0269  0.0719
 1057loPI   C6A16240   1.244   8.068   7.807  0.0331  0.0560 -0.0869
 1057loPI   C1B16241   0.263   8.968   6.323 -0.0532 -0.5811  0.0916
 1057loPI   C2B16242   0.302   9.009   6.773  0.1235 -0.1903  0.1374
 1057loPI   C3B16243   0.297   9.022   7.215  0.4169  0.0771 -0.1659
 1057loPI   C4B16244   0.286   9.031   7.728 -0.1257 -0.0609  0.0709
 1058loPI    C116245  15.515  12.152   5.330 -0.0653 -0.0195 -0.1428
 1058loPI    C216246  15.421  11.933   5.009 -0.0401  0.0371 -0.1890
 1058loPI    C316247  15.760  12.145   5.014  0.0149 -0.0522 -0.0803
 1058loPI   PO416248  15.569  12.136   5.640  0.0812 -0.0164  0.0053
 1058loPI   GL116249  15.537  12.010   6.041  0.0076  0.0286 -0.2394
 1058loPI   GL216250  15.737  11.854   5.993  0.0174 -0.4227 -0.1628
 1058loPI   C1A16251  15.694  12.065   6.523 -0.0506  0.0007  0.0494
 1058loPI   C2A16252  15.636  12.041   6.980 -0.1102 -0.3747 -0.1558
 1058loPI   C3A16253  15.500  12.179   7.457  0.3110 -0.1087  0.0641
 1058loPI   C4A16254  15.533  12.135   7.946 -0.1491  0.2212  0.5473
 1058loPI   C5A16255  15.413  11.848   8.142 -0.0929  0.2981  0.0016
 1058loPI   C6A16256  15.083  11.676   8.202 -0.2180  0.3684  0.1507
 1058loPI   C1B16257  16.045  11.864   6.277 -0.3239 -0.0156 -0.0692
 1058loPI   C2B16258  16.123  11.861   6.644  0.1119  0.0898 -0.1790
 1058loPI   C3B16259  16.082  11.737   7.069 -0.0160  0.1131  0.3419
 1058loPI   C4B16260  16.011  11.825   7.427 -0.1551 -0.0066  0.1041
 1059loPI    C116261  13.466   3.086   5.177  0.1486  0.2477 -0.1068
 1059loPI    C216262  13.147   3.323   5.224  0.0569  0.1105 -0.0328
 1059loPI    C316263  13.409   3.397   4.932 -0.1498  0.1065 -0.2217
 1059loPI   PO416264  13.593   3.001   5.418 -0.0900 -0.0226  0.1947
 1059loPI   GL116265  13.627   3.228   5.706 -0.2265  0.2183  0.1398
 1059loPI   GL216266  13.375   3.403   5.715  0.1522 -0.1196  0.1551
 1059loPI   C1A16267  13.565   3.079   6.111  0.6312 -0.0300  0.0153
 1059loPI   C2A16268  13.571   3.151   6.675  0.1945 -0.0697 -0.2422
 1059loPI   C3A16269  13.580   3.256   7.153 -0.1401  0.1509 -0.1842
 1059loPI   C4A16270  13.599   3.255   7.567  0.4303 -0.1244  0.0593
 1059loPI   C5A16271  13.748   3.556   7.867  0.1760 -0.1304 -0.0140
 1059loPI   C6A16272  13.972   3.285   8.161  0.0600  0.1786  0.1245
 1059loPI   C1B16273  13.651   3.558   6.070  0.1075  0.0023  0.0058
 1059loPI   C2B16274  13.943   3.430   6.305  0.1667  0.2096 -0.1184
 1059loPI   C3B16275  13.977   3.586   6.758 -0.1497 -0.2676 -0.0228
 1059loPI   C4B16276  13.928   3.563   7.224 -0.0133  0.3068  0.0414
 1060loPI    C116277  13.475  10.273   5.203  0.0128 -0.0298  0.0214
 1060loPI    C216278  13.179  10.435   4.988  0.0798  0.1207  0.0411
 1060loPI    C316279  13.531  10.356   4.816  0.0796  0.0874  0.0557
 1060loPI   PO416280  13.372  10.381   5.489  0.0890 -0.0472  0.0691
 1060loPI   GL116281  13.294  10.228   5.844  0.0483  0.2961 -0.2029
 1060loPI   GL216282  13.189   9.818   5.887 -0.0596  0.1806  0.2425
 1060loPI   C1A16283  13.472  10.251   6.221  0.2718  0.2478  0.2821
 1060loPI   C2A16284  13.357  10.245   6.549 -0.1457  0.3171 -0.1734
 1060loPI   C3A16285  13.559  10.354   6.867  0.0014  0.0331 -0.2224
 1060loPI   C4A16286  13.688  10.474   7.292  0.0947  0.1448 -0.2062
 1060loPI   C5A16287  13.831  10.490   7.811  0.2038  0.0622 -0.0958
 1060loPI   C6A16288  14.052  10.366   8.110  0.1919 -0.0131  0.1229
 1060loPI   C1B16289  12.989  10.015   6.212  0.1105  0.1895  0.0132
 1060loPI   C2B16290  12.981   9.930   6.673 -0.2800 -0.1597 -0.2489
 1060loPI   C3B16291  13.076  10.043   7.055  0.0722 -0.3202  0.0324
 1060loPI   C4B16292  13.115   9.971   7.450  0.3631 -0.1393  0.0166
 1061loPI    C116293   8.677   7.949   5.310  0.2635 -0.0634  0.1129
 1061loPI    C216294   8.382   7.858   5.056  0.1620  0.0882  0.1751
 1061loPI    C316295   8.743   7.957   4.916  0.1412  0.0506  0.0943
 1061loPI   PO416296   8.695   7.771   5.504 -0.0531 -0.1241  0.3481
 1061loPI   GL116297   8.549   7.533   5.861  0.0082  0.1388 -0.2129
 1061loPI   GL216298   8.296   7.743   5.996 -0.2249 -0.1259  0.1851
 1061loPI   C1A16299   8.461   7.128   6.046  0.0212 -0.0642  0.0415
 1061loPI   C2A16300   8.753   6.865   6.387  0.1149 -0.0368  0.1892
 1061loPI   C3A16301   8.946   6.803   6.825  0.0650  0.2684  0.1023
 1061loPI   C4A16302   8.889   6.547   7.253  0.1653 -0.2309  0.2171
 1061loPI   C5A16303   8.821   6.536   7.671  0.2517 -0.1418 -0.0445
 1061loPI   C6A16304   8.519   6.630   8.032  0.1204  0.0230 -0.1359
 1061loPI   C1B16305   8.289   7.797   6.396 -0.2486  0.0160 -0.1315
 1061loPI   C2B16306   8.101   7.505   6.734  0.1068  0.3131  0.1864
 1061loPI   C3B16307   7.957   7.626   7.194  0.2649 -0.0016  0.0578
 1061loPI   C4B16308   7.624   7.483   7.519 -0.0782  0.0990  0.2301
 1062loPI    C116309  12.536   8.799   5.297 -0.0557  0.2833  0.0924
 1062loPI    C216310  12.599   9.193   5.324  0.2534  0.2611 -0.2340
 1062loPI    C316311  12.853   8.963   5.118 -0.0702 -0.0714 -0.2732
 1062loPI   PO416312  12.515   8.577   5.586  0.1018 -0.2162 -0.1414
 1062loPI   GL116313  12.441   8.666   5.960 -0.1239 -0.0725 -0.1954
 1062loPI   GL216314  12.149   8.475   5.915 -0.2906  0.0488  0.1201
 1062loPI   C1A16315  12.627   8.767   6.419 -0.1039 -0.3736 -0.1495
 1062loPI   C2A16316  12.777   8.703   6.833  0.0062 -0.1298 -0.2855
 1062loPI   C3A16317  12.694   9.091   7.117 -0.0517  0.2708 -0.3021
 1062loPI   C4A16318  12.679   9.048   7.619  0.4738 -0.0772  0.1562
 1062loPI   C5A16319  12.600   8.865   8.053 -0.0673  0.0121  0.1635
 1062loPI   C6A16320  12.655   9.110   8.441  0.2295  0.3392  0.3256
 1062loPI   C1B16321  12.236   8.439   6.401 -0.0227 -0.3268  0.1449
 1062loPI   C2B16322  12.341   8.475   6.830 -0.1982 -0.0825  0.1207
 1062loPI   C3B16323  12.255   8.350   7.292  0.1680 -0.0226  0.0142
 1062loPI   C4B16324  12.442   8.591   7.623 -0.0727  0.0669 -0.2414
 1063loPI    C116325   4.441   8.687   5.248 -0.1164 -0.0177 -0.0963
 1063loPI    C216326   4.069   8.761   5.120 -0.1162  0.0602 -0.0527
 1063loPI    C316327   4.242   8.408   5.042 -0.2275 -0.0049 -0.0066
 1063loPI   PO416328   4.416   8.799   5.502 -0.2467 -0.3083  0.1083
 1063loPI   GL116329   4.346   8.628   5.840 -0.1561 -0.1112 -0.0386
 1063loPI   GL216330   4.405   8.341   5.778 -0.2963 -0.0946 -0.1070
 1063loPI   C1A16331   4.370   8.806   6.381  0.0479  0.2748 -0.1930
 1063loPI   C2A16332   4.278   8.790   6.781 -0.1269  0.3012 -0.1596
 1063loPI   C3A16333   4.506   8.847   7.299  0.1934  0.3188 -0.2152
 1063loPI   C4A16334   4.450   8.820   7.756  0.1259 -0.0453 -0.1914
 1063loPI   C5A16335   4.442   8.586   8.187 -0.0059  0.0442  0.1014
 1063loPI   C6A16336   4.459   8.169   8.453 -0.1916  0.3715  0.1205
 1063loPI   C1B16337   4.635   8.406   6.212 -0.0417 -0.1837 -0.1224
 1063loPI   C2B16338   4.598   8.303   6.627 -0.1453 -0.1310  0.2897
 1063loPI   C3B16339   4.579   8.467   6.994 -0.2466  0.1130  0.2005
 1063loPI   C4B16340   4.628   8.386   7.503 -0.5769 -0.0205 -0.0178
 1064loPI    C116341   0.938   0.717   5.429 -0.0325  0.1205  0.0542
 1064loPI    C216342   1.068   0.918   5.109 -0.0842 -0.0307 -0.0627
 1064loPI    C316343   0.837   0.595   5.062 -0.0483 -0.0848  0.1256
 1064loPI   PO416344   1.084   0.919   5.650  0.0732  0.2941  0.0793
 1064loPI   GL116345   0.965   1.111   5.950 -0.0571 -0.1665  0.0731
 1064loPI   GL216346   1.333   1.262   6.030  0.0469  0.2405  0.2925
 1064loPI   C1A16347   0.764   1.302   6.253 -0.0555  0.1054  0.2457
 1064loPI   C2A16348   0.829   1.375   6.650  0.2252 -0.1855  0.1299
 1064loPI   C3A16349   0.881   1.427   7.082  0.2121 -0.1854 -0.1814
 1064loPI   C4A16350   0.839   1.275   7.453  0.2252 -0.0468  0.3735
 1064loPI   C5A16351   0.968   1.244   7.882  0.0803  0.1207  0.0238
 1064loPI   C6A16352   0.753   1.130   8.287  0.2553 -0.2266  0.0806
 1064loPI   C1B16353   1.173   1.093   6.419 -0.0965  0.0456  0.3346
 1064loPI   C2B16354   1.230   1.126   6.890  0.0429  0.2755  0.1583
 1064loPI   C3B16355   1.237   1.003   7.364 -0.0110 -0.0057 -0.3410
 1064loPI   C4B16356   1.484   1.068   7.842  0.1753 -0.1876 -0.1032
 1065loPI    C116357   4.845   6.395   5.512 -0.0576  0.0195  0.0634
 1065loPI    C216358   4.815   6.422   5.114 -0.2227  0.2678  0.0900
 1065loPI    C316359   4.977   6.097   5.281  0.0092  0.2374 -0.1857
 1065loPI   PO416360   4.965   6.502   5.636 -0.0724 -0.0401  0.2109
 1065loPI   GL116361   5.071   6.492   5.999 -0.2573 -0.0763  0.1998
 1065loPI   GL216362   4.800   6.461   6.087  0.1669 -0.0575  0.1175
 1065loPI   C1A16363   5.254   6.493   6.369  0.2160 -0.1048  0.3188
 1065loPI   C2A16364   5.261   6.540   6.720 -0.1298 -0.1967 -0.2166
 1065loPI   C3A16365   5.315   6.456   7.121 -0.1682 -0.1165 -0.0911
 1065loPI   C4A16366   5.200   6.461   7.582 -0.1481 -0.0136  0.1307
 1065loPI   C5A16367   5.343   6.706   7.955  0.1931  0.0282  0.0105
 1065loPI   C6A16368   5.559   7.026   8.232  0.2015  0.1122 -0.1336
 1065loPI   C1B16369   4.774   6.451   6.550  0.0818  0.0155 -0.0154
 1065loPI   C2B16370   4.729   6.469   7.014  0.0098 -0.4019 -0.3032
 1065loPI   C3B16371   4.659   6.528   7.484  0.0888 -0.0046 -0.0186
 1065loPI   C4B16372   4.803   6.641   7.923  0.0308 -0.1107  0.2471
 1066loPI    C116373   4.851   7.367   5.231  0.0745  0.0650 -0.0633
 1066loPI    C216374   4.765   7.717   5.405  0.0852 -0.0267  0.1287
 1066loPI    C316375   4.474   7.499   5.238  0.0641  0.0285  0.0934
 1066loPI   PO416376   5.051   7.320   5.497  0.3101  0.0579 -0.0157
 1066loPI   GL116377   4.756   7.425   5.841 -0.0725  0.1062 -0.0532
 1066loPI   GL216378   4.407   7.513   5.756 -0.2299 -0.3150 -0.0045
 1066loPI   C1A16379   4.664   7.428   6.305  0.0801  0.0296 -0.0365
 1066loPI   C2A16380   4.587   7.413   6.734 -0.1324  0.2843  0.1617
 1066loPI   C3A16381   4.702   7.416   7.162  0.1894 -0.0970  0.1019
 1066loPI   C4A16382   4.736   7.465   7.592 -0.2212  0.0859  0.0829
 1066loPI   C5A16383   4.879   7.476   7.916  0.0874 -0.0309 -0.1842
 1066loPI   C6A16384   5.005   7.091   8.174 -0.2759 -0.0699 -0.1199
 1066loPI   C1B16385   4.168   7.502   6.204  0.1324 -0.0294 -0.1729
 1066loPI   C2B16386   4.052   7.433   6.619 -0.1565  0.1490 -0.2847
 1066loPI   C3B16387   4.183   7.426   7.023  0.0204  0.1389 -0.2051
 1066loPI   C4B16388   4.206   7.416   7.428 -0.0783  0.1452 -0.2549
 1067loPI    C116389   2.354   5.164   5.057  0.0477  0.0485  0.1446
 1067loPI    C216390   2.176   4.807   5.019 -0.0635  0.1233 -0.0537
 1067loPI    C316391   2.478   4.907   4.776  0.0139  0.1378  0.0476
 1067loPI   PO416392   2.332   5.191   5.303  0.1293 -0.0285  0.3933
 1067loPI   GL116393   2.144   5.271   5.667  0.2267  0.0159 -0.1116
 1067loPI   GL216394   2.296   5.539   5.777 -0.1567 -0.2106  0.1985
 1067loPI   C1A16395   2.024   5.136   6.078  0.0449  0.0935 -0.2161
 1067loPI   C2A16396   1.961   5.035   6.407  0.4666 -0.2966 -0.0619
 1067loPI   C3A16397   1.867   4.905   6.872  0.0346 -0.0832 -0.3356
 1067loPI   C4A16398   1.710   4.835   7.337 -0.0706  0.0678  0.1747
 1067loPI   C5A16399   1.899   4.753   7.744  0.0651  0.0348  0.0641
 1067loPI   C6A16400   2.134   5.016   8.073  0.0885  0.0539 -0.1779
 1067loPI   C1B16401   2.258   5.486   6.296 -0.3719 -0.2507 -0.2934
 1067loPI   C2B16402   2.215   5.556   6.733  0.1671  0.1849  0.0080
 1067loPI   C3B16403   2.343   5.681   7.167  0.0880 -0.1777 -0.0930
 1067loPI   C4B16404   2.470   5.929   7.482  0.0674 -0.0028  0.1636
 1068loPI    C116405  17.914  15.448   6.105 -0.3692 -0.2005 -0.0099
 1068loPI    C216406  17.798  15.641   5.775 -0.1351 -0.0943 -0.0329
 1068loPI    C316407  17.525  15.510   6.037 -0.3127 -0.0193 -0.1776
 1068loPI   PO416408  18.114  15.238   5.974  0.0832 -0.0289 -0.1066
 1068loPI   GL116409  18.283  15.012   6.263  0.1177  0.2395  0.0434
 1068loPI   GL216410  18.554  14.808   6.424  0.0674  0.0755  0.1835
 1068loPI   C1A16411  18.211  15.412   6.577 -0.1559  0.0177 -0.0633
 1068loPI   C2A16412  18.240  15.473   7.018  0.1690  0.2884 -0.2449
 1068loPI   C3A16413  18.335  15.098   7.331 -0.0257  0.2352  0.1448
 1068loPI   C4A16414  18.213  15.007   7.744  0.0327  0.1164 -0.0747
 1068loPI   C5A16415  18.466  15.073   8.174  0.3073  0.1199 -0.0175
 1068loPI   C6A16416  18.480  15.151   8.596 -0.0428  0.0639 -0.1910
 1068loPI   C1B16417  18.482  15.047   6.749 -0.2386  0.0772 -0.0069
 1068loPI   C2B16418  18.715  15.301   7.008 -0.0401 -0.0947 -0.0738
 1068loPI   C3B16419  18.639  15.454   7.381 -0.1378  0.0810 -0.2654
 1068loPI   C4B16420  18.537  15.377   7.752  0.1812 -0.1568 -0.2211
 1069loPI    C116421  13.755   4.106   5.187  0.2288  0.0162 -0.1943
 1069loPI    C216422  13.829   4.484   5.078  0.0647  0.0567 -0.1676
 1069loPI    C316423  13.703   4.219   4.807 -0.1041  0.0953 -0.1281
 1069loPI   PO416424  13.972   3.960   5.357 -0.0555  0.2530  0.2505
 1069loPI   GL116425  13.908   3.987   5.754  0.0867 -0.0705 -0.0262
 1069loPI   GL216426  13.618   3.998   5.735 -0.0064 -0.0452 -0.1741
 1069loPI   C1A16427  13.892   3.959   6.210  0.0494 -0.0687 -0.0368
 1069loPI   C2A16428  13.929   4.074   6.658  0.0380  0.0148  0.0759
 1069loPI   C3A16429  14.027   4.053   7.135 -0.1010  0.0530  0.2058
 1069loPI   C4A16430  13.895   4.020   7.570  0.0600  0.0323  0.2728
 1069loPI   C5A16431  13.570   4.069   7.865 -0.1393  0.0275 -0.3766
 1069loPI   C6A16432  13.391   4.334   8.177 -0.2511 -0.0571 -0.0398
 1069loPI   C1B16433  13.626   4.347   6.159 -0.1290  0.1458  0.0681
 1069loPI   C2B16434  13.500   4.336   6.551 -0.0577 -0.2104  0.2002
 1069loPI   C3B16435  13.606   4.294   6.977 -0.0728  0.0340  0.0667
 1069loPI   C4B16436  13.492   4.402   7.396  0.1689  0.1320 -0.2670
 1070loPI    C116437  14.713  10.410   5.435  0.0183  0.0253 -0.2762
 1070loPI    C216438  14.832  10.057   5.289  0.1485  0.0014 -0.1146
 1070loPI    C316439  14.902  10.392   5.083  0.0537 -0.0630 -0.2530
 1070loPI   PO416440  14.752  10.255   5.759  0.1094  0.1338  0.0639
 1070loPI   GL116441  14.604  10.236   6.253  0.1642  0.0446 -0.0325
 1070loPI   GL216442  14.776  10.478   6.236  0.0608  0.1790 -0.2022
 1070loPI   C1A16443  14.736   9.959   6.648  0.2595  0.3738  0.0160
 1070loPI   C2A16444  14.500   9.952   7.055 -0.1018  0.0660 -0.2374
 1070loPI   C3A16445  14.524   9.815   7.486 -0.0962 -0.2062  0.1216
 1070loPI   C4A16446  14.703  10.112   7.793 -0.1668 -0.1341  0.2189
 1070loPI   C5A16447  14.846  10.352   8.155 -0.3428  0.3587  0.0806
 1070loPI   C6A16448  14.678  10.668   8.367  0.2384  0.1116 -0.0496
 1070loPI   C1B16449  14.832  10.501   6.664 -0.2097 -0.0586 -0.0421
 1070loPI   C2B16450  14.660  10.440   7.114 -0.1788  0.1565 -0.3251
 1070loPI   C3B16451  14.564  10.561   7.463 -0.1192 -0.1273 -0.0003
 1070loPI   C4B16452  14.421  10.522   7.817 -0.1001  0.1569  0.1225
 1071loPI    C116453   4.753  14.689   5.519 -0.1717  0.0167  0.1271
 1071loPI    C216454   4.841  14.759   5.135 -0.2175 -0.0813  0.0982
 1071loPI    C316455   4.845  15.059   5.400  0.4029 -0.1129  0.1389
 1071loPI   PO416456   4.912  14.453   5.575  0.1331  0.0866 -0.0748
 1071loPI   GL116457   4.968  14.134   5.935  0.1055 -0.1732 -0.1164
 1071loPI   GL216458   5.071  14.345   6.045 -0.0982  0.1109 -0.0609
 1071loPI   C1A16459   4.756  13.907   6.135 -0.1311 -0.1452 -0.1130
 1071loPI   C2A16460   4.716  13.836   6.583 -0.0666  0.1286  0.3311
 1071loPI   C3A16461   4.710  13.867   7.053  0.0752 -0.0665  0.3893
 1071loPI   C4A16462   4.780  13.722   7.435 -0.3094  0.0671 -0.0404
 1071loPI   C5A16463   4.691  13.778   7.865 -0.0556  0.3220 -0.2322
 1071loPI   C6A16464   4.670  14.084   8.250 -0.0607  0.0623 -0.0293
 1071loPI   C1B16465   5.026  14.293   6.477 -0.4248 -0.1078  0.1700
 1071loPI   C2B16466   4.974  14.241   6.853  0.1014 -0.2033 -0.2081
 1071loPI   C3B16467   5.037  14.273   7.270  0.0065  0.2585  0.2725
 1071loPI   C4B16468   5.221  13.927   7.563  0.4157 -0.0905 -0.2594
 1072loPI    C116469   2.657   7.393   5.024  0.2536  0.3116  0.3619
 1072loPI    C216470   2.468   7.719   4.889 -0.0800  0.0206  0.1042
 1072loPI    C316471   2.840   7.637   4.765 -0.1801  0.0440 -0.2211
 1072loPI   PO416472   2.598   7.431   5.339 -0.0836 -0.1890  0.2482
 1072loPI   GL116473   2.673   7.148   5.706  0.1208 -0.1099 -0.0447
 1072loPI   GL216474   2.448   6.901   5.691 -0.1010  0.0004  0.0881
 1072loPI   C1A16475   2.573   7.389   6.053 -0.1027  0.0784 -0.4184
 1072loPI   C2A16476   2.521   7.445   6.471 -0.2979 -0.0602  0.1994
 1072loPI   C3A16477   2.620   7.558   6.890  0.0668 -0.0762 -0.0890
 1072loPI   C4A16478   2.892   7.666   7.254  0.1798  0.0270  0.0780
 1072loPI   C5A16479   2.961   7.592   7.641 -0.1074  0.0234 -0.2808
 1072loPI   C6A16480   2.736   7.423   7.913  0.1217 -0.0486  0.2406
 1072loPI   C1B16481   2.494   6.854   6.120 -0.1347  0.2112  0.0001
 1072loPI   C2B16482   2.404   6.950   6.531 -0.0078  0.1180 -0.1124
 1072loPI   C3B16483   2.439   7.078   6.920 -0.1903  0.3656 -0.0728
 1072loPI   C4B16484   2.722   7.206   7.288  0.2880  0.0275 -0.1774
 1073loPI    C116485  12.853   8.113   5.387 -0.0767  0.1014  0.0164
 1073loPI    C216486  12.962   8.493   5.328  0.1418  0.0523  0.0914
 1073loPI    C316487  12.983   8.230   5.027 -0.2073  0.1429 -0.0178
 1073loPI   PO416488  12.914   8.040   5.637 -0.0660 -0.1292  0.1939
 1073loPI   GL116489  12.796   7.911   5.976  0.1007  0.1006  0.0119
 1073loPI   GL216490  12.415   8.003   6.083 -0.0668  0.1084  0.0529
 1073loPI   C1A16491  12.733   7.710   6.446  0.0011  0.3237 -0.1246
 1073loPI   C2A16492  12.821   7.722   6.931  0.1662 -0.0786  0.0317
 1073loPI   C3A16493  12.919   7.613   7.423 -0.1269  0.0772 -0.5076
 1073loPI   C4A16494  13.070   7.704   7.856 -0.3321  0.2078  0.1677
 1073loPI   C5A16495  13.323   7.411   8.163 -0.0307  0.0018 -0.2238
 1073loPI   C6A16496  13.313   7.039   8.350  0.0466  0.0811 -0.2616
 1073loPI   C1B16497  12.297   7.955   6.444  0.1590  0.2216  0.2392
 1073loPI   C2B16498  12.266   7.951   6.940 -0.0866 -0.2729  0.0360
 1073loPI   C3B16499  12.335   7.826   7.321  0.1953 -0.1628 -0.1156
 1073loPI   C4B16500  12.548   7.714   7.826  0.0853 -0.0068 -0.0789
 1074loPI    C116501   5.693  10.889   5.127 -0.0819 -0.0334  0.2516
 1074loPI    C216502   5.393  10.720   4.924  0.2170 -0.2688 -0.0043
 1074loPI    C316503   5.481  11.106   4.867  0.0904 -0.2502 -0.0770
 1074loPI   PO416504   5.657  10.777   5.384 -0.0443  0.4573  0.0104
 1074loPI   GL116505   5.727  10.651   5.759 -0.2376  0.0637 -0.0238
 1074loPI   GL216506   5.707  10.355   5.654  0.2380 -0.3506 -0.1036
 1074loPI   C1A16507   5.491  10.881   6.180 -0.0457 -0.1371  0.1482
 1074loPI   C2A16508   5.399  10.897   6.547  0.2428  0.3084 -0.0316
 1074loPI   C3A16509   5.347  10.776   6.884 -0.0332 -0.0496  0.0027
 1074loPI   C4A16510   5.334  10.760   7.315  0.0560 -0.0033  0.2352
 1074loPI   C5A16511   5.345  10.707   7.820  0.0470  0.1325  0.3200
 1074loPI   C6A16512   5.395  10.594   8.196  0.0748  0.1593  0.1779
 1074loPI   C1B16513   5.947  10.236   6.067  0.2302 -0.0759  0.0069
 1074loPI   C2B16514   5.848  10.179   6.459  0.1579 -0.0965  0.0923
 1074loPI   C3B16515   5.791  10.083   6.836 -0.1788 -0.1297  0.1157
 1074loPI   C4B16516   5.802  10.002   7.305 -0.0402  0.0138  0.3044
 1075loPI    C116517   2.768   8.304   5.292  0.3690  0.0000 -0.0284
 1075loPI    C216518   2.707   7.908   5.290  0.0066  0.0527  0.0179
 1075loPI    C316519   2.842   8.092   4.961 -0.0727 -0.0734 -0.0863
 1075loPI   PO416520   2.592   8.358   5.554 -0.0333  0.2123 -0.0680
 1075loPI   GL116521   2.531   8.232   6.000  0.1288 -0.1206 -0.1920
 1075loPI   GL216522   2.306   8.542   6.001  0.1528  0.0152  0.3047
 1075loPI   C1A16523   2.834   7.906   6.322 -0.0517  0.1076  0.0550
 1075loPI   C2A16524   2.867   7.923   6.758 -0.0823 -0.2108  0.1715
 1075loPI   C3A16525   2.974   8.185   7.062 -0.0669  0.0353 -0.3573
 1075loPI   C4A16526   3.055   8.477   7.353  0.1566  0.1824 -0.0525
 1075loPI   C5A16527   3.073   8.771   7.749 -0.0110 -0.0737 -0.0982
 1075loPI   C6A16528   3.013   8.843   8.141  0.0713  0.1264  0.1710
 1075loPI   C1B16529   2.466   8.480   6.415 -0.1688 -0.3091 -0.1030
 1075loPI   C2B16530   2.607   8.390   6.727 -0.2698  0.1754  0.2797
 1075loPI   C3B16531   2.699   8.710   7.121 -0.1239 -0.1969 -0.0586
 1075loPI   C4B16532   2.571   8.693   7.534  0.1434  0.1126  0.0295
 1076loPI    C116533  10.942   2.970   5.171 -0.0079 -0.2911  0.0755
 1076loPI    C216534  10.742   3.281   5.019  0.3211 -0.1439 -0.0664
 1076loPI    C316535  10.848   2.976   4.782  0.1516 -0.2842  0.0363
 1076loPI   PO416536  10.775   2.956   5.415  0.0264 -0.2058 -0.0817
 1076loPI   GL116537  10.736   2.852   5.822 -0.1427 -0.2911 -0.3563
 1076loPI   GL216538  10.829   2.554   5.875  0.1803 -0.2794 -0.2268
 1076loPI   C1A16539  10.882   3.037   6.199  0.0840  0.0585  0.2383
 1076loPI   C2A16540  10.845   3.108   6.641  0.0659  0.0385  0.1783
 1076loPI   C3A16541  10.789   3.052   6.984 -0.0334  0.0127  0.1851
 1076loPI   C4A16542  10.747   3.081   7.431 -0.0027 -0.0310  0.4751
 1076loPI   C5A16543  10.580   3.216   7.866 -0.0412 -0.1643  0.3376
 1076loPI   C6A16544  10.468   3.435   8.138 -0.0662  0.0368 -0.1288
 1076loPI   C1B16545  10.933   2.551   6.325 -0.0032 -0.1543  0.0586
 1076loPI   C2B16546  10.909   2.485   6.759  0.0280  0.1322 -0.5263
 1076loPI   C3B16547  10.768   2.503   7.127 -0.1728 -0.0372 -0.3230
 1076loPI   C4B16548  10.714   2.573   7.479  0.0276 -0.0453  0.2957
 1077loPI    C116549  13.562  12.121   5.416 -0.0612  0.0397 -0.0279
 1077loPI    C216550  13.427  12.237   5.057  0.1484  0.1296 -0.0786
 1077loPI    C316551  13.641  11.901   5.091 -0.1231 -0.0375  0.0089
 1077loPI   PO416552  13.366  12.159   5.555 -0.0425  0.1710  0.3704
 1077loPI   GL116553  13.163  11.971   5.831  0.1095 -0.1590 -0.2236
 1077loPI   GL216554  13.367  11.791   5.910 -0.2608  0.1017  0.1624
 1077loPI   C1A16555  12.912  12.132   6.107 -0.0724  0.1238 -0.0272
 1077loPI   C2A16556  12.900  12.081   6.592  0.0038 -0.0511 -0.2675
 1077loPI   C3A16557  12.951  12.172   7.009 -0.1276 -0.5317 -0.1412
 1077loPI   C4A16558  12.931  12.140   7.444 -0.1517  0.0133  0.2795
 1077loPI   C5A16559  12.976  12.025   7.914 -0.2068 -0.2647  0.0385
 1077loPI   C6A16560  13.091  11.937   8.371  0.1892 -0.0411 -0.0770
 1077loPI   C1B16561  13.405  11.754   6.345 -0.0388  0.0647  0.2167
 1077loPI   C2B16562  13.339  11.825   6.749 -0.1435  0.0490 -0.3676
 1077loPI   C3B16563  13.325  11.850   7.198  0.0968 -0.0810 -0.1038
 1077loPI   C4B16564  13.396  11.953   7.631  0.1119 -0.0470  0.1717
 1078loPI    C116565   3.616  13.052   5.335 -0.0775 -0.1568  0.1110
 1078loPI    C216566   3.966  12.880   5.249 -0.0467 -0.1450  0.2112
 1078loPI    C316567   3.629  12.738   5.088  0.0289 -0.0129 -0.0681
 1078loPI   PO416568   3.539  13.102   5.638 -0.1642 -0.2897  0.1892
 1078loPI   GL116569   3.491  13.366   5.843  0.0406  0.0120  0.0462
 1078loPI   GL216570   3.793  13.580   6.098  0.1881  0.1135 -0.0430
 1078loPI   C1A16571   3.710  13.109   6.216 -0.0718  0.0136 -0.1665
 1078loPI   C2A16572   3.596  12.831   6.539  0.0698  0.2763  0.0650
 1078loPI   C3A16573   3.560  12.815   6.961 -0.1719  0.3058  0.1405
 1078loPI   C4A16574   3.337  12.820   7.440 -0.1792 -0.0806 -0.0894
 1078loPI   C5A16575   3.413  12.821   7.894  0.0942 -0.0168 -0.1221
 1078loPI   C6A16576   3.586  13.100   8.199 -0.0375  0.1837 -0.0296
 1078loPI   C1B16577   3.781  13.458   6.531 -0.0392  0.1563  0.1911
 1078loPI   C2B16578   3.586  13.468   6.852 -0.1487  0.0345 -0.1328
 1078loPI   C3B16579   3.470  13.337   7.397  0.1348  0.1451  0.0252
 1078loPI   C4B16580   3.438  13.281   7.761 -0.0828 -0.1400 -0.3473
 1079loPI    C116581   8.111   4.609   5.368 -0.2053  0.1462  0.0668
 1079loPI    C216582   8.135   4.269   5.578 -0.4186  0.0856 -0.0044
 1079loPI    C316583   8.085   4.256   5.181 -0.0236  0.1994 -0.0622
 1079loPI   PO416584   7.940   4.757   5.498 -0.0041  0.1124 -0.0724
 1079loPI   GL116585   7.773   4.772   5.883  0.1360 -0.1887 -0.1993
 1079loPI   GL216586   7.541   4.694   5.987  0.2378 -0.3206  0.2687
 1079loPI   C1A16587   7.936   4.913   6.221  0.1650  0.1248 -0.1054
 1079loPI   C2A16588   7.974   4.939   6.666 -0.2436 -0.0239 -0.1041
 1079loPI   C3A16589   8.029   4.817   7.100  0.0556  0.1353  0.0948
 1079loPI   C4A16590   7.947   4.592   7.441 -0.1978  0.1218  0.0190
 1079loPI   C5A16591   7.680   4.657   7.900  0.0591  0.2679 -0.2863
 1079loPI   C6A16592   7.929   4.690   8.244  0.3725 -0.1685 -0.0440
 1079loPI   C1B16593   7.465   4.775   6.443  0.4287 -0.2692  0.1887
 1079loPI   C2B16594   7.400   4.786   6.859 -0.1389 -0.0280 -0.2841
 1079loPI   C3B16595   7.267   4.752   7.293 -0.0639  0.3682  0.0160
 1079loPI   C4B16596   7.169   4.604   7.763  0.0615 -0.2237  0.0752
 1080loPI    C116597   3.160  12.056   5.477 -0.3024  0.1094 -0.0239
 1080loPI    C216598   3.340  12.197   5.149  0.0130 -0.0138  0.0916
 1080loPI    C316599   3.539  12.184   5.495 -0.2170 -0.1668  0.2207
 1080loPI   PO416600   2.950  12.209   5.538  0.0915  0.0274 -0.0819
 1080loPI   GL116601   3.108  12.418   5.889 -0.2750 -0.3109 -0.4434
 1080loPI   GL216602   3.358  12.296   5.971  0.0153  0.3605 -0.1326
 1080loPI   C1A16603   3.181  12.664   6.272 -0.3227  0.1429 -0.0146
 1080loPI   C2A16604   3.097  12.570   6.696  0.1048  0.1161 -0.1259
 1080loPI   C3A16605   3.085  12.490   7.028 -0.0139 -0.2999 -0.0762
 1080loPI   C4A16606   2.852  12.649   7.392 -0.4679  0.0710  0.0888
 1080loPI   C5A16607   2.460  12.766   7.669  0.0914  0.0826  0.3161
 1080loPI   C6A16608   2.451  13.164   7.737  0.4001 -0.1132  0.2142
 1080loPI   C1B16609   3.086  12.098   6.322 -0.1262  0.1437  0.2923
 1080loPI   C2B16610   3.088  12.031   6.752  0.0542  0.0203 -0.1801
 1080loPI   C3B16611   3.056  11.961   7.224  0.1960  0.0607  0.0685
 1080loPI   C4B16612   3.049  11.847   7.700 -0.3924  0.0360  0.0158
 1081loPI    C116613   5.581   1.706   5.428 -0.0841  0.2240 -0.0878
 1081loPI    C216614   5.907   1.499   5.322 -0.1238  0.0893  0.0497
 1081loPI    C316615   5.651   1.626   5.042 -0.0545  0.0269 -0.0426
 1081loPI   PO416616   5.641   1.753   5.673 -0.2912 -0.0931  0.1210
 1081loPI   GL116617   5.519   1.820   6.063  0.1726  0.0697  0.3515
 1081loPI   GL216618   5.766   1.549   6.135 -0.2431  0.1731 -0.0365
 1081loPI   C1A16619   5.398   1.957   6.406  0.1070  0.0620  0.0952
 1081loPI   C2A16620   5.473   2.015   6.815  0.2382  0.1062 -0.0256
 1081loPI   C3A16621   5.391   1.972   7.302  0.1191  0.0558  0.0352
 1081loPI   C4A16622   5.498   1.901   7.726 -0.2852  0.0290 -0.0603
 1081loPI   C5A16623   5.745   1.902   8.017  0.1075 -0.1339  0.0265
 1081loPI   C6A16624   6.090   2.178   8.154  0.3336  0.4424 -0.0168
 1081loPI   C1B16625   5.717   1.622   6.518 -0.1411 -0.0838  0.0945
 1081loPI   C2B16626   5.635   1.558   7.003 -0.1711 -0.0754 -0.0468
 1081loPI   C3B16627   5.796   1.574   7.468 -0.1517 -0.3927 -0.0314
 1081loPI   C4B16628   5.663   1.419   7.817  0.1443  0.1378  0.2341
 1082loPI    C116629   0.911  11.293   5.326  0.1957  0.0737 -0.0000
 1082loPI    C216630   0.928  11.124   4.963 -0.0952 -0.1561  0.0898
 1082loPI    C316631   0.825  11.509   5.001 -0.0533 -0.1286 -0.0718
 1082loPI   PO416632   1.112  11.299   5.451 -0.0417  0.0585  0.0343
 1082loPI   GL116633   1.433  11.476   5.838 -0.1052 -0.0250  0.0170
 1082loPI   GL216634   1.444  11.161   5.833  0.1074 -0.1418  0.0695
 1082loPI   C1A16635   1.305  11.505   6.272  0.0747  0.0583  0.1951
 1082loPI   C2A16636   1.243  11.461   6.707 -0.3788  0.0632 -0.1478
 1082loPI   C3A16637   1.227  11.399   7.251 -0.3527  0.1916 -0.2320
 1082loPI   C4A16638   1.306  11.423   7.605 -0.1384  0.3797  0.2941
 1082loPI   C5A16639   1.585  11.253   7.884 -0.1917  0.0119 -0.1276
 1082loPI   C6A16640   1.493  10.908   8.223  0.2535 -0.2433 -0.0235
 1082loPI   C1B16641   1.387  11.048   6.278  0.3503  0.0203 -0.2951
 1082loPI   C2B16642   1.265  10.902   6.594  0.0090  0.1178 -0.0980
 1082loPI   C3B16643   1.236  10.909   7.056 -0.1204  0.0378 -0.1712
 1082loPI   C4B16644   1.175  10.929   7.523  0.0185 -0.2646  0.3677
 1083loPI    C116645   0.903   8.919   5.173 -0.0213  0.2082  0.2205
 1083loPI    C216646   1.197   9.156   5.044  0.2363 -0.3271 -0.2182
 1083loPI    C316647   0.935   9.003   4.784 -0.1578 -0.2277  0.1094
 1083loPI   PO416648   0.890   8.974   5.421  0.0486  0.3365  0.1021
 1083loPI   GL116649   0.953   8.968   5.846  0.0998 -0.1901 -0.4057
 1083loPI   GL216650   0.850   9.309   5.791 -0.2680  0.0149  0.2442
 1083loPI   C1A16651   1.047   8.860   6.310  0.2323 -0.0737 -0.0882
 1083loPI   C2A16652   1.190   8.923   6.784 -0.0361  0.0254 -0.1777
 1083loPI   C3A16653   1.191   8.867   7.211  0.0260  0.0671 -0.0660
 1083loPI   C4A16654   1.150   8.914   7.570  0.0508 -0.3091 -0.0535
 1083loPI   C5A16655   0.896   8.802   7.910 -0.0351 -0.3921  0.1902
 1083loPI   C6A16656   0.587   8.574   8.104 -0.2151 -0.0049 -0.3607
 1083loPI   C1B16657   0.674   9.213   6.153 -0.1403  0.0064 -0.0171
 1083loPI   C2B16658   0.707   9.200   6.566 -0.0694 -0.1441  0.2540
 1083loPI   C3B16659   0.799   9.190   7.007 -0.0391 -0.0136 -0.0530
 1083loPI   C4B16660   0.721   9.205   7.471 -0.0485 -0.2464  0.1214
 1084loPI    C116661  16.169   3.572   5.227 -0.0082 -0.1461 -0.0833
 1084loPI    C216662  16.350   3.376   5.524  0.0054  0.0442  0.0353
 1084loPI    C316663  15.981   3.523   5.577 -0.0813 -0.1159 -0.1179
 1084loPI   PO416664  16.363   3.850   5.212  0.1871 -0.0051  0.1355
 1084loPI   GL116665  16.410   3.864   5.633  0.1436 -0.1492 -0.2043
 1084loPI   GL216666  16.488   4.180   5.818  0.1339 -0.1195 -0.1063
 1084loPI   C1A16667  16.207   3.843   6.053  0.1134 -0.2470 -0.1368
 1084loPI   C2A16668  16.122   3.940   6.471  0.0196  0.0010 -0.0229
 1084loPI   C3A16669  16.199   3.931   6.820 -0.3185  0.0590  0.1570
 1084loPI   C4A16670  16.185   3.874   7.251  0.2479 -0.0473 -0.1600
 1084loPI   C5A16671  16.165   3.826   7.559 -0.0649 -0.1281 -0.0119
 1084loPI   C6A16672  16.158   4.016   7.949 -0.1268 -0.0730  0.1503
 1084loPI   C1B16673  16.589   4.151   6.227  0.3966 -0.1403 -0.1409
 1084loPI   C2B16674  16.616   4.159   6.654 -0.2744 -0.3281  0.0136
 1084loPI   C3B16675  16.636   4.144   7.126 -0.1350  0.1294 -0.6076
 1084loPI   C4B16676  16.634   4.119   7.547  0.0006 -0.1506  0.0420
 1085loPI    C116677   9.602   3.614   5.220  0.1003  0.2397 -0.0006
 1085loPI    C216678   9.605   3.321   4.947  0.2634  0.0670  0.1838
 1085loPI    C316679   9.257   3.463   5.084  0.1834 -0.0461  0.0994
 1085loPI   PO416680   9.653   3.635   5.439  0.0845 -0.0409 -0.1180
 1085loPI   GL116681   9.648   3.725   5.865 -0.0610  0.5099 -0.2418
 1085loPI   GL216682   9.480   3.865   6.135  0.0724  0.1823  0.1410
 1085loPI   C1A16683   9.911   3.543   6.208  0.1936 -0.1118 -0.1674
 1085loPI   C2A16684   9.946   3.582   6.690 -0.1022 -0.0802  0.0818
 1085loPI   C3A16685   9.903   3.523   7.086  0.0641  0.0888 -0.1650
 1085loPI   C4A16686   9.899   3.622   7.498 -0.0629  0.0411 -0.0010
 1085loPI   C5A16687   9.523   3.616   7.815 -0.0410 -0.1654  0.3522
 1085loPI   C6A16688   9.341   3.625   8.250 -0.0624  0.1109  0.0329
 1085loPI   C1B16689   9.577   3.855   6.519  0.1397  0.0195 -0.1446
 1085loPI   C2B16690   9.488   3.789   6.936  0.1076 -0.1472 -0.0287
 1085loPI   C3B16691   9.290   3.701   7.387 -0.2476 -0.1607  0.0535
 1085loPI   C4B16692   9.114   3.949   7.696 -0.0132 -0.1131 -0.0180
 1086loPI    C116693  12.790   0.140   5.657  0.1289  0.1455 -0.1937
 1086loPI    C216694  12.875   0.511   5.779  0.1030  0.1018 -0.0404
 1086loPI    C316695  13.150   0.297   5.582  0.1282  0.1910 -0.1027
 1086loPI   PO416696  12.583   0.102   5.824  0.2627  0.0182  0.0178
 1086loPI   GL116697  12.736   0.112   6.249 -0.2482  0.1468 -0.0768
 1086loPI   GL216698  12.561  -0.188   6.355 -0.1395  0.1077 -0.1154
 1086loPI   C1A16699  13.082   0.216   6.584 -0.0554 -0.0854  0.1572
 1086loPI   C2A16700  13.079   0.578   6.914  0.0677 -0.0301 -0.2505
 1086loPI   C3A16701  13.176   0.958   7.132  0.0829 -0.0028  0.0684
 1086loPI   C4A16702  13.133   1.002   7.612  0.2083 -0.0837 -0.3020
 1086loPI   C5A16703  12.963   1.189   7.989 -0.2652 -0.1334  0.0544
 1086loPI   C6A16704  12.766   1.503   8.211 -0.1170 -0.0763  0.1416
 1086loPI   C1B16705  12.653  -0.055   6.801 -0.2183 -0.0471 -0.4410
 1086loPI   C2B16706  12.709   0.217   7.180 -0.1518 -0.1171  0.1656
 1086loPI   C3B16707  12.737   0.274   7.729 -0.0717 -0.2856 -0.0749
 1086loPI   C4B16708  12.422   0.452   7.916  0.0029  0.1004 -0.2093
 1087loPI    C116709   0.397   3.087   5.358 -0.0004 -0.1111  0.1758
 1087loPI    C216710   0.303   3.176   4.979  0.1356  0.4026  0.2545
 1087loPI    C316711   0.553   2.874   5.058 -0.3240 -0.0701 -0.0276
 1087loPI   PO416712   0.466   3.350   5.429  0.0320  0.1685 -0.0243
 1087loPI   GL116713   0.381   3.345   5.832 -0.1924 -0.0019  0.0575
 1087loPI   GL216714   0.082   3.373   5.715 -0.1194 -0.0773 -0.1619
 1087loPI   C1A16715   0.426   3.201   6.201  0.1535 -0.0585  0.0856
 1087loPI   C2A16716   0.458   3.179   6.532  0.2138 -0.6050  0.2276
 1087loPI   C3A16717   0.363   3.040   6.925 -0.1069 -0.1185  0.2390
 1087loPI   C4A16718   0.448   3.140   7.342  0.0744  0.2795 -0.0439
 1087loPI   C5A16719   0.234   3.351   7.688  0.1555 -0.0709 -0.0241
 1087loPI   C6A16720   0.102   3.446   8.168  0.0015  0.1506 -0.0115
 1087loPI   C1B16721  -0.017   3.498   6.090  0.0313 -0.0796 -0.1959
 1087loPI   C2B16722   0.077   3.542   6.522  0.1087 -0.0916 -0.0805
 1087loPI   C3B16723   0.033   3.390   6.835 -0.1198  0.1566 -0.0483
 1087loPI   C4B16724  -0.041   3.351   7.149  0.0726  0.0171  0.0562
 1088loPI    C116725   4.605   0.829   5.518  0.2250 -0.1418 -0.1456
 1088loPI    C216726   4.516   0.572   5.224 -0.1124 -0.0551 -0.1239
 1088loPI    C316727   4.655   0.937   5.136  0.0323 -0.1195 -0.1655
 1088loPI   PO416728   4.332   0.821   5.697 -0.0973 -0.4156  0.2151
 1088loPI   GL116729   4.384   0.898   6.054  0.1479  0.3392 -0.0322
 1088loPI   GL216730   4.422   1.179   6.271  0.0331 -0.4547  0.1772
 1088loPI   C1A16731   4.326   0.713   6.460 -0.2818 -0.1350  0.1985
 1088loPI   C2A16732   4.605   0.649   6.760  0.0672  0.3993 -0.2927
 1088loPI   C3A16733   4.570   0.750   7.272  0.0875  0.2050 -0.1107
 1088loPI   C4A16734   4.715   0.698   7.601  0.3186  0.2838  0.0055
 1088loPI   C5A16735   4.623   0.704   8.004 -0.2196  0.1467  0.1897
 1088loPI   C6A16736   4.885   0.830   8.329 -0.0682  0.1083  0.0465
 1088loPI   C1B16737   4.367   1.076   6.807 -0.0490 -0.1983  0.1712
 1088loPI   C2B16738   4.291   1.154   7.258  0.0133 -0.1737  0.0118
 1088loPI   C3B16739   4.386   1.068   7.610  0.1743 -0.0546 -0.2170
 1088loPI   C4B16740   4.523   1.163   7.983  0.0534  0.0868  0.1019
 1089loPI    C116741  17.292  11.047   5.065 -0.0239  0.4377  0.1908
 1089loPI    C216742  16.896  11.025   5.010  0.0089  0.1883  0.0388
 1089loPI    C316743  17.136  11.119   4.703  0.1059 -0.1491  0.0082
 1089loPI   PO416744  17.333  11.086   5.313 -0.0294  0.0718  0.1095
 1089loPI   GL116745  17.611  11.188   5.669  0.0675  0.0090  0.2548
 1089loPI   GL216746  17.766  10.997   5.794 -0.1373 -0.0850  0.2114
 1089loPI   C1A16747  17.592  11.382   6.080 -0.0655  0.0864 -0.2595
 1089loPI   C2A16748  17.527  11.524   6.530  0.0106 -0.3880 -0.2202
 1089loPI   C3A16749  17.580  11.491   6.954 -0.2354 -0.3659 -0.1569
 1089loPI   C4A16750  17.456  11.474   7.288 -0.1312  0.2311  0.3068
 1089loPI   C5A16751  17.443  11.510   7.821 -0.0999 -0.0610 -0.1809
 1089loPI   C6A16752  17.808  11.436   8.090 -0.1044  0.3561 -0.0441
 1089loPI   C1B16753  17.930  10.892   6.218  0.1848  0.1585 -0.4497
 1089loPI   C2B16754  17.965  10.796   6.616  0.0329  0.1236 -0.0363
 1089loPI   C3B16755  17.975  10.757   6.999 -0.1310 -0.3122  0.0973
 1089loPI   C4B16756  17.838  10.656   7.464  0.2084 -0.0121 -0.1660
 1090loPI    C116757   8.376   9.993   5.641 -0.0157  0.1679  0.0487
 1090loPI    C216758   8.063  10.215   5.528  0.0927  0.0974 -0.4083
 1090loPI    C316759   8.214   9.940   5.279  0.2033 -0.2229  0.0015
 1090loPI   PO416760   8.261   9.939   5.900  0.1335  0.0595 -0.1163
 1090loPI   GL116761   8.263  10.101   6.233 -0.1899 -0.0136  0.2016
 1090loPI   GL216762   8.463   9.889   6.334  0.1579 -0.0249 -0.0449
 1090loPI   C1A16763   8.208  10.230   6.636 -0.2823 -0.1363  0.0151
 1090loPI   C2A16764   8.140  10.103   7.048 -0.1305  0.1855  0.0413
 1090loPI   C3A16765   7.921   9.868   7.341 -0.0167 -0.0978  0.0226
 1090loPI   C4A16766   7.548   9.884   7.614 -0.2053  0.1626  0.0959
 1090loPI   C5A16767   7.404   9.890   8.053  0.1193  0.0466 -0.1862
 1090loPI   C6A16768   7.362   9.878   8.521  0.1404 -0.3847  0.2224
 1090loPI   C1B16769   8.541   9.760   6.709 -0.0684 -0.1554 -0.0951
 1090loPI   C2B16770   8.695   9.958   7.057 -0.0605  0.0289  0.2657
 1090loPI   C3B16771   8.743  10.026   7.495  0.3584 -0.0483  0.0370
 1090loPI   C4B16772   8.851   9.852   7.941  0.1833 -0.2623  0.0209
 1091loPI    C116773   1.582  17.764   5.780  0.0816 -0.1577 -0.2651
 1091loPI    C216774   1.270  17.583   5.952  0.0216  0.1299 -0.0655
 1091loPI    C316775   1.213  17.825   5.639  0.0798 -0.0429 -0.2113
 1091loPI   PO416776   1.761  17.848   6.008  0.0377 -0.1331 -0.0294
 1091loPI   GL116777   1.740  18.041   6.418  0.0026  0.0102  0.0626
 1091loPI   GL216778   1.998  17.809   6.453  0.0988 -0.0978  0.0681
 1091loPI   C1A16779   1.637  18.195   6.785 -0.0830 -0.0142 -0.1128
 1091loPI   C2A16780   1.604  18.188   7.288 -0.3528  0.1752  0.2583
 1091loPI   C3A16781   1.735  18.203   7.689 -0.0450 -0.0196 -0.1045
 1091loPI   C4A16782   2.065  18.049   7.955 -0.0989  0.0069  0.0638
 1091loPI   C5A16783   2.482  18.222   8.080 -0.2074  0.0650  0.1589
 1091loPI   C6A16784   2.835  18.349   8.357  0.1381 -0.0244 -0.2528
 1091loPI   C1B16785   2.031  17.490   6.658 -0.0506  0.0933 -0.2265
 1091loPI   C2B16786   2.232  17.133   6.997 -0.0758 -0.2108  0.0567
 1091loPI   C3B16787   2.399  16.885   7.331 -0.1589 -0.0527 -0.2355
 1091loPI   C4B16788   2.302  16.944   7.731  0.0108  0.0496 -0.1557
 1092loPI    C116789  17.799  17.703   5.556  0.0564 -0.0256  0.1745
 1092loPI    C216790  17.816  17.744   5.158  0.0405  0.0588  0.1823
 1092loPI    C316791  17.754  17.383   5.320  0.1986 -0.0007  0.1124
 1092loPI   PO416792  17.729  17.883   5.612  0.0336  0.2176 -0.0611
 1092loPI   GL116793  17.605  17.928   5.972 -0.1509  0.2217 -0.0472
 1092loPI   GL216794  17.589  17.663   6.146  0.0845 -0.0953  0.2314
 1092loPI   C1A16795  17.748  18.119   6.361  0.0427  0.0470  0.2012
 1092loPI   C2A16796  17.608  18.123   6.802 -0.1451 -0.0425  0.1043
 1092loPI   C3A16797  17.576  18.100   7.252 -0.0973 -0.1467 -0.0916
 1092loPI   C4A16798  17.526  18.047   7.688  0.1437  0.2269  0.3449
 1092loPI   C5A16799  17.712  17.913   8.060  0.1965  0.0171  0.0020
 1092loPI   C6A16800  18.109  17.803   8.096 -0.1945  0.0814 -0.2765
 1092loPI   C1B16801  17.378  17.820   6.507 -0.0129  0.1461 -0.0687
 1092loPI   C2B16802  17.198  17.870   7.000  0.0304 -0.6017  0.1148
 1092loPI   C3B16803  17.181  17.803   7.386  0.2743  0.1068  0.0472
 1092loPI   C4B16804  17.097  17.804   7.761 -0.2114 -0.2816 -0.1409
 1093loPI    C116805  17.761  12.360   5.615  0.0651  0.1017  0.0490
 1093loPI    C216806  17.709  12.741   5.505  0.2076  0.1012 -0.0227
 1093loPI    C316807  18.074  12.609   5.602  0.1997 -0.0761 -0.2260
 1093loPI   PO416808  17.577  12.383   5.828  0.0139  0.1594 -0.4044
 1093loPI   GL116809  17.350  12.279   6.172  0.0390  0.0661 -0.3335
 1093loPI   GL216810  17.396  12.591   6.240 -0.1529 -0.0645  0.0511
 1093loPI   C1A16811  17.504  12.064   6.459  0.1488  0.0511 -0.0849
 1093loPI   C2A16812  17.536  12.058   6.865  0.0217  0.0227  0.1994
 1093loPI   C3A16813  17.528  12.021   7.292 -0.1694  0.1539 -0.0528
 1093loPI   C4A16814  17.387  12.040   7.716 -0.1225 -0.2740 -0.2102
 1093loPI   C5A16815  17.688  11.941   8.047 -0.1555  0.3883  0.0582
 1093loPI   C6A16816  17.982  12.057   8.269  0.0306 -0.0234  0.0713
 1093loPI   C1B16817  17.493  12.548   6.654  0.1480  0.3832 -0.1229
 1093loPI   C2B16818  17.590  12.578   7.071  0.0736 -0.2879  0.3128
 1093loPI   C3B16819  17.575  12.510   7.403  0.3070 -0.0066 -0.3407
 1093loPI   C4B16820  17.593  12.469   7.932  0.0305  0.1295  0.0265
 1094loPI    C116821   1.259  13.966   5.564  0.0436  0.0573 -0.0582
 1094loPI    C216822   1.447  13.690   5.785  0.1374  0.0150 -0.1896
 1094loPI    C316823   1.657  13.934   5.548  0.0483  0.1494 -0.1316
 1094loPI   PO416824   1.039  14.080   5.763  0.3351 -0.0803  0.2766
 1094loPI   GL116825   1.151  13.834   6.188  0.0093  0.0106  0.1137
 1094loPI   GL216826   1.047  14.173   6.280 -0.0709  0.0052  0.1587
 1094loPI   C1A16827   1.303  13.728   6.598 -0.3462  0.1569 -0.1205
 1094loPI   C2A16828   1.305  13.593   7.007 -0.0040  0.0330 -0.0413
 1094loPI   C3A16829   0.984  13.473   7.367  0.0746 -0.0719  0.0324
 1094loPI   C4A16830   0.800  13.185   7.532 -0.0416  0.3295 -0.1545
 1094loPI   C5A16831   0.710  13.130   7.959 -0.0353 -0.2136 -0.3194
 1094loPI   C6A16832   0.657  12.966   8.370 -0.3451 -0.0103  0.0162
 1094loPI   C1B16833   1.206  14.195   6.788  0.2500  0.1021 -0.0572
 1094loPI   C2B16834   1.326  14.334   7.256 -0.1716  0.0601  0.1999
 1094loPI   C3B16835   1.512  14.580   7.587 -0.1434 -0.0969 -0.0620
 1094loPI   C4B16836   1.556  14.675   7.964 -0.4622 -0.2208 -0.0863
 1095loPI    C116837   4.176   9.241   5.239  0.2608 -0.2489 -0.0957
 1095loPI    C216838   4.289   9.468   4.930  0.0747  0.1466  0.1189
 1095loPI    C316839   3.926   9.516   5.091  0.1343 -0.1203  0.3407
 1095loPI   PO416840   4.264   9.271   5.441 -0.2262 -0.2452 -0.1427
 1095loPI   GL116841   4.287   9.134   5.886  0.0357  0.0623 -0.1935
 1095loPI   GL216842   3.979   9.154   6.065 -0.4051  0.0091  0.0372
 1095loPI   C1A16843   4.573   9.237   6.242 -0.1605  0.0257  0.0880
 1095loPI   C2A16844   4.507   9.214   6.620  0.0834  0.0615  0.1391
 1095loPI   C3A16845   4.612   9.339   7.030 -0.0520  0.4290  0.1326
 1095loPI   C4A16846   4.528   9.319   7.480  0.0180 -0.1610 -0.0970
 1095loPI   C5A16847   4.152   9.292   7.737  0.1818  0.1866  0.2565
 1095loPI   C6A16848   3.751   9.340   7.965  0.3476  0.0702 -0.1481
 1095loPI   C1B16849   3.929   9.166   6.549 -0.0231 -0.2105  0.2565
 1095loPI   C2B16850   4.083   9.428   6.819  0.1155 -0.3190 -0.1246
 1095loPI   C3B16851   3.974   9.605   7.137 -0.0031  0.0430 -0.1040
 1095loPI   C4B16852   3.710   9.403   7.426  0.0728 -0.2846 -0.2078
 1096loPI    C116853  17.210  11.578   5.574 -0.2312 -0.3213  0.0320
 1096loPI    C216854  16.940  11.820   5.406 -0.2032 -0.1907  0.1720
 1096loPI    C316855  17.107  11.526   5.191 -0.0475  0.0737 -0.0756
 1096loPI   PO416856  17.049  11.502   5.815 -0.1785 -0.3049 -0.0548
 1096loPI   GL116857  17.059  11.577   6.293  0.0199  0.2781  0.0563
 1096loPI   GL216858  17.096  11.833   6.471 -0.0973 -0.1921 -0.2615
 1096loPI   C1A16859  17.124  11.258   6.635 -0.3301  0.0316 -0.0347
 1096loPI   C2A16860  17.008  11.144   7.021 -0.3022 -0.1779  0.1263
 1096loPI   C3A16861  16.894  11.240   7.395 -0.1181  0.0007  0.1409
 1096loPI   C4A16862  16.931  11.364   7.785 -0.2648  0.0405  0.3685
 1096loPI   C5A16863  16.853  11.477   8.194 -0.0493 -0.0505 -0.0062
 1096loPI   C6A16864  16.947  11.872   8.499  0.1558 -0.0241  0.0084
 1096loPI   C1B16865  17.149  11.738   6.877 -0.1327 -0.1688 -0.1626
 1096loPI   C2B16866  17.115  11.811   7.152 -0.0872  0.1419 -0.1694
 1096loPI   C3B16867  16.953  11.833   7.522 -0.3479  0.2190  0.2984
 1096loPI   C4B16868  16.905  11.945   7.984  0.0001 -0.0085  0.1976
 1097loPI    C116869  17.121  15.858   5.763  0.1664  0.1025 -0.1898
 1097loPI    C216870  17.315  15.555   5.588  0.1275 -0.0285 -0.0097
 1097loPI    C316871  16.937  15.637   5.486  0.0382 -0.2306  0.1522
 1097loPI   PO416872  17.098  15.800   6.057 -0.2885 -0.0140  0.0634
 1097loPI   GL116873  17.178  15.541   6.321  0.0805  0.2605  0.0451
 1097loPI   GL216874  17.272  15.394   6.706  0.1390 -0.1141 -0.2047
 1097loPI   C1A16875  16.828  15.630   6.647  0.1308 -0.0788  0.0880
 1097loPI   C2A16876  16.643  15.766   6.992  0.0503 -0.1260  0.0899
 1097loPI   C3A16877  16.691  15.765   7.391  0.1757  0.2476 -0.3542
 1097loPI   C4A16878  16.568  15.835   7.785 -0.1290 -0.0872 -0.2425
 1097loPI   C5A16879  16.806  15.675   8.088 -0.0688  0.1973  0.0182
 1097loPI   C6A16880  17.039  15.293   8.181  0.1121 -0.1452  0.2308
 1097loPI   C1B16881  17.338  15.194   7.128 -0.1765 -0.2367  0.1172
 1097loPI   C2B16882  17.415  15.226   7.593  0.1015 -0.0461  0.3471
 1097loPI   C3B16883  17.642  15.133   7.858 -0.1287  0.0228 -0.2017
 1097loPI   C4B16884  17.855  14.851   8.136  0.0182 -0.3351  0.1002
 1098loPI    C116885   9.944   1.740   5.000  0.1407  0.0230  0.0584
 1098loPI    C216886  10.010   1.376   4.849 -0.0666 -0.0128  0.0504
 1098loPI    C316887   9.875   1.668   4.613  0.1858  0.0957  0.0367
 1098loPI   PO416888  10.077   1.723   5.186 -0.1276  0.1003  0.0438
 1098loPI   GL116889  10.107   1.673   5.548 -0.1207 -0.0792 -0.0820
 1098loPI   GL216890  10.089   2.009   5.772  0.1232  0.4057 -0.1023
 1098loPI   C1A16891  10.329   1.623   5.952 -0.2579 -0.1118  0.2214
 1098loPI   C2A16892  10.534   1.716   6.358 -0.0559 -0.0771  0.1585
 1098loPI   C3A16893  10.529   1.713   6.758  0.0102 -0.0074  0.0515
 1098loPI   C4A16894  10.422   1.895   7.140  0.2537  0.0347  0.0183
 1098loPI   C5A16895  10.380   1.911   7.625 -0.1092  0.0772  0.2424
 1098loPI   C6A16896  10.311   1.880   8.118  0.0241  0.0205  0.0151
 1098loPI   C1B16897  10.024   1.943   6.246  0.0162 -0.3130 -0.0471
 1098loPI   C2B16898  10.019   2.030   6.706  0.2474  0.2763  0.0161
 1098loPI   C3B16899   9.925   2.050   7.169  0.1113 -0.1571 -0.2550
 1098loPI   C4B16900   9.798   2.097   7.535  0.2094  0.3458  0.0258
 1099loPI    C116901  16.154  10.723   5.507  0.0484 -0.0029  0.0642
 1099loPI    C216902  16.478  10.863   5.318  0.1138 -0.2724 -0.0272
 1099loPI    C316903  16.198  11.116   5.449  0.3411 -0.0399  0.0168
 1099loPI   PO416904  16.267  10.540   5.647  0.1617  0.0974 -0.0244
 1099loPI   GL116905  16.153  10.417   5.987  0.2058  0.0823 -0.2477
 1099loPI   GL216906  16.228  10.655   6.153  0.0215 -0.1713 -0.0306
 1099loPI   C1A16907  16.146  10.266   6.428  0.1563 -0.0847 -0.0412
 1099loPI   C2A16908  16.104  10.148   6.787 -0.0763  0.1053  0.1399
 1099loPI   C3A16909  15.980  10.134   7.151  0.1680  0.2330 -0.0047
 1099loPI   C4A16910  15.866  10.203   7.506 -0.4106 -0.1827 -0.1766
 1099loPI   C5A16911  16.091  10.440   7.929  0.1231 -0.0915  0.0131
 1099loPI   C6A16912  16.342  10.803   8.117 -0.1111  0.1890 -0.1094
 1099loPI   C1B16913  16.179  10.755   6.612 -0.4919  0.0369  0.2847
 1099loPI   C2B16914  16.057  10.679   6.986 -0.1148  0.0200  0.2354
 1099loPI   C3B16915  16.068  10.697   7.468  0.0492  0.0318 -0.2490
 1099loPI   C4B16916  15.841  10.962   7.869  0.0625  0.0674 -0.1330
 1100loPI    C116917  14.542   9.578   5.196 -0.1003  0.0815  0.0244
 1100loPI    C216918  14.900   9.613   5.021 -0.2200 -0.3060 -0.3134
 1100loPI    C316919  14.574   9.756   4.839 -0.2419  0.0587 -0.0001
 1100loPI   PO416920  14.602   9.643   5.451 -0.0934  0.1138 -0.2267
 1100loPI   GL116921  15.027   9.678   5.729  0.2149  0.0268  0.2729
 1100loPI   GL216922  14.717   9.675   5.974  0.1921 -0.0864  0.3829
 1100loPI   C1A16923  15.112   9.348   6.039  0.0235  0.1833 -0.1586
 1100loPI   C2A16924  15.137   9.205   6.445  0.0341 -0.4185  0.1584
 1100loPI   C3A16925  15.139   9.179   6.839  0.0763  0.3076  0.0325
 1100loPI   C4A16926  15.054   9.161   7.227 -0.0659  0.2686 -0.0068
 1100loPI   C5A16927  14.972   9.059   7.628 -0.3028  0.2220  0.1708
 1100loPI   C6A16928  15.017   9.033   8.011  0.1621  0.2477  0.1107
 1100loPI   C1B16929  14.715   9.538   6.342 -0.4102  0.0372  0.0126
 1100loPI   C2B16930  14.691   9.431   6.778 -0.1773 -0.0676  0.0841
 1100loPI   C3B16931  14.546   9.394   7.190 -0.1343  0.3145 -0.0989
 1100loPI   C4B16932  14.415   9.367   7.683  0.0887  0.0283 -0.1924
 1101loPI    C116933  10.330   8.230   5.155 -0.1243  0.0155 -0.1064
 1101loPI    C216934  10.067   7.938   5.226  0.0196 -0.1253 -0.1446
 1101loPI    C316935  10.082   8.109   4.866 -0.1663  0.0341 -0.0781
 1101loPI   PO416936  10.385   8.291   5.471  0.0967 -0.0006  0.1857
 1101loPI   GL116937  10.103   8.234   5.773  0.3985  0.1514  0.0734
 1101loPI   GL216938   9.956   7.825   5.831 -0.3094  0.2837 -0.1399
 1101loPI   C1A16939  10.022   8.078   6.262 -0.0712  0.3229 -0.0237
 1101loPI   C2A16940  10.008   8.031   6.660  0.0095 -0.0095  0.0199
 1101loPI   C3A16941  10.043   8.044   7.088 -0.0368  0.4045 -0.0919
 1101loPI   C4A16942  10.090   7.920   7.551  0.1995  0.1771  0.1086
 1101loPI   C5A16943   9.884   7.650   7.887 -0.1568 -0.3782 -0.0118
 1101loPI   C6A16944   9.408   7.601   7.965 -0.0668  0.1637  0.0452
 1101loPI   C1B16945  10.011   7.507   6.114  0.0012  0.1256  0.0983
 1101loPI   C2B16946  10.104   7.580   6.458  0.3350  0.1147  0.2303
 1101loPI   C3B16947  10.034   7.551   6.909 -0.0471 -0.2421 -0.1290
 1101loPI   C4B16948  10.048   7.452   7.336  0.0312 -0.5980 -0.0347
 1102loPI    C116949  10.592   7.931   4.783  0.2008  0.1497 -0.0548
 1102loPI    C216950  10.866   8.213   4.853  0.0655  0.2879 -0.0755
 1102loPI    C316951  10.518   8.311   4.683 -0.0171  0.1219 -0.0044
 1102loPI   PO416952  10.557   7.775   5.059  0.0487 -0.0716  0.1569
 1102loPI   GL116953  10.478   7.745   5.491 -0.1275 -0.0497  0.1787
 1102loPI   GL216954  10.353   7.479   5.718 -0.1274  0.0349 -0.3286
 1102loPI   C1A16955  10.520   7.909   5.914 -0.1428  0.3022 -0.1451
 1102loPI   C2A16956  10.513   7.797   6.275  0.0006  0.0370 -0.0341
 1102loPI   C3A16957  10.475   7.786   6.776  0.0665  0.3345  0.1142
 1102loPI   C4A16958  10.470   7.786   7.252 -0.3546 -0.5174 -0.0065
 1102loPI   C5A16959  10.563   7.634   7.709  0.2719  0.0858 -0.0033
 1102loPI   C6A16960  10.645   7.123   7.761 -0.1627 -0.0734  0.0737
 1102loPI   C1B16961  10.518   7.333   6.059  0.0369  0.0261  0.2165
 1102loPI   C2B16962  10.655   7.337   6.464  0.0988 -0.1490  0.2369
 1102loPI   C3B16963  10.532   7.299   6.886  0.2311 -0.0246 -0.2400
 1102loPI   C4B16964  10.522   7.304   7.277 -0.0048 -0.3097 -0.1249
 1103loPI    C116965  14.406  11.823   5.646  0.1284  0.1065 -0.0155
 1103loPI    C216966  14.500  11.807   5.257  0.1414  0.2571 -0.0188
 1103loPI    C316967  14.712  11.595   5.522  0.1088  0.1245 -0.0978
 1103loPI   PO416968  14.407  12.074   5.741  0.0975 -0.3827 -0.2098
 1103loPI   GL116969  14.209  12.370   5.926 -0.0253  0.2146  0.1900
 1103loPI   GL216970  13.920  12.231   5.842 -0.1291  0.2168 -0.3199
 1103loPI   C1A16971  14.208  12.309   6.347 -0.2570  0.1454  0.3115
 1103loPI   C2A16972  14.198  12.300   6.769 -0.0023  0.1755  0.2851
 1103loPI   C3A16973  14.251  12.372   7.253 -0.5802 -0.0631 -0.4213
 1103loPI   C4A16974  14.285  12.458   7.687  0.0315  0.0275  0.0301
 1103loPI   C5A16975  14.165  12.598   8.077 -0.1163 -0.3003  0.2205
 1103loPI   C6A16976  13.943  12.925   8.450  0.3303  0.2462  0.0258
 1103loPI   C1B16977  13.796  12.009   6.176  0.0430 -0.1118  0.2081
 1103loPI   C2B16978  13.800  11.991   6.665 -0.4938  0.1464 -0.0470
 1103loPI   C3B16979  13.794  12.058   7.081  0.1023 -0.0756 -0.1861
 1103loPI   C4B16980  13.849  12.176   7.460  0.1646 -0.0892 -0.1003
 1104loPI    C116981  11.805  10.760   5.443  0.0791  0.1059 -0.2663
 1104loPI    C216982  11.672  11.100   5.280  0.1430  0.1613 -0.2034
 1104loPI    C316983  11.516  10.749   5.167 -0.1933  0.2382  0.0078
 1104loPI   PO416984  11.954  10.855   5.645  0.3381 -0.3147 -0.0689
 1104loPI   GL116985  12.128  10.641   5.957 -0.1006 -0.0652 -0.1667
 1104loPI   GL216986  12.449  10.843   6.075  0.1487  0.0567  0.0636
 1104loPI   C1A16987  12.014  10.512   6.440 -0.0766  0.1712 -0.0206
 1104loPI   C2A16988  12.074  10.593   6.906  0.1119 -0.1061  0.0258
 1104loPI   C3A16989  12.214  10.568   7.389  0.0933 -0.0522  0.1442
 1104loPI   C4A16990  12.226  10.621   7.768  0.1148 -0.3000 -0.0475
 1104loPI   C5A16991  12.126  10.391   8.251  0.0724  0.0011  0.0212
 1104loPI   C6A16992  12.185  10.161   8.643 -0.0077  0.1678 -0.0821
 1104loPI   C1B16993  12.472  10.829   6.559 -0.1605 -0.0651  0.0309
 1104loPI   C2B16994  12.485  10.779   7.037  0.1574  0.0595 -0.2049
 1104loPI   C3B16995  12.695  10.666   7.412 -0.1390 -0.0629 -0.1628
 1104loPI   C4B16996  12.929  10.535   7.772 -0.1348  0.0527 -0.1533
 1105loPI    C116997  12.105   8.903   5.512 -0.2406  0.0574  0.0751
 1105loPI    C216998  12.081   8.543   5.339 -0.1662  0.1071 -0.0393
 1105loPI    C316999  12.022   8.874   5.122 -0.1278  0.1678  0.0423
 1105loPI   PO417000  11.901   8.891   5.703 -0.2390  0.3064 -0.1740
 1105loPI   GL117001  11.986   9.063   6.044 -0.2615 -0.2509 -0.0639
 1105loPI   GL217002  11.773   8.653   6.166 -0.3691 -0.1946 -0.3910
 1105loPI   C1A17003  12.127   8.923   6.394  0.1997 -0.0527 -0.1318
 1105loPI   C2A17004  12.270   8.962   6.834  0.1472 -0.0660  0.1242
 1105loPI   C3A17005  12.233   8.921   7.259  0.0089 -0.2943  0.2039
 1105loPI   C4A17006  12.187   9.073   7.729 -0.0247 -0.1253 -0.0701
 1105loPI   C5A17007  12.266   9.228   8.074 -0.0523 -0.2006 -0.1401
 1105loPI   C6A17008  12.128   9.420   8.483  0.1148 -0.0585  0.0630
 1105loPI   C1B17009  11.812   8.659   6.628 -0.3115  0.0033  0.0387
 1105loPI   C2B17010  11.846   8.623   7.047 -0.0181  0.0719  0.0952
 1105loPI   C3B17011  11.843   8.647   7.509  0.0154 -0.0028 -0.3106
 1105loPI   C4B17012  12.096   8.587   7.944  0.0533  0.1630 -0.0091
 1106loPI    C117013  14.272   3.538   4.752  0.1195 -0.1035  0.0101
 1106loPI    C217014  14.607   3.341   4.657  0.1251 -0.1233  0.0702
 1106loPI    C317015  14.259   3.238   4.489  0.0862 -0.3443  0.2812
 1106loPI   PO417016  14.292   3.592   5.098  0.0123  0.1575 -0.3354
 1106loPI   GL117017  14.310   3.443   5.489  0.0388  0.0341 -0.1560
 1106loPI   GL217018  14.505   3.384   5.562  0.2570  0.0476 -0.0681
 1106loPI   C1A17019  14.051   3.462   5.786  0.1381 -0.3609  0.0941
 1106loPI   C2A17020  14.302   3.807   6.009  0.0918  0.1617 -0.0412
 1106loPI   C3A17021  14.397   3.800   6.505 -0.2371 -0.0936  0.1714
 1106loPI   C4A17022  14.443   3.851   6.942 -0.1060 -0.0314 -0.1361
 1106loPI   C5A17023  14.424   3.947   7.328 -0.0771 -0.0386 -0.4444
 1106loPI   C6A17024  14.258   3.700   7.590 -0.0303  0.1836 -0.0156
 1106loPI   C1B17025  14.464   3.265   5.993 -0.0483 -0.0221  0.2549
 1106loPI   C2B17026  14.454   3.375   6.352 -0.1344  0.1138 -0.1964
 1106loPI   C3B17027  14.448   3.309   6.798  0.1266 -0.0581  0.1493
 1106loPI   C4B17028  14.405   3.316   7.199 -0.1606 -0.1163 -0.2419
 1107loPI    C117029  16.490   8.890   5.545  0.1786 -0.1884  0.0960
 1107loPI    C217030  16.321   8.745   5.212 -0.2115  0.0230  0.1966
 1107loPI    C317031  16.331   9.140   5.276  0.2540  0.0102  0.2341
 1107loPI   PO417032  16.579   8.710   5.682 -0.1068 -0.0497 -0.0017
 1107loPI   GL117033  16.701   8.768   6.116 -0.1625  0.2493  0.0969
 1107loPI   GL217034  16.903   8.935   6.047 -0.0621 -0.1151 -0.2049
 1107loPI   C1A17035  16.421   8.793   6.424 -0.1222  0.0501 -0.0824
 1107loPI   C2A17036  16.492   8.852   6.947  0.1829 -0.2220 -0.2057
 1107loPI   C3A17037  16.459   8.855   7.429 -0.1066  0.2662 -0.1453
 1107loPI   C4A17038  16.360   9.045   7.775  0.0522  0.1905 -0.3657
 1107loPI   C5A17039  16.394   9.453   7.971 -0.2935  0.3713 -0.0544
 1107loPI   C6A17040  16.342   9.681   8.296 -0.4213  0.1839 -0.0037
 1107loPI   C1B17041  16.866   8.749   6.561 -0.3990  0.3224 -0.0053
 1107loPI   C2B17042  16.877   8.592   6.937  0.3419 -0.2099  0.0142
 1107loPI   C3B17043  16.861   8.596   7.307  0.1917  0.2102 -0.3125
 1107loPI   C4B17044  16.751   8.264   7.638  0.1145 -0.2645 -0.3453
 1108loPI    C117045  12.554   9.823   5.374 -0.1481 -0.3538 -0.1809
 1108loPI    C217046  12.225   9.844   5.601 -0.0099  0.0299 -0.0075
 1108loPI    C317047  12.209   9.949   5.215 -0.0629  0.1760  0.0340
 1108loPI   PO417048  12.665   9.648   5.505 -0.1554  0.3232  0.2435
 1108loPI   GL117049  12.706   9.688   5.884 -0.1653 -0.0312  0.2374
 1108loPI   GL217050  12.513   9.903   5.959  0.2701 -0.1111 -0.0642
 1108loPI   C1A17051  12.985   9.336   5.965  0.1703  0.0328  0.0066
 1108loPI   C2A17052  13.076   9.118   6.357  0.1192 -0.0749 -0.0482
 1108loPI   C3A17053  13.130   9.042   6.723 -0.1769  0.1528 -0.0003
 1108loPI   C4A17054  13.237   8.984   7.122 -0.0967 -0.0911 -0.1499
 1108loPI   C5A17055  13.310   9.013   7.599 -0.1509 -0.0910 -0.1419
 1108loPI   C6A17056  13.203   9.152   8.070 -0.1155 -0.2478  0.2720
 1108loPI   C1B17057  12.555   9.732   6.377 -0.1529  0.0241  0.0320
 1108loPI   C2B17058  12.515   9.814   6.780  0.2188 -0.0987  0.1338
 1108loPI   C3B17059  12.585   9.794   7.246  0.0054 -0.0705 -0.1530
 1108loPI   C4B17060  12.765   9.547   7.509 -0.1631 -0.1602 -0.2641
 1109loPI    C117061  12.274   4.617   5.437 -0.0981 -0.0217 -0.0632
 1109loPI    C217062  12.349   5.010   5.438 -0.0658 -0.0276  0.1029
 1109loPI    C317063  12.651   4.749   5.460 -0.0940 -0.0604  0.1004
 1109loPI   PO417064  12.116   4.622   5.658  0.0718 -0.0841 -0.2247
 1109loPI   GL117065  11.937   4.363   5.881  0.1288 -0.0119 -0.2248
 1109loPI   GL217066  12.180   4.576   6.095  0.5601 -0.1790  0.0204
 1109loPI   C1A17067  11.702   4.249   6.228  0.1441  0.1886 -0.2961
 1109loPI   C2A17068  11.637   4.145   6.714 -0.1543  0.1394  0.0875
 1109loPI   C3A17069  11.731   4.178   7.181 -0.4703  0.1667 -0.0379
 1109loPI   C4A17070  11.958   4.057   7.450 -0.3504 -0.1861 -0.0712
 1109loPI   C5A17071  12.251   3.999   7.793 -0.0375  0.5939 -0.0876
 1109loPI   C6A17072  12.443   4.199   7.967 -0.1526  0.1539 -0.0730
 1109loPI   C1B17073  12.132   4.467   6.517 -0.2053 -0.1131  0.0356
 1109loPI   C2B17074  12.123   4.445   6.894  0.1913  0.0802  0.0643
 1109loPI   C3B17075  12.235   4.578   7.332  0.0328  0.4719  0.1925
 1109loPI   C4B17076  12.052   4.449   7.747  0.1045  0.2071  0.1541
 1110loPI    C117077  11.672  16.944   5.545 -0.1286  0.0568 -0.1750
 1110loPI    C217078  12.056  16.864   5.468 -0.0705  0.1132  0.0503
 1110loPI    C317079  11.799  16.565   5.532  0.0417  0.0861  0.3937
 1110loPI   PO417080  11.704  17.066   5.770  0.2690 -0.1236 -0.2276
 1110loPI   GL117081  11.784  17.392   6.004 -0.1879 -0.1843 -0.1066
 1110loPI   GL217082  11.454  17.390   6.210  0.1425 -0.2405  0.1000
 1110loPI   C1A17083  11.884  17.245   6.399  0.2197 -0.1583 -0.3590
 1110loPI   C2A17084  11.884  17.328   6.740  0.1639 -0.2243  0.1801
 1110loPI   C3A17085  11.899  17.477   7.160 -0.1810  0.0390  0.0581
 1110loPI   C4A17086  12.164  17.503   7.528 -0.0083 -0.1750 -0.0920
 1110loPI   C5A17087  12.531  17.332   7.872 -0.0544 -0.0196 -0.0485
 1110loPI   C6A17088  12.714  17.255   8.301 -0.2319  0.0288  0.0925
 1110loPI   C1B17089  11.394  17.570   6.641 -0.1588  0.0678  0.1279
 1110loPI   C2B17090  11.445  17.624   7.087  0.0727 -0.0247  0.0009
 1110loPI   C3B17091  11.494  17.641   7.519  0.3314  0.0193  0.0591
 1110loPI   C4B17092  11.739  17.592   7.911 -0.0625  0.2921  0.0599
 1111loPI    C117093   8.743  16.329   5.463 -0.0455  0.0724  0.0815
 1111loPI    C217094   8.536  16.014   5.330  0.0183  0.1233 -0.1427
 1111loPI    C317095   8.851  16.148   5.123  0.0876  0.2371  0.0345
 1111loPI   PO417096   8.639  16.355   5.760 -0.0184  0.0501  0.0290
 1111loPI   GL117097   8.538  16.282   6.262  0.0381 -0.2165  0.2952
 1111loPI   GL217098   8.343  16.072   6.325 -0.0936  0.0684 -0.2201
 1111loPI   C1A17099   8.721  16.252   6.667  0.0485 -0.0139  0.2897
 1111loPI   C2A17100   8.902  16.031   7.011 -0.3337  0.1322  0.2073
 1111loPI   C3A17101   8.744  15.753   7.312 -0.3268 -0.2058  0.0095
 1111loPI   C4A17102   8.809  15.464   7.662 -0.0176  0.2075 -0.0741
 1111loPI   C5A17103   8.702  15.373   8.092  0.0556  0.2035 -0.1414
 1111loPI   C6A17104   8.705  15.052   8.420 -0.1011  0.3012 -0.1492
 1111loPI   C1B17105   8.056  15.908   6.642  0.0293  0.1066  0.4082
 1111loPI   C2B17106   7.836  15.945   6.975 -0.1482  0.1718  0.0173
 1111loPI   C3B17107   7.918  16.072   7.323  0.0198 -0.0353 -0.0700
 1111loPI   C4B17108   7.756  15.974   7.712  0.2654 -0.0007 -0.3087
 1112loPI    C117109   6.149   6.486   5.189  0.0068  0.0462  0.1449
 1112loPI    C217110   5.834   6.702   5.309 -0.0253  0.0789  0.0033
 1112loPI    C317111   5.887   6.623   4.920  0.2557  0.2542  0.0030
 1112loPI   PO417112   6.285   6.511   5.375 -0.0328  0.1485  0.0301
 1112loPI   GL117113   6.093   6.407   5.800 -0.2593 -0.0304  0.1121
 1112loPI   GL217114   5.784   6.361   5.909 -0.1016 -0.0440 -0.1370
 1112loPI   C1A17115   6.209   6.455   6.250  0.0352 -0.1107  0.0364
 1112loPI   C2A17116   6.242   6.537   6.575  0.2332 -0.4633 -0.0020
 1112loPI   C3A17117   6.211   6.599   6.946  0.3181  0.0782 -0.1230
 1112loPI   C4A17118   6.306   6.428   7.332 -0.1036  0.1003 -0.2190
 1112loPI   C5A17119   6.502   6.159   7.520 -0.1285  0.1436  0.2355
 1112loPI   C6A17120   6.343   5.757   7.663 -0.1639  0.1480 -0.0227
 1112loPI   C1B17121   5.730   6.532   6.387 -0.2182 -0.0055 -0.0309
 1112loPI   C2B17122   5.709   6.563   6.842 -0.1378  0.2245 -0.0926
 1112loPI   C3B17123   5.798   6.556   7.263  0.0811  0.3685  0.0896
 1112loPI   C4B17124   5.689   6.510   7.615  0.1652  0.1837 -0.0411
 1113loPI    C117125   3.089   8.997   5.073 -0.0430  0.1024  0.0479
 1113loPI    C217126   2.967   9.299   4.842  0.2035 -0.0296 -0.2623
 1113loPI    C317127   3.121   8.970   4.676  0.1693 -0.2248  0.0830
 1113loPI   PO417128   3.194   9.146   5.286  0.0904 -0.1454  0.0428
 1113loPI   GL117129   3.231   9.352   5.703  0.2406 -0.2509 -0.0680
 1113loPI   GL217130   3.481   9.100   5.757 -0.1987  0.0840 -0.0204
 1113loPI   C1A17131   3.027   9.446   6.101 -0.1209  0.0982 -0.0153
 1113loPI   C2A17132   3.011   9.396   6.487 -0.4437 -0.1325 -0.1247
 1113loPI   C3A17133   3.112   9.449   6.914  0.1421 -0.2953  0.2892
 1113loPI   C4A17134   3.104   9.459   7.269  0.4000 -0.4729  0.0873
 1113loPI   C5A17135   3.187   9.367   7.756  0.1321 -0.0965  0.0115
 1113loPI   C6A17136   3.141   9.312   8.191 -0.0238  0.1012  0.2636
 1113loPI   C1B17137   3.546   9.141   6.218  0.0835 -0.3021 -0.0223
 1113loPI   C2B17138   3.366   9.122   6.649  0.4640 -0.2986 -0.1066
 1113loPI   C3B17139   3.613   9.166   7.000  0.0605 -0.1761  0.1429
 1113loPI   C4B17140   4.023   9.074   7.166  0.0301 -0.2337 -0.2043
 1114loPI    C117141  10.620   2.125   5.141 -0.1052 -0.1873  0.1683
 1114loPI    C217142  10.389   1.945   4.868 -0.0589 -0.1029  0.0728
 1114loPI    C317143  10.357   2.339   4.929  0.0134 -0.1021  0.1064
 1114loPI   PO417144  10.605   1.980   5.310  0.0804  0.0308  0.0638
 1114loPI   GL117145  10.615   2.095   5.677 -0.1243 -0.1957  0.0422
 1114loPI   GL217146  10.761   1.859   5.855 -0.1639  0.0731 -0.0586
 1114loPI   C1A17147  10.432   2.233   6.053 -0.0906 -0.0904  0.2446
 1114loPI   C2A17148  10.512   2.292   6.413  0.1026  0.1478  0.2066
 1114loPI   C3A17149  10.412   2.299   6.866  0.1727 -0.0791  0.3522
 1114loPI   C4A17150  10.272   2.358   7.353  0.0372 -0.2443 -0.0135
 1114loPI   C5A17151  10.144   2.334   7.818  0.1599 -0.1329  0.0385
 1114loPI   C6A17152  10.148   2.409   8.309 -0.0044  0.0723 -0.1359
 1114loPI   C1B17153  10.908   2.072   6.172 -0.2683  0.0755  0.4776
 1114loPI   C2B17154  10.941   2.019   6.560 -0.3685  0.0380  0.0747
 1114loPI   C3B17155  10.916   1.996   7.003  0.1086  0.0294 -0.1879
 1114loPI   C4B17156  10.787   2.090   7.397  0.4848  0.2576 -0.0079
 1115loPI    C117157   3.520   8.743   5.362 -0.0845 -0.2232  0.1737
 1115loPI    C217158   3.581   8.768   4.968 -0.0451 -0.3021  0.1746
 1115loPI    C317159   3.707   9.061   5.209 -0.3326 -0.1116  0.0978
 1115loPI   PO417160   3.526   8.433   5.477 -0.0589 -0.1224 -0.0425
 1115loPI   GL117161   3.785   8.355   5.871 -0.1042  0.1147  0.2468
 1115loPI   GL217162   3.852   8.582   5.990  0.2004 -0.1588 -0.0203
 1115loPI   C1A17163   3.539   8.254   6.203 -0.0891 -0.0014  0.1436
 1115loPI   C2A17164   3.618   8.232   6.648  0.2169 -0.1688  0.0812
 1115loPI   C3A17165   3.599   8.234   7.067  0.0651 -0.2476  0.0579
 1115loPI   C4A17166   3.663   8.282   7.516  0.3583  0.1757 -0.0148
 1115loPI   C5A17167   3.546   8.587   7.943 -0.2272 -0.0185 -0.1172
 1115loPI   C6A17168   3.463   8.953   8.171  0.0418 -0.2341  0.1881
 1115loPI   C1B17169   3.716   8.700   6.384  0.0132 -0.1853 -0.0298
 1115loPI   C2B17170   3.765   8.670   6.834  0.1355 -0.2875  0.0662
 1115loPI   C3B17171   3.529   8.703   7.255 -0.0878 -0.0736 -0.0652
 1115loPI   C4B17172   3.455   8.960   7.520 -0.1387 -0.2541 -0.3014
 1116loPI    C117173  14.372   1.852   5.043 -0.0063 -0.0031 -0.0358
 1116loPI    C217174  14.577   1.733   4.720 -0.2028 -0.1153 -0.1208
 1116loPI    C317175  14.325   1.481   4.902 -0.1843 -0.0136  0.0485
 1116loPI   PO417176  14.509   1.967   5.230 -0.0548 -0.1907 -0.0462
 1116loPI   GL117177  14.362   1.936   5.633 -0.0420  0.4271 -0.0159
 1116loPI   GL217178  14.649   2.150   5.819  0.1822  0.0020 -0.0462
 1116loPI   C1A17179  14.203   1.859   6.062  0.1693  0.1299 -0.1045
 1116loPI   C2A17180  14.048   1.940   6.468 -0.0399  0.3425 -0.2087
 1116loPI   C3A17181  13.996   1.942   6.875  0.1970 -0.4196  0.2509
 1116loPI   C4A17182  14.046   2.033   7.303 -0.2721  0.3171 -0.1082
 1116loPI   C5A17183  14.053   1.974   7.732 -0.0073  0.0800 -0.1567
 1116loPI   C6A17184  14.204   2.074   8.153  0.2087  0.0723  0.0031
 1116loPI   C1B17185  14.454   2.261   6.168 -0.0244  0.0302  0.0278
 1116loPI   C2B17186  14.500   2.254   6.564  0.1235 -0.1522  0.1734
 1116loPI   C3B17187  14.472   2.224   7.038 -0.1932  0.0672  0.0012
 1116loPI   C4B17188  14.434   2.275   7.506 -0.0150  0.0373 -0.0519
 1117loPI    C117189  17.488  15.071   5.664  0.0320  0.1798 -0.0893
 1117loPI    C217190  17.797  15.227   5.464 -0.1137  0.3457 -0.1883
 1117loPI    C317191  17.589  14.925   5.305  0.1423  0.0716 -0.0153
 1117loPI   PO417192  17.558  15.047   5.914  0.0709 -0.1448 -0.1284
 1117loPI   GL117193  17.260  15.063   6.276 -0.0494  0.0320  0.3538
 1117loPI   GL217194  17.646  15.148   6.394  0.2575  0.1058 -0.0785
 1117loPI   C1A17195  17.288  14.929   6.674 -0.2044  0.4282 -0.2162
 1117loPI   C2A17196  17.525  14.675   7.005  0.1597 -0.1914 -0.2149
 1117loPI   C3A17197  17.826  14.447   7.103 -0.2426  0.1982 -0.2165
 1117loPI   C4A17198  17.987  14.321   7.466  0.0539 -0.0707 -0.0243
 1117loPI   C5A17199  18.213  14.473   7.852 -0.3266 -0.1487 -0.1077
 1117loPI   C6A17200  18.630  14.576   7.978  0.3218  0.2002  0.0325
 1117loPI   C1B17201  17.764  15.079   6.762  0.0596 -0.0262  0.1601
 1117loPI   C2B17202  17.907  15.028   7.105  0.0257 -0.1968 -0.0431
 1117loPI   C3B17203  17.849  14.854   7.484 -0.1932 -0.2161  0.1829
 1117loPI   C4B17204  17.645  14.629   7.759  0.0290 -0.1864  0.3999
 1118loPI    C117205   5.295   5.774   5.156  0.1704 -0.0776  0.1426
 1118loPI    C217206   5.561   5.783   4.858 -0.0387 -0.1286 -0.0485
 1118loPI    C317207   5.293   6.077   4.895 -0.0186 -0.1265  0.0858
 1118loPI   PO417208   5.465   5.778   5.354  0.1877  0.2508  0.1109
 1118loPI   GL117209   5.523   5.749   5.842  0.1862 -0.2805 -0.2529
 1118loPI   GL217210   5.838   5.871   5.869 -0.4031 -0.1386 -0.1494
 1118loPI   C1A17211   5.475   6.050   6.118  0.0192  0.0607 -0.0898
 1118loPI   C2A17212   5.558   6.041   6.532 -0.1397  0.1771  0.0762
 1118loPI   C3A17213   5.599   6.104   6.989  0.2753  0.1267  0.1266
 1118loPI   C4A17214   5.510   6.076   7.399 -0.0829 -0.1482 -0.1558
 1118loPI   C5A17215   5.404   5.992   7.795  0.2723  0.2470 -0.0989
 1118loPI   C6A17216   5.143   5.669   8.132  0.0922  0.0990 -0.1585
 1118loPI   C1B17217   5.975   5.948   6.252 -0.4328 -0.3369 -0.0657
 1118loPI   C2B17218   6.055   6.155   6.730  0.1876  0.1479  0.0540
 1118loPI   C3B17219   6.055   6.018   7.179  0.1635  0.0533  0.0002
 1118loPI   C4B17220   5.947   6.110   7.619 -0.0688 -0.1242 -0.0349
 1119loPI    C117221   8.826  13.930   5.687 -0.0132  0.1092 -0.2019
 1119loPI    C217222   9.005  13.583   5.598 -0.2889 -0.0793 -0.0346
 1119loPI    C317223   8.757  13.753   5.335  0.0689  0.1439 -0.2357
 1119loPI   PO417224   8.980  14.103   5.762  0.1161 -0.1025 -0.1766
 1119loPI   GL117225   9.086  14.184   6.256 -0.1036  0.3206  0.0122
 1119loPI   GL217226   9.078  14.024   6.528 -0.0323  0.0133 -0.0168
 1119loPI   C1A17227   8.855  14.552   6.434 -0.2027 -0.0409  0.2137
 1119loPI   C2A17228   8.782  14.723   6.918 -0.2668 -0.0410  0.1374
 1119loPI   C3A17229   8.390  14.922   7.126 -0.1128 -0.2378  0.0534
 1119loPI   C4A17230   8.180  15.124   7.428 -0.0704 -0.1070 -0.1867
 1119loPI   C5A17231   8.118  15.171   7.799  0.2155 -0.0547  0.1137
 1119loPI   C6A17232   7.981  15.476   7.962 -0.0764  0.0768  0.2270
 1119loPI   C1B17233   8.950  14.200   6.908  0.0772  0.1427 -0.1573
 1119loPI   C2B17234   8.883  13.916   7.317 -0.2448 -0.2047 -0.0544
 1119loPI   C3B17235   8.688  13.622   7.719 -0.0828 -0.0588  0.1965
 1119loPI   C4B17236   8.541  13.541   8.136  0.1042 -0.4735 -0.0019
 1120loPI    C117237  13.529  16.576   5.382 -0.1479 -0.0967  0.1130
 1120loPI    C217238  13.795  16.829   5.541 -0.0446  0.0382 -0.2620
 1120loPI    C317239  13.593  16.933   5.212 -0.4636 -0.1202 -0.0621
 1120loPI   PO417240  13.395  16.510   5.646  0.2285 -0.1172  0.1784
 1120loPI   GL117241  13.216  16.709   6.011 -0.1556  0.1382  0.0938
 1120loPI   GL217242  13.432  16.923   5.902 -0.3362 -0.0365  0.1471
 1120loPI   C1A17243  13.352  16.635   6.431 -0.2317 -0.2643 -0.0662
 1120loPI   C2A17244  13.315  16.694   6.930 -0.0793 -0.0879 -0.0387
 1120loPI   C3A17245  13.314  16.767   7.352  0.0134  0.0441 -0.1809
 1120loPI   C4A17246  13.324  16.709   7.793  0.3499  0.1659  0.0005
 1120loPI   C5A17247  13.352  16.533   8.161 -0.3033  0.4478 -0.0290
 1120loPI   C6A17248  13.433  16.797   8.481 -0.1021  0.1286  0.0628
 1120loPI   C1B17249  13.658  17.040   6.293 -0.3203 -0.2614 -0.1182
 1120loPI   C2B17250  13.703  17.104   6.739  0.0201 -0.0371 -0.3509
 1120loPI   C3B17251  14.001  17.317   7.007  0.2028 -0.0744  0.1320
 1120loPI   C4B17252  14.132  17.460   7.480 -0.1232  0.6392  0.2510
 1121loPI    C117253   9.475   4.188   5.386  0.2024 -0.2116  0.0430
 1121loPI    C217254   9.793   4.091   5.165  0.0818 -0.1286 -0.1699
 1121loPI    C317255   9.554   4.391   5.051 -0.0894 -0.2091 -0.0275
 1121loPI   PO417256   9.635   4.176   5.624 -0.2914  0.1333 -0.2838
 1121loPI   GL117257   9.922   4.257   5.950 -0.2635 -0.3697  0.0687
 1121loPI   GL217258  10.004   4.517   6.011  0.2613  0.0262 -0.0338
 1121loPI   C1A17259   9.897   4.062   6.243 -0.2397  0.0749 -0.0850
 1121loPI   C2A17260   9.928   4.105   6.722 -0.0222 -0.1149  0.0025
 1121loPI   C3A17261   9.906   4.054   7.181 -0.0323 -0.1918  0.2013
 1121loPI   C4A17262   9.707   4.031   7.632  0.1404  0.1928  0.1065
 1121loPI   C5A17263   9.896   3.935   8.065  0.5276 -0.0992 -0.1897
 1121loPI   C6A17264   9.865   3.862   8.548  0.3407 -0.1356  0.0099
 1121loPI   C1B17265   9.931   4.550   6.452 -0.2380  0.0386  0.1644
 1121loPI   C2B17266   9.839   4.546   6.922  0.1154  0.0537  0.1481
 1121loPI   C3B17267   9.918   4.471   7.404  0.3830 -0.2659  0.0440
 1121loPI   C4B17268   9.883   4.407   7.895  0.0643 -0.1842  0.0289
 1122loPI    C117269   9.940   2.508   5.310  0.1069 -0.0002  0.1266
 1122loPI    C217270  10.155   2.173   5.346 -0.0344 -0.0854  0.1828
 1122loPI    C317271   9.899   2.215   5.042 -0.1185 -0.0867  0.2530
 1122loPI   PO417272  10.083   2.702   5.353  0.0296 -0.1787 -0.1456
 1122loPI   GL117273  10.168   2.904   5.768  0.1149  0.0088  0.2696
 1122loPI   GL217274  10.261   2.698   5.800 -0.1108  0.3736 -0.0145
 1122loPI   C1A17275   9.990   2.968   6.289 -0.1724  0.1253 -0.0890
 1122loPI   C2A17276   9.967   3.047   6.762 -0.1188  0.1231 -0.1130
 1122loPI   C3A17277   9.843   3.058   7.198  0.2561  0.1168 -0.0523
 1122loPI   C4A17278   9.782   3.059   7.577 -0.1181  0.0321  0.3147
 1122loPI   C5A17279   9.584   3.095   7.976 -0.1377  0.2467  0.2216
 1122loPI   C6A17280   9.321   2.963   8.158  0.1860 -0.1312  0.4769
 1122loPI   C1B17281  10.486   2.757   6.195  0.2394  0.0659  0.1854
 1122loPI   C2B17282  10.420   2.850   6.658  0.2053  0.2044 -0.1280
 1122loPI   C3B17283  10.344   2.798   7.090  0.0278  0.1148 -0.1364
 1122loPI   C4B17284  10.265   2.769   7.605  0.0521 -0.3149  0.1204
 1123loPI    C117285  10.237  12.816   5.844  0.1903  0.1791  0.0251
 1123loPI    C217286  10.448  13.103   6.027  0.1704  0.3235 -0.1747
 1123loPI    C317287  10.251  13.185   5.688  0.2198  0.0562 -0.2705
 1123loPI   PO417288  10.436  12.603   5.944 -0.2170  0.0470  0.0381
 1123loPI   GL117289  10.712  12.380   6.303 -0.1154  0.1227  0.2706
 1123loPI   GL217290  10.505  12.222   6.319  0.0701 -0.1774 -0.2641
 1123loPI   C1A17291  10.762  12.532   6.765 -0.1066  0.1594  0.1274
 1123loPI   C2A17292  10.772  12.608   7.201  0.2763  0.0278 -0.0263
 1123loPI   C3A17293  10.929  12.963   7.582  0.2959 -0.0494  0.0527
 1123loPI   C4A17294  11.108  13.150   7.956 -0.2735 -0.0237  0.2966
 1123loPI   C5A17295  11.412  13.438   8.146  0.0409 -0.0226 -0.3706
 1123loPI   C6A17296  11.625  13.707   8.481 -0.2540 -0.1882 -0.0449
 1123loPI   C1B17297  10.294  12.448   6.738  0.2371 -0.0091 -0.0374
 1123loPI   C2B17298  10.202  12.783   7.043  0.2082 -0.1082  0.0980
 1123loPI   C3B17299  10.047  13.084   7.311  0.2203 -0.2301 -0.0808
 1123loPI   C4B17300   9.831  13.407   7.389  0.1369 -0.1637  0.0124
 1124loPI    C117301   1.460  13.513   5.319 -0.0680  0.1599 -0.1460
 1124loPI    C217302   1.177  13.232   5.288 -0.0377  0.1105  0.0196
 1124loPI    C317303   1.074  13.617   5.316 -0.0817  0.1098 -0.1245
 1124loPI   PO417304   1.674  13.369   5.488 -0.1537 -0.1907  0.0778
 1124loPI   GL117305   2.000  13.500   5.708 -0.3277 -0.1069  0.0872
 1124loPI   GL217306   1.987  13.298   5.896 -0.0419  0.0359  0.2154
 1124loPI   C1A17307   1.888  13.789   6.018 -0.1009 -0.0005  0.0548
 1124loPI   C2A17308   1.803  13.674   6.503 -0.0832 -0.0942  0.1625
 1124loPI   C3A17309   1.744  13.403   6.803 -0.3660  0.0824  0.1188
 1124loPI   C4A17310   1.707  13.261   7.267 -0.2830  0.1348 -0.2606
 1124loPI   C5A17311   1.736  13.171   7.703 -0.3229 -0.0942 -0.2298
 1124loPI   C6A17312   1.637  13.168   8.114 -0.3451 -0.1161 -0.1789
 1124loPI   C1B17313   1.595  13.385   6.099 -0.0607 -0.0272  0.0155
 1124loPI   C2B17314   1.202  13.330   6.190  0.1663 -0.0420 -0.1112
 1124loPI   C3B17315   0.982  13.271   6.592 -0.0608 -0.2578  0.0248
 1124loPI   C4B17316   0.830  13.237   6.974 -0.0863  0.2263 -0.2815
 1125loPI    C117317   4.704  16.043   5.704 -0.0596  0.1364  0.1239
 1125loPI    C217318   4.753  16.083   5.309 -0.0091 -0.0877  0.1057
 1125loPI    C317319   4.418  16.214   5.484 -0.0664 -0.0609 -0.0235
 1125loPI   PO417320   4.978  15.863   5.700 -0.1087  0.0816 -0.2243
 1125loPI   GL117321   5.129  15.596   6.084 -0.2309 -0.0172 -0.1245
 1125loPI   GL217322   5.323  15.918   6.191  0.2586  0.1672 -0.2615
 1125loPI   C1A17323   5.028  15.591   6.479 -0.0659  0.0672  0.0424
 1125loPI   C2A17324   5.101  15.607   6.934 -0.0806  0.1196  0.0836
 1125loPI   C3A17325   4.959  15.611   7.368  0.3136 -0.0372 -0.0082
 1125loPI   C4A17326   4.794  15.723   7.826  0.0452  0.0608 -0.1081
 1125loPI   C5A17327   5.095  15.705   8.154  0.1988 -0.0983 -0.1836
 1125loPI   C6A17328   5.141  15.720   8.589 -0.1108  0.1453  0.0287
 1125loPI   C1B17329   5.406  15.953   6.636  0.5215  0.2019 -0.0030
 1125loPI   C2B17330   5.389  15.992   6.999 -0.0876 -0.2717  0.0633
 1125loPI   C3B17331   5.323  16.002   7.401 -0.2207  0.0092 -0.2646
 1125loPI   C4B17332   5.368  16.034   7.867  0.0627  0.2231 -0.2261
 1126loPI    C117333   3.258   1.929   5.391 -0.1196  0.0225 -0.1740
 1126loPI    C217334   3.207   1.552   5.268 -0.2196  0.0062 -0.0838
 1126loPI    C317335   3.508   1.771   5.121 -0.2930 -0.0366 -0.3016
 1126loPI   PO417336   3.257   1.951   5.681 -0.2677 -0.0582  0.2665
 1126loPI   GL117337   3.138   1.728   6.095  0.0850 -0.0502  0.2169
 1126loPI   GL217338   3.131   1.972   6.187 -0.2490 -0.2808 -0.1264
 1126loPI   C1A17339   3.094   1.586   6.523  0.2448 -0.2775 -0.3224
 1126loPI   C2A17340   3.140   1.534   6.912  0.0849 -0.0622 -0.1308
 1126loPI   C3A17341   3.276   1.175   7.131 -0.0139 -0.2847 -0.2905
 1126loPI   C4A17342   3.298   1.056   7.473  0.0554  0.2103  0.0514
 1126loPI   C5A17343   3.346   1.157   7.905  0.1783 -0.1213  0.0441
 1126loPI   C6A17344   3.272   1.244   8.356 -0.1452 -0.1081 -0.0659
 1126loPI   C1B17345   3.147   2.059   6.682  0.3388 -0.2843  0.0529
 1126loPI   C2B17346   3.233   1.981   7.143 -0.0685 -0.0216  0.1046
 1126loPI   C3B17347   3.359   1.954   7.527  0.0441 -0.3661 -0.0852
 1126loPI   C4B17348   3.157   1.716   7.891 -0.2929 -0.0612 -0.0973
 1127loPI    C117349   5.278  12.388   5.244 -0.0226  0.0111  0.0866
 1127loPI    C217350   5.258  12.632   4.928 -0.1328 -0.0540  0.0427
 1127loPI    C317351   5.440  12.277   4.896  0.2227  0.1127  0.1666
 1127loPI   PO417352   5.388  12.506   5.426 -0.0858  0.0810  0.0650
 1127loPI   GL117353   5.152  12.551   5.820 -0.0182  0.0076 -0.0492
 1127loPI   GL217354   5.455  12.449   5.943 -0.1284 -0.0830  0.2607
 1127loPI   C1A17355   5.072  12.505   6.257  0.0001  0.2059 -0.0324
 1127loPI   C2A17356   5.201  12.456   6.582  0.0160 -0.1076 -0.1329
 1127loPI   C3A17357   5.287  12.409   7.025  0.3552 -0.1425 -0.2132
 1127loPI   C4A17358   5.582  12.147   7.325 -0.1586  0.1294 -0.1233
 1127loPI   C5A17359   5.682  12.110   7.630 -0.1765  0.2912 -0.3073
 1127loPI   C6A17360   5.839  11.888   8.001  0.4492  0.2832 -0.0182
 1127loPI   C1B17361   5.534  12.251   6.331 -0.0365  0.1053 -0.0944
 1127loPI   C2B17362   5.505  12.112   6.736 -0.1390 -0.0288 -0.2370
 1127loPI   C3B17363   5.300  11.882   7.026 -0.0527 -0.1453 -0.1670
 1127loPI   C4B17364   5.318  11.705   7.381  0.0089 -0.1152 -0.0291
 1128loPI    C117365  17.561   8.858   4.893  0.0638 -0.0039 -0.1141
 1128loPI    C217366  17.716   8.670   4.576 -0.2595 -0.1282 -0.2029
 1128loPI    C317367  17.420   8.934   4.527 -0.0968  0.0903 -0.0338
 1128loPI   PO417368  17.604   8.703   5.100 -0.3337  0.1426 -0.0766
 1128loPI   GL117369  17.519   8.531   5.473  0.1054 -0.1998  0.0289
 1128loPI   GL217370  17.759   8.293   5.498  0.3054  0.0930  0.1380
 1128loPI   C1A17371  17.555   8.650   5.880  0.0322 -0.0536  0.2133
 1128loPI   C2A17372  17.451   8.943   6.236 -0.0314  0.1989 -0.1096
 1128loPI   C3A17373  17.452   8.886   6.655  0.0213 -0.2515  0.0951
 1128loPI   C4A17374  17.361   8.948   7.092  0.1396  0.0819 -0.0156
 1128loPI   C5A17375  17.301   8.733   7.473 -0.1304 -0.0484 -0.0081
 1128loPI   C6A17376  17.464   8.675   7.858 -0.0013 -0.3256  0.1743
 1128loPI   C1B17377  18.016   8.512   5.723 -0.0679 -0.0532  0.0472
 1128loPI   C2B17378  18.028   8.621   6.054  0.2026  0.2309  0.0100
 1128loPI   C3B17379  17.821   8.552   6.403 -0.2245  0.0911 -0.0237
 1128loPI   C4B17380  17.747   8.307   6.781 -0.1324  0.1277  0.1051
 1129loPI    C117381   6.566   5.345   5.449 -0.1915  0.2749  0.0712
 1129loPI    C217382   6.392   5.538   5.145 -0.1060 -0.2336 -0.3124
 1129loPI    C317383   6.787   5.480   5.144 -0.0761 -0.0540  0.0061
 1129loPI   PO417384   6.565   5.477   5.679 -0.1139 -0.1063 -0.0135
 1129loPI   GL117385   6.261   5.520   6.043  0.0679 -0.4146  0.1869
 1129loPI   GL217386   6.447   5.537   6.211 -0.0529 -0.2371 -0.0407
 1129loPI   C1A17387   5.826   5.485   6.260  0.0098  0.0549 -0.0191
 1129loPI   C2A17388   5.650   5.290   6.548  0.1005 -0.0861  0.2394
 1129loPI   C3A17389   5.488   5.146   7.016  0.4065 -0.2325  0.3318
 1129loPI   C4A17390   5.403   5.019   7.408  0.0534  0.1449 -0.1269
 1129loPI   C5A17391   5.216   5.000   7.815 -0.0377 -0.1074  0.2643
 1129loPI   C6A17392   4.831   5.137   7.907  0.0439 -0.0554 -0.1957
 1129loPI   C1B17393   6.768   5.531   6.455 -0.1537 -0.2534  0.0077
 1129loPI   C2B17394   6.717   5.642   6.829 -0.1897 -0.1620 -0.1661
 1129loPI   C3B17395   6.754   5.779   7.348 -0.1294  0.1497  0.1104
 1129loPI   C4B17396   7.143   5.864   7.576 -0.0406 -0.3928  0.0583
 1130loPI    C117397   4.539  16.596   5.847 -0.1429  0.0474 -0.0373
 1130loPI    C217398   4.767  16.580   5.518  0.0677 -0.0072  0.1095
 1130loPI    C317399   4.449  16.822   5.529 -0.0754 -0.1741 -0.2166
 1130loPI   PO417400   4.644  16.600   6.023  0.1012  0.0824 -0.0116
 1130loPI   GL117401   4.752  16.536   6.420  0.2997 -0.0765 -0.1244
 1130loPI   GL217402   4.521  16.234   6.300 -0.1680 -0.0717 -0.1216
 1130loPI   C1A17403   4.649  16.500   6.831 -0.2213  0.0115  0.2723
 1130loPI   C2A17404   4.645  16.642   7.244  0.0508 -0.2202  0.0768
 1130loPI   C3A17405   4.651  16.567   7.783 -0.3086 -0.2860 -0.1293
 1130loPI   C4A17406   4.549  16.555   8.176 -0.2275  0.2542  0.2212
 1130loPI   C5A17407   4.738  16.575   8.613  0.3961  0.1365 -0.2237
 1130loPI   C6A17408   4.841  16.307   8.885  0.2734  0.3600 -0.1278
 1130loPI   C1B17409   4.328  16.074   6.654 -0.4012 -0.2239  0.0652
 1130loPI   C2B17410   4.292  16.154   7.117 -0.0072  0.1845 -0.1094
 1130loPI   C3B17411   4.118  16.106   7.561 -0.0853 -0.3608  0.0801
 1130loPI   C4B17412   3.756  15.988   7.921  0.0756  0.2377  0.1061
 1131loPI    C117413   5.819   8.730   5.643 -0.1470 -0.1806  0.0289
 1131loPI    C217414   5.955   8.354   5.659 -0.0100 -0.1320  0.0152
 1131loPI    C317415   6.097   8.606   5.383 -0.0681 -0.0567  0.0537
 1131loPI   PO417416   5.794   8.788   5.852  0.0294  0.2213  0.0128
 1131loPI   GL117417   5.774   8.524   6.142  0.1662  0.0686 -0.0000
 1131loPI   GL217418   5.479   8.464   6.133  0.0289  0.0486 -0.1113
 1131loPI   C1A17419   5.687   8.324   6.672  0.1741  0.1029  0.2228
 1131loPI   C2A17420   5.678   8.282   7.108 -0.0130  0.4280  0.0115
 1131loPI   C3A17421   5.659   8.366   7.595  0.4370  0.0151 -0.1241
 1131loPI   C4A17422   5.677   8.587   7.979  0.0908 -0.2934 -0.0445
 1131loPI   C5A17423   6.006   8.757   8.236  0.0322  0.0987  0.1865
 1131loPI   C6A17424   6.246   8.873   8.552  0.0815 -0.1061  0.0669
 1131loPI   C1B17425   5.409   8.714   6.463  0.0423 -0.0180 -0.1354
 1131loPI   C2B17426   5.468   8.728   6.874 -0.1149 -0.0086 -0.1647
 1131loPI   C3B17427   5.461   8.693   7.295  0.0047 -0.1167  0.1675
 1131loPI   C4B17428   5.313   8.784   7.736 -0.0859 -0.0601  0.0148
 1132loPI    C117429  10.651   9.498   5.791 -0.1264 -0.0338 -0.0493
 1132loPI    C217430  10.890   9.734   5.573 -0.0614  0.1663  0.2327
 1132loPI    C317431  10.496   9.730   5.504 -0.0044 -0.0212 -0.1061
 1132loPI   PO417432  10.714   9.565   6.012 -0.1027 -0.2246  0.1106
 1132loPI   GL117433  10.708   9.742   6.414  0.1643  0.0376 -0.0388
 1132loPI   GL217434  10.336   9.897   6.490 -0.3658 -0.3437  0.1802
 1132loPI   C1A17435  10.777   9.555   6.768  0.2775  0.2080 -0.0176
 1132loPI   C2A17436  10.832   9.621   7.182  0.3882 -0.1188  0.0285
 1132loPI   C3A17437  10.756  10.082   7.276  0.1268  0.1688  0.0605
 1132loPI   C4A17438  10.730  10.474   7.482  0.0211  0.2718  0.0786
 1132loPI   C5A17439  10.366  10.685   7.709  0.0721  0.2623  0.1988
 1132loPI   C6A17440  10.224  11.153   7.616  0.1917  0.1496  0.1851
 1132loPI   C1B17441  10.406   9.865   6.888  0.1136  0.0338 -0.0694
 1132loPI   C2B17442  10.360   9.801   7.329 -0.0135 -0.0036  0.2379
 1132loPI   C3B17443  10.336  10.102   7.645 -0.1767 -0.0165  0.1478
 1132loPI   C4B17444  10.541  10.250   7.961  0.0792 -0.1580  0.0880
 1133loPI    C117445  15.451   0.661   5.457 -0.0792 -0.0236  0.0590
 1133loPI    C217446  15.317   0.527   5.104 -0.1395 -0.1966  0.1462
 1133loPI    C317447  15.692   0.664   5.137 -0.2450  0.1592 -0.0672
 1133loPI   PO417448  15.490   0.514   5.589  0.0180  0.2539 -0.1486
 1133loPI   GL117449  15.667   0.449   6.011 -0.1604  0.1044  0.3272
 1133loPI   GL217450  15.413   0.661   6.068  0.1565 -0.0472  0.0705
 1133loPI   C1A17451  15.831   0.575   6.423  0.2078 -0.1598 -0.1251
 1133loPI   C2A17452  15.799   0.412   6.796 -0.3353 -0.0042  0.0275
 1133loPI   C3A17453  15.817   0.512   7.225  0.0587 -0.3288 -0.0705
 1133loPI   C4A17454  15.869   0.539   7.681  0.4297  0.1031 -0.0651
 1133loPI   C5A17455  15.730   0.522   8.012  0.1283 -0.1551 -0.0300
 1133loPI   C6A17456  15.664   0.763   8.447  0.1822 -0.3950 -0.0546
 1133loPI   C1B17457  15.263   0.863   6.294  0.1217  0.1247  0.0968
 1133loPI   C2B17458  14.948   1.016   6.583  0.3473  0.0004  0.0606
 1133loPI   C3B17459  14.914   1.043   6.989 -0.3186  0.0069 -0.0221
 1133loPI   C4B17460  14.949   0.964   7.418 -0.2513 -0.6426 -0.3333
 1134loPI    C117461  16.722   1.131   5.352  0.0146 -0.0783 -0.0958
 1134loPI    C217462  16.933   1.387   5.128  0.1800 -0.0492  0.0893
 1134loPI    C317463  16.690   1.525   5.415 -0.2630 -0.0718 -0.2627
 1134loPI   PO417464  16.884   0.954   5.450  0.3224  0.0535  0.1334
 1134loPI   GL117465  16.957   1.048   5.805 -0.3841 -0.1133 -0.1990
 1134loPI   GL217466  16.743   1.298   5.833  0.2261  0.0633 -0.1884
 1134loPI   C1A17467  17.075   1.146   6.245  0.1154  0.2311  0.1657
 1134loPI   C2A17468  17.151   1.310   6.710  0.0062  0.0485 -0.2520
 1134loPI   C3A17469  17.140   1.348   7.160 -0.1688  0.5135 -0.1592
 1134loPI   C4A17470  17.145   1.401   7.642  0.4358  0.1801  0.0634
 1134loPI   C5A17471  17.351   1.233   7.981 -0.3363 -0.0314 -0.0246
 1134loPI   C6A17472  17.670   1.120   8.229 -0.1767 -0.1325 -0.1803
 1134loPI   C1B17473  16.673   1.492   6.185 -0.2554 -0.2455  0.0027
 1134loPI   C2B17474  16.652   1.525   6.497 -0.3153  0.0594 -0.4524
 1134loPI   C3B17475  16.651   1.558   6.895 -0.0421  0.1790 -0.2212
 1134loPI   C4B17476  16.677   1.651   7.289 -0.2392 -0.2595 -0.1648
 1135loPI    C117477  13.401   7.008   5.172 -0.1818  0.1552 -0.2324
 1135loPI    C217478  13.205   6.982   4.824 -0.0667 -0.2244 -0.2742
 1135loPI    C317479  13.601   7.037   4.827 -0.0669 -0.2259 -0.2023
 1135loPI   PO417480  13.359   6.876   5.388  0.2760  0.1071  0.0044
 1135loPI   GL117481  13.279   6.834   5.784 -0.1007 -0.1431 -0.1123
 1135loPI   GL217482  13.135   7.172   5.951 -0.1287  0.2257 -0.0710
 1135loPI   C1A17483  13.266   6.615   6.176  0.3839 -0.0332 -0.0408
 1135loPI   C2A17484  13.299   6.502   6.681 -0.1047  0.4752  0.2865
 1135loPI   C3A17485  13.410   6.401   7.105 -0.0984  0.3021  0.0968
 1135loPI   C4A17486  13.397   6.372   7.558  0.0475 -0.0162  0.1080
 1135loPI   C5A17487  13.239   6.519   7.940 -0.0213  0.1819 -0.1600
 1135loPI   C6A17488  12.976   6.849   8.026  0.1499 -0.0490 -0.1606
 1135loPI   C1B17489  13.153   7.467   6.311 -0.1837  0.0449  0.0107
 1135loPI   C2B17490  13.283   7.466   6.688  0.0815 -0.1651 -0.2833
 1135loPI   C3B17491  13.312   7.499   7.143  0.0265  0.1312 -0.0406
 1135loPI   C4B17492  13.401   7.351   7.606 -0.2370  0.1216 -0.1648
 1136loPI    C117493   0.882   6.020   4.928 -0.1655  0.1233 -0.1199
 1136loPI    C217494   1.045   5.686   4.780 -0.1722  0.1160 -0.1108
 1136loPI    C317495   1.166   6.044   4.647  0.1692  0.1264  0.2122
 1136loPI   PO417496   0.930   6.063   5.198 -0.0397 -0.0750  0.0375
 1136loPI   GL117497   0.917   6.444   5.341 -0.0031 -0.1316 -0.0586
 1136loPI   GL217498   1.090   6.678   5.285  0.1466 -0.2048  0.2948
 1136loPI   C1A17499   0.756   6.488   5.694  0.1610  0.3086  0.0258
 1136loPI   C2A17500   0.782   6.792   6.063  0.0726  0.2421  0.0529
 1136loPI   C3A17501   0.835   6.783   6.552 -0.0891 -0.1000 -0.0571
 1136loPI   C4A17502   0.887   6.841   7.011 -0.1311 -0.1031 -0.0465
 1136loPI   C5A17503   1.187   6.700   7.387  0.1362 -0.1398 -0.2672
 1136loPI   C6A17504   1.221   6.586   7.795  0.2698 -0.1159 -0.1284
 1136loPI   C1B17505   1.228   6.719   5.658 -0.0765  0.2321 -0.2578
 1136loPI   C2B17506   1.413   6.787   6.107  0.0751  0.0730  0.0984
 1136loPI   C3B17507   1.380   6.851   6.478  0.1299 -0.3373  0.1760
 1136loPI   C4B17508   1.414   6.877   6.982  0.4667  0.1964  0.0134
 1137loPI    C117509   7.682   2.173   5.444 -0.0288  0.1602 -0.0181
 1137loPI    C217510   7.696   1.936   5.122 -0.2293 -0.1170  0.1713
 1137loPI    C317511   7.547   2.306   5.092 -0.1848 -0.1164 -0.0662
 1137loPI   PO417512   7.451   2.069   5.668  0.0239 -0.1538 -0.2250
 1137loPI   GL117513   7.647   2.168   6.084 -0.4696 -0.0249  0.2050
 1137loPI   GL217514   7.866   2.191   6.311 -0.2688 -0.0916 -0.0722
 1137loPI   C1A17515   7.333   2.275   6.477 -0.4599 -0.2803  0.2459
 1137loPI   C2A17516   7.177   2.314   6.777  0.0899  0.0433  0.0023
 1137loPI   C3A17517   6.994   2.103   7.104 -0.2058 -0.2949 -0.0077
 1137loPI   C4A17518   7.336   1.921   7.390  0.2020  0.2900  0.0688
 1137loPI   C5A17519   7.429   1.634   7.658 -0.0286 -0.5976 -0.1500
 1137loPI   C6A17520   7.588   1.446   7.937  0.2107  0.0844 -0.0205
 1137loPI   C1B17521   7.760   2.075   6.716  0.0144 -0.0769  0.3000
 1137loPI   C2B17522   7.804   1.991   7.165  0.1631  0.0702  0.1161
 1137loPI   C3B17523   7.855   1.892   7.611 -0.0479  0.1130 -0.1360
 1137loPI   C4B17524   8.023   1.717   7.941 -0.3690 -0.0911 -0.2348
 1138loPI    C117525  10.197  11.872   5.741  0.1835  0.0857 -0.0335
 1138loPI    C217526  10.146  12.222   5.928  0.0994  0.1063 -0.0940
 1138loPI    C317527  10.198  12.213   5.532  0.1236  0.0515 -0.0897
 1138loPI   PO417528  10.380  11.719   5.894  0.2000 -0.3017 -0.0182
 1138loPI   GL117529  10.290  11.747   6.270 -0.0784  0.0597  0.1904
 1138loPI   GL217530  10.054  11.530   6.416  0.0090  0.1776  0.2108
 1138loPI   C1A17531  10.577  11.397   6.495 -0.2247 -0.1140  0.0823
 1138loPI   C2A17532  10.691  11.208   6.755 -0.1355 -0.1703 -0.2905
 1138loPI   C3A17533  10.781  10.834   6.778  0.2240  0.1094  0.1456
 1138loPI   C4A17534  10.671  10.514   6.998 -0.1483  0.0118  0.1057
 1138loPI   C5A17535  10.305  10.296   7.146  0.0371 -0.2629 -0.0675
 1138loPI   C6A17536   9.939  10.021   7.131  0.0130  0.0733  0.0659
 1138loPI   C1B17537  10.213  11.467   6.871  0.1925  0.2720  0.0095
 1138loPI   C2B17538   9.947  11.240   7.217 -0.3768 -0.0456  0.1006
 1138loPI   C3B17539   9.642  11.099   7.631  0.0269  0.1359 -0.0773
 1138loPI   C4B17540   9.298  11.009   7.976  0.3115  0.2493 -0.0639
 1139loPI    C117541  11.242  11.293   5.280 -0.1662  0.1786 -0.1032
 1139loPI    C217542  11.085  10.930   5.342  0.1120  0.1186  0.2864
 1139loPI    C317543  10.971  11.146   5.025 -0.0863 -0.2897  0.0723
 1139loPI   PO417544  11.280  11.437   5.527  0.2264  0.1412  0.2107
 1139loPI   GL117545  11.356  11.671   5.872 -0.2673  0.1142  0.1135
 1139loPI   GL217546  11.150  11.492   6.065 -0.1394  0.0025  0.2506
 1139loPI   C1A17547  11.604  11.411   6.194 -0.2590 -0.1357  0.0140
 1139loPI   C2A17548  11.614  11.272   6.667  0.1132 -0.1760 -0.1248
 1139loPI   C3A17549  11.610  11.337   7.092 -0.1434 -0.2636  0.0843
 1139loPI   C4A17550  11.341  11.263   7.421 -0.0260  0.0385 -0.0097
 1139loPI   C5A17551  11.099  11.342   7.765 -0.0579 -0.3991  0.0109
 1139loPI   C6A17552  10.947  11.608   8.095 -0.0109  0.0545  0.0909
 1139loPI   C1B17553  11.160  11.554   6.581 -0.1922 -0.0084  0.2383
 1139loPI   C2B17554  11.189  11.552   6.976  0.1484 -0.1061 -0.0899
 1139loPI   C3B17555  11.056  11.729   7.373  0.3668 -0.1662 -0.2515
 1139loPI   C4B17556  10.762  11.728   7.613  0.3890  0.1584  0.1803
 1140loPI    C117557  14.581   7.614   5.349 -0.1871  0.1986  0.0084
 1140loPI    C217558  14.589   7.962   5.151 -0.0562  0.2575  0.1153
 1140loPI    C317559  14.287   7.706   5.093 -0.0630  0.3112 -0.0956
 1140loPI   PO417560  14.721   7.537   5.544 -0.3425  0.0423  0.0819
 1140loPI   GL117561  14.803   7.659   5.967  0.0526  0.1428 -0.2249
 1140loPI   GL217562  14.684   7.836   6.128  0.3141 -0.1296 -0.3538
 1140loPI   C1A17563  15.095   7.480   6.227  0.0816 -0.1530 -0.2050
 1140loPI   C2A17564  15.054   7.500   6.623  0.3584  0.2189 -0.1796
 1140loPI   C3A17565  15.196   7.554   7.071 -0.2975 -0.1343 -0.1314
 1140loPI   C4A17566  15.175   7.380   7.405  0.2465 -0.3529 -0.0163
 1140loPI   C5A17567  15.255   7.228   7.816 -0.1879 -0.2643  0.4057
 1140loPI   C6A17568  15.538   7.174   8.092  0.0707  0.1641  0.1880
 1140loPI   C1B17569  14.553   7.874   6.546 -0.0781  0.2543 -0.4843
 1140loPI   C2B17570  14.823   7.880   6.927 -0.0168 -0.0921  0.1533
 1140loPI   C3B17571  14.746   7.715   7.379  0.0302  0.1169 -0.1840
 1140loPI   C4B17572  14.280   7.850   7.623 -0.1975  0.2133 -0.2909
 1141loPI    C117573   6.635   8.782   5.379  0.0214 -0.0996 -0.0917
 1141loPI    C217574   6.958   8.551   5.426  0.1361  0.0716 -0.0283
 1141loPI    C317575   6.941   8.811   5.123 -0.1509 -0.2781 -0.3227
 1141loPI   PO417576   6.598   8.969   5.676 -0.2791  0.0968  0.1608
 1141loPI   GL117577   6.853   9.014   6.071 -0.1284 -0.1502  0.1058
 1141loPI   GL217578   7.077   9.275   6.142  0.0265  0.2099  0.3297
 1141loPI   C1A17579   6.831   8.950   6.461 -0.1621  0.1386 -0.0660
 1141loPI   C2A17580   6.828   8.851   6.805 -0.1935  0.0224 -0.0299
 1141loPI   C3A17581   6.875   8.850   7.271 -0.1993 -0.1236  0.0806
 1141loPI   C4A17582   6.938   8.987   7.602  0.1126 -0.0876  0.2223
 1141loPI   C5A17583   6.735   8.981   7.924  0.0570  0.2468 -0.0054
 1141loPI   C6A17584   6.396   8.985   8.054 -0.0099  0.0733  0.0667
 1141loPI   C1B17585   6.956   9.441   6.525 -0.1772  0.0534 -0.0872
 1141loPI   C2B17586   7.056   9.371   6.932 -0.2155 -0.1297  0.0217
 1141loPI   C3B17587   7.188   9.345   7.324 -0.1665 -0.1202  0.1171
 1141loPI   C4B17588   7.360   9.401   7.695 -0.3600 -0.0017  0.0748
 1142loPI    C117589   7.680  16.846   5.482 -0.0470  0.0509  0.1753
 1142loPI    C217590   7.878  17.179   5.581 -0.0367  0.0679  0.0985
 1142loPI    C317591   8.027  16.934   5.303 -0.0434 -0.0018  0.1561
 1142loPI   PO417592   7.422  16.805   5.696  0.3014  0.0428 -0.1400
 1142loPI   GL117593   7.236  16.630   6.091 -0.0692  0.1775 -0.4520
 1142loPI   GL217594   7.473  16.827   6.236  0.1450 -0.0193  0.0221
 1142loPI   C1A17595   7.075  16.645   6.508  0.0201  0.3575  0.3421
 1142loPI   C2A17596   7.010  16.696   6.918 -0.2850  0.0644  0.2634
 1142loPI   C3A17597   7.138  16.827   7.276 -0.0375 -0.1009  0.0255
 1142loPI   C4A17598   7.133  16.822   7.687 -0.2397 -0.0933 -0.1182
 1142loPI   C5A17599   7.124  16.758   8.135 -0.0812 -0.2958 -0.0226
 1142loPI   C6A17600   7.371  16.551   8.493 -0.2105 -0.1373  0.0357
 1142loPI   C1B17601   7.486  16.885   6.696  0.1890  0.0782 -0.3313
 1142loPI   C2B17602   7.561  16.711   7.067  0.1651  0.1252  0.0533
 1142loPI   C3B17603   7.586  16.563   7.464  0.1312  0.0208 -0.0609
 1142loPI   C4B17604   7.528  16.533   7.891 -0.0634 -0.1551  0.1991
 1143loPI    C117605   9.935  15.539   5.479  0.0882  0.1626  0.0317
 1143loPI    C217606   9.854  15.917   5.580 -0.0246  0.1376  0.0352
 1143loPI    C317607   9.859  15.810   5.195 -0.0111  0.1383  0.0351
 1143loPI   PO417608   9.860  15.400   5.716  0.2130  0.0102 -0.1044
 1143loPI   GL117609   9.793  15.336   6.109  0.1347  0.0237  0.1824
 1143loPI   GL217610  10.103  15.417   6.242  0.0468 -0.0071  0.2070
 1143loPI   C1A17611   9.617  15.641   6.464 -0.0724 -0.1498  0.1806
 1143loPI   C2A17612   9.638  15.555   6.880  0.0457  0.1531 -0.0268
 1143loPI   C3A17613   9.729  15.510   7.270  0.0117  0.0771 -0.2816
 1143loPI   C4A17614   9.788  15.688   7.616  0.3263  0.0425  0.0146
 1143loPI   C5A17615   9.678  15.664   8.051 -0.3062 -0.0084  0.0501
 1143loPI   C6A17616   9.832  15.828   8.498 -0.0250  0.0539  0.0672
 1143loPI   C1B17617  10.015  15.288   6.695  0.0596  0.1365  0.1458
 1143loPI   C2B17618  10.151  15.237   7.210  0.0578 -0.1430  0.0527
 1143loPI   C3B17619  10.183  15.320   7.595 -0.0429  0.2910 -0.2140
 1143loPI   C4B17620  10.229  15.353   8.001 -0.0257 -0.2996 -0.2575
 1144loPI    C117621   0.367   6.062   4.835 -0.2372 -0.0143  0.1069
 1144loPI    C217622   0.480   6.255   4.504  0.0332  0.0363  0.2254
 1144loPI    C317623   0.589   5.874   4.561  0.0054  0.0345  0.2666
 1144loPI   PO417624   0.423   6.152   4.997 -0.1368  0.0779  0.1188
 1144loPI   GL117625   0.415   6.146   5.389  0.1299 -0.2730 -0.0972
 1144loPI   GL217626   0.483   5.847   5.541  0.2713  0.1278  0.0144
 1144loPI   C1A17627   0.115   6.133   5.745  0.2687 -0.0793  0.0396
 1144loPI   C2A17628   0.148   6.173   6.150  0.0340 -0.0358 -0.0602
 1144loPI   C3A17629   0.115   6.276   6.618 -0.0796  0.3295 -0.4223
 1144loPI   C4A17630   0.236   6.142   6.987  0.1423 -0.1032 -0.0616
 1144loPI   C5A17631   0.579   6.061   7.288  0.2420 -0.2505 -0.1774
 1144loPI   C6A17632   0.960   5.975   7.361 -0.3791  0.0235  0.1027
 1144loPI   C1B17633   0.601   6.055   5.941  0.2616  0.1550 -0.1386
 1144loPI   C2B17634   0.689   6.328   6.310  0.1072 -0.1499  0.3235
 1144loPI   C3B17635   0.557   6.453   6.764 -0.1313 -0.2957 -0.0303
 1144loPI   C4B17636   0.485   6.572   7.155 -0.1401  0.1489  0.0240
 1145loPI    C117637   3.903   1.506   5.544 -0.1881  0.1305 -0.1264
 1145loPI    C217638   3.636   1.317   5.313  0.0638 -0.1950 -0.1583
 1145loPI    C317639   3.959   1.485   5.148  0.1618 -0.2871 -0.0616
 1145loPI   PO417640   3.797   1.671   5.656  0.1543  0.0981 -0.1635
 1145loPI   GL117641   3.659   1.867   6.004 -0.2699  0.0080 -0.0972
 1145loPI   GL217642   3.583   2.200   6.012  0.1367  0.1542  0.1970
 1145loPI   C1A17643   3.563   1.757   6.400  0.2966 -0.0978 -0.1037
 1145loPI   C2A17644   3.537   1.748   6.781  0.2030  0.1911  0.1551
 1145loPI   C3A17645   3.610   1.635   7.168  0.3270 -0.2826  0.0922
 1145loPI   C4A17646   3.639   1.551   7.628 -0.2987 -0.2859  0.3311
 1145loPI   C5A17647   3.639   1.498   8.100  0.1100  0.2392  0.1431
 1145loPI   C6A17648   3.748   1.066   8.255  0.3858 -0.0040  0.1335
 1145loPI   C1B17649   3.490   2.244   6.386 -0.2175 -0.2038  0.0677
 1145loPI   C2B17650   3.587   2.239   6.823  0.3056 -0.0723 -0.1485
 1145loPI   C3B17651   3.550   2.378   7.239 -0.1801  0.2574 -0.2560
 1145loPI   C4B17652   3.612   2.430   7.682  0.0479  0.1314  0.0618
 1146loPI    C117653   7.901   8.099   5.003  0.0184  0.2009  0.0381
 1146loPI    C217654   8.011   7.788   4.776  0.0151  0.2723 -0.0618
 1146loPI    C317655   8.176   8.148   4.717  0.0496  0.2806  0.0815
 1146loPI   PO417656   7.966   7.994   5.309  0.2085  0.0237  0.1749
 1146loPI   GL117657   7.861   7.980   5.818  0.2323  0.1481 -0.1895
 1146loPI   GL217658   7.742   7.692   6.010 -0.1552  0.0033 -0.2664
 1146loPI   C1A17659   7.850   8.070   6.287 -0.0413 -0.2875 -0.0563
 1146loPI   C2A17660   7.541   8.088   6.579 -0.0159  0.2251  0.1434
 1146loPI   C3A17661   7.474   8.087   6.960 -0.1032  0.1185  0.0253
 1146loPI   C4A17662   7.549   7.939   7.333  0.2371  0.1210  0.0129
 1146loPI   C5A17663   7.893   7.846   7.694 -0.1476 -0.0916 -0.0407
 1146loPI   C6A17664   8.045   7.794   8.200  0.2035  0.1815  0.2309
 1146loPI   C1B17665   7.672   7.643   6.402 -0.1072  0.0430 -0.2414
 1146loPI   C2B17666   7.528   7.611   6.850 -0.1015 -0.2197 -0.0596
 1146loPI   C3B17667   7.289   7.539   7.129  0.1883  0.0241  0.0680
 1146loPI   C4B17668   6.829   7.403   7.257 -0.0603 -0.1424 -0.0650
 1147loPI    C117669  16.133   7.885   5.312  0.0610  0.0040 -0.2606
 1147loPI    C217670  16.280   8.220   5.148  0.0082  0.0359 -0.2432
 1147loPI    C317671  16.081   7.956   4.922 -0.1051  0.1022 -0.2216
 1147loPI   PO417672  16.043   7.965   5.534  0.3425 -0.3426 -0.1704
 1147loPI   GL117673  16.178   7.833   5.900  0.1247 -0.2558 -0.3086
 1147loPI   GL217674  16.345   7.885   6.041 -0.1669 -0.3285  0.0606
 1147loPI   C1A17675  16.061   7.645   6.339 -0.0115  0.1208  0.0618
 1147loPI   C2A17676  16.068   7.575   6.775  0.1329 -0.0311  0.0769
 1147loPI   C3A17677  16.078   7.587   7.089  0.1569  0.1265  0.1060
 1147loPI   C4A17678  16.090   7.615   7.450 -0.0422  0.0271 -0.1434
 1147loPI   C5A17679  16.013   7.500   7.778  0.1029  0.1912 -0.0025
 1147loPI   C6A17680  15.948   7.414   8.280 -0.0080 -0.2226 -0.0555
 1147loPI   C1B17681  16.480   7.934   6.468 -0.2072  0.4268  0.2678
 1147loPI   C2B17682  16.506   7.780   6.912  0.3349  0.0153  0.1797
 1147loPI   C3B17683  16.622   7.885   7.316 -0.0980  0.0598 -0.0371
 1147loPI   C4B17684  16.403   7.906   7.768  0.6074  0.0303 -0.1194
 1148loPI    C117685  14.291   4.340   5.423 -0.0055 -0.0558 -0.1711
 1148loPI    C217686  14.147   4.709   5.476 -0.1510 -0.1256 -0.0726
 1148loPI    C317687  14.311   4.606   5.126 -0.0063  0.0664 -0.0627
 1148loPI   PO417688  14.414   4.299   5.667  0.1511 -0.0951  0.1629
 1148loPI   GL117689  14.506   4.525   5.992  0.3533  0.1608 -0.1142
 1148loPI   GL217690  14.194   4.561   5.978  0.0145  0.0430  0.3287
 1148loPI   C1A17691  14.666   4.594   6.338  0.0265  0.2273  0.0144
 1148loPI   C2A17692  14.865   4.598   6.757 -0.0198  0.3212 -0.3677
 1148loPI   C3A17693  14.853   4.661   7.143 -0.1705  0.1002  0.0087
 1148loPI   C4A17694  14.611   4.843   7.413  0.5121  0.0177 -0.2414
 1148loPI   C5A17695  14.376   5.201   7.727 -0.0323  0.0968 -0.2504
 1148loPI   C6A17696  14.418   5.488   7.956  0.0664  0.3215 -0.1275
 1148loPI   C1B17697  14.198   4.321   6.296  0.0961 -0.2667 -0.1038
 1148loPI   C2B17698  14.417   4.293   6.668  0.3727 -0.0585 -0.1848
 1148loPI   C3B17699  14.437   4.410   7.096 -0.0352 -0.2430  0.0366
 1148loPI   C4B17700  14.259   4.529   7.501  0.2168 -0.0875 -0.2992
 1149loPI    C117701  10.694   5.821   5.054 -0.1939  0.0073 -0.0926
 1149loPI    C217702  10.644   6.210   4.973  0.0724  0.0349 -0.1333
 1149loPI    C317703  10.982   6.025   4.865  0.1001 -0.1212  0.2052
 1149loPI   PO417704  10.709   5.780   5.314 -0.3828 -0.1857 -0.1531
 1149loPI   GL117705  10.597   5.898   5.730  0.2423  0.0144  0.0712
 1149loPI   GL217706  10.810   6.183   5.649  0.2118  0.0762  0.1327
 1149loPI   C1A17707  10.695   5.770   6.145  0.1001  0.0428 -0.1342
 1149loPI   C2A17708  10.750   5.796   6.602 -0.0222  0.1804 -0.2347
 1149loPI   C3A17709  10.735   5.767   7.078  0.0422 -0.2742  0.3224
 1149loPI   C4A17710  10.870   5.699   7.473 -0.3333  0.1008  0.2107
 1149loPI   C5A17711  10.995   5.857   7.844 -0.1522  0.1803 -0.2089
 1149loPI   C6A17712  10.934   6.231   8.063 -0.1293  0.2461 -0.3929
 1149loPI   C1B17713  11.076   6.126   6.005  0.1457  0.1794  0.2853
 1149loPI   C2B17714  11.085   6.144   6.425 -0.1299  0.0315 -0.0478
 1149loPI   C3B17715  11.124   6.093   6.822  0.0976  0.0115  0.2982
 1149loPI   C4B17716  11.188   6.076   7.250  0.1942  0.0684 -0.0477
 1150loPI    C117717  11.119   8.827   5.271 -0.2062 -0.0312  0.1077
 1150loPI    C217718  10.993   8.586   5.564  0.0096 -0.2858 -0.0040
 1150loPI    C317719  10.834   8.556   5.198 -0.1680 -0.0565  0.0516
 1150loPI   PO417720  11.176   9.041   5.406  0.2337 -0.1658 -0.0054
 1150loPI   GL117721  11.331   8.851   5.841  0.2957 -0.2022  0.0611
 1150loPI   GL217722  11.305   8.591   5.958 -0.3360  0.5582  0.1772
 1150loPI   C1A17723  11.338   8.914   6.379  0.0287 -0.0903 -0.0617
 1150loPI   C2A17724  11.355   8.937   6.791  0.1563  0.0258  0.0534
 1150loPI   C3A17725  11.446   8.849   7.245 -0.0904 -0.2013  0.3057
 1150loPI   C4A17726  11.386   8.813   7.630 -0.0329 -0.2210  0.0174
 1150loPI   C5A17727  11.711   8.879   8.045 -0.0434 -0.0420 -0.0133
 1150loPI   C6A17728  11.951   8.921   8.417 -0.0373  0.2330  0.0800
 1150loPI   C1B17729  11.351   8.396   6.407 -0.1091 -0.1469 -0.0287
 1150loPI   C2B17730  11.458   8.343   6.878 -0.1386 -0.3458  0.1513
 1150loPI   C3B17731  11.429   8.370   7.380  0.2867 -0.1752 -0.0448
 1150loPI   C4B17732  11.659   8.274   7.801  0.0582  0.1546  0.0129
 1151loPI    C117733   7.158  13.551   5.746  0.0718  0.0248  0.0028
 1151loPI    C217734   7.534  13.505   5.875  0.1009  0.2251 -0.0070
 1151loPI    C317735   7.456  13.509   5.483  0.0224 -0.3056 -0.0038
 1151loPI   PO417736   6.977  13.434   6.037 -0.2167  0.2201 -0.2471
 1151loPI   GL117737   6.714  13.501   6.298  0.0966  0.1339  0.1222
 1151loPI   GL217738   6.490  13.277   6.211  0.0873  0.0518  0.1090
 1151loPI   C1A17739   6.734  13.437   6.717 -0.1140  0.1970  0.1367
 1151loPI   C2A17740   6.640  13.359   7.122  0.0776  0.0550  0.1288
 1151loPI   C3A17741   6.582  13.368   7.441 -0.1040  0.2265 -0.0485
 1151loPI   C4A17742   6.627  13.302   7.855  0.0328  0.1176  0.3497
 1151loPI   C5A17743   6.758  13.032   8.141 -0.1395  0.1836  0.1616
 1151loPI   C6A17744   7.167  13.114   8.376  0.0498 -0.0733 -0.0411
 1151loPI   C1B17745   6.379  13.185   6.500 -0.0246 -0.1041  0.0124
 1151loPI   C2B17746   6.238  13.032   6.993 -0.1886  0.1297  0.1220
 1151loPI   C3B17747   6.227  13.000   7.425  0.1319  0.0758 -0.0678
 1151loPI   C4B17748   6.393  12.807   7.728 -0.0655  0.1900 -0.4299
 1152loPI    C117749  10.967  10.214   5.735  0.0085 -0.0768 -0.3085
 1152loPI    C217750  10.625  10.228   5.528 -0.1683 -0.0996 -0.0234
 1152loPI    C317751  10.807  10.567   5.636 -0.0247 -0.0880 -0.2949
 1152loPI   PO417752  10.898  10.018   6.026  0.0471  0.1043 -0.1497
 1152loPI   GL117753  11.184   9.702   6.277  0.1699 -0.2252 -0.3383
 1152loPI   GL217754  11.322   9.385   6.236  0.1963  0.0012 -0.1897
 1152loPI   C1A17755  11.223   9.438   6.732 -0.0173  0.0965 -0.0516
 1152loPI   C2A17756  11.343   9.384   7.200  0.1077  0.0284  0.2000
 1152loPI   C3A17757  11.097   9.440   7.612 -0.0518  0.0458  0.0087
 1152loPI   C4A17758  11.061   9.515   7.995  0.0043 -0.3229  0.1977
 1152loPI   C5A17759  10.823   9.902   8.224  0.2872 -0.1528 -0.0733
 1152loPI   C6A17760  10.532   9.969   8.518 -0.0632 -0.3065  0.0635
 1152loPI   C1B17761  11.668   9.232   6.513  0.1149  0.2388 -0.0621
 1152loPI   C2B17762  11.830   9.134   7.019 -0.0176 -0.0384  0.0818
 1152loPI   C3B17763  11.730   9.184   7.480  0.0102  0.0581 -0.0151
 1152loPI   C4B17764  11.433   9.211   7.872  0.4200  0.1515  0.5366
 1153loPI    C117765  17.782  13.547   5.732  0.0733 -0.0465 -0.1722
 1153loPI    C217766  17.514  13.263   5.646 -0.0262 -0.0063 -0.0007
 1153loPI    C317767  17.592  13.551   5.379  0.0799 -0.1961 -0.1779
 1153loPI   PO417768  17.791  13.568   5.954  0.3155  0.1586 -0.1122
 1153loPI   GL117769  17.751  13.686   6.361  0.0439 -0.1037 -0.2959
 1153loPI   GL217770  17.435  13.579   6.480  0.0838  0.0918 -0.3179
 1153loPI   C1A17771  17.962  13.451   6.667 -0.0179  0.1346  0.2222
 1153loPI   C2A17772  17.943  13.412   7.097  0.1984  0.2804  0.1228
 1153loPI   C3A17773  18.003  13.393   7.522 -0.1928 -0.1061 -0.1917
 1153loPI   C4A17774  17.961  13.481   7.999 -0.1461  0.0467 -0.1259
 1153loPI   C5A17775  17.853  13.239   8.352  0.3463  0.1763  0.1633
 1153loPI   C6A17776  17.755  12.779   8.269 -0.2459 -0.0810  0.2388
 1153loPI   C1B17777  17.518  13.693   6.856 -0.1374  0.2496 -0.1582
 1153loPI   C2B17778  17.448  13.600   7.268 -0.0732  0.2673 -0.1467
 1153loPI   C3B17779  17.609  13.799   7.680 -0.1638 -0.0276  0.0648
 1153loPI   C4B17780  17.595  14.168   7.938  0.3164  0.3424 -0.0069
 1154loPI    C117781   6.523   3.402   5.116 -0.0312 -0.0519  0.0178
 1154loPI    C217782   6.803   3.118   5.084  0.0185  0.0087 -0.0924
 1154loPI    C317783   6.422   3.034   4.995  0.0177 -0.0471 -0.0378
 1154loPI   PO417784   6.563   3.527   5.257  0.0856 -0.1414  0.0750
 1154loPI   GL117785   6.500   3.528   5.737  0.2175 -0.0142 -0.0843
 1154loPI   GL217786   6.221   3.566   5.863  0.1087  0.1373 -0.1244
 1154loPI   C1A17787   6.530   3.946   6.081  0.0528  0.1642  0.0606
 1154loPI   C2A17788   6.724   4.208   6.424 -0.3548 -0.4284  0.4403
 1154loPI   C3A17789   6.654   4.220   6.801 -0.1084 -0.0747 -0.0942
 1154loPI   C4A17790   6.534   4.346   7.211 -0.3153 -0.1179  0.1578
 1154loPI   C5A17791   6.514   4.376   7.685  0.0108  0.0488 -0.1702
 1154loPI   C6A17792   6.749   4.393   8.006 -0.1717  0.1692  0.1883
 1154loPI   C1B17793   6.171   3.428   6.309 -0.0210  0.2011 -0.4056
 1154loPI   C2B17794   6.179   3.442   6.778 -0.2065 -0.1716  0.0211
 1154loPI   C3B17795   6.076   3.430   7.243  0.0979  0.1685  0.0318
 1154loPI   C4B17796   6.074   3.281   7.586 -0.0137 -0.0228  0.3315
 1155loPI    C117797   9.104   3.788   5.398 -0.0085 -0.0327  0.0625
 1155loPI    C217798   8.732   3.917   5.471  0.0600  0.1503  0.0943
 1155loPI    C317799   8.885   3.945   5.102  0.0551  0.1074  0.0889
 1155loPI   PO417800   9.188   3.827   5.686 -0.1068  0.2086 -0.2315
 1155loPI   GL117801   8.989   3.939   6.047  0.3986  0.2591  0.1307
 1155loPI   GL217802   8.697   3.767   6.200  0.0573 -0.2580  0.0484
 1155loPI   C1A17803   9.104   4.047   6.444  0.0353 -0.1197 -0.2933
 1155loPI   C2A17804   9.014   4.063   6.892  0.0869 -0.0443 -0.2372
 1155loPI   C3A17805   8.807   3.954   7.337 -0.0054 -0.0531  0.0385
 1155loPI   C4A17806   8.517   3.923   7.677  0.3764 -0.0027  0.1877
 1155loPI   C5A17807   8.256   3.892   8.123 -0.0940  0.1602 -0.2479
 1155loPI   C6A17808   7.969   3.636   8.205  0.3571  0.0785  0.2296
 1155loPI   C1B17809   8.677   3.452   6.318  0.0815 -0.0184  0.3199
 1155loPI   C2B17810   8.671   3.355   6.727 -0.0150  0.2014  0.1196
 1155loPI   C3B17811   8.482   3.135   7.149  0.0350  0.0206  0.0699
 1155loPI   C4B17812   8.240   3.249   7.495 -0.1332 -0.2544  0.0447
 1156loPI    C117813  12.590  16.637   5.233  0.0489  0.0825  0.0216
 1156loPI    C217814  12.320  16.743   4.958  0.1343  0.1612 -0.0322
 1156loPI    C317815  12.649  16.542   4.849  0.0707  0.0157  0.0413
 1156loPI   PO417816  12.560  16.915   5.457  0.1844  0.0195 -0.1426
 1156loPI   GL117817  12.489  16.641   5.954  0.1823  0.0101  0.2082
 1156loPI   GL217818  12.145  16.649   5.997 -0.1716 -0.0571  0.0664
 1156loPI   C1A17819  12.436  16.552   6.412 -0.0436 -0.2370 -0.0334
 1156loPI   C2A17820  12.371  16.619   6.833 -0.2507  0.0376  0.0679
 1156loPI   C3A17821  12.466  16.628   7.266 -0.0388  0.1543 -0.0456
 1156loPI   C4A17822  12.566  16.515   7.719  0.4248 -0.0252 -0.1229
 1156loPI   C5A17823  12.881  16.335   7.924 -0.2008  0.1873  0.2961
 1156loPI   C6A17824  13.010  16.157   8.286 -0.0253  0.0515  0.0659
 1156loPI   C1B17825  11.974  16.697   6.375  0.1416  0.2440 -0.0374
 1156loPI   C2B17826  11.923  16.810   6.844  0.1475  0.0978  0.2164
 1156loPI   C3B17827  11.996  16.856   7.238  0.0150 -0.0510  0.2722
 1156loPI   C4B17828  12.105  16.768   7.641 -0.0198 -0.0748  0.0139
 1157loPI    C117829  11.231   1.430   5.113  0.2280 -0.3783  0.1434
 1157loPI    C217830  11.385   1.114   4.923  0.0130 -0.2372 -0.2784
 1157loPI    C317831  11.290   1.444   4.718 -0.2140 -0.0734  0.0810
 1157loPI   PO417832  11.008   1.325   5.262  0.2076 -0.0009  0.0043
 1157loPI   GL117833  11.023   1.193   5.605 -0.0847  0.1159  0.1195
 1157loPI   GL217834  10.742   1.001   5.622 -0.2028  0.3880  0.0478
 1157loPI   C1A17835  10.982   1.367   6.034  0.0192  0.0619 -0.0398
 1157loPI   C2A17836  11.025   1.521   6.442 -0.2088 -0.1532 -0.0303
 1157loPI   C3A17837  11.054   1.587   6.805  0.1893 -0.2478 -0.1634
 1157loPI   C4A17838  11.189   1.646   7.204 -0.0040  0.1798  0.3248
 1157loPI   C5A17839  11.163   1.845   7.687 -0.0425  0.2808  0.2284
 1157loPI   C6A17840  11.168   2.039   8.037 -0.1679 -0.0162 -0.3824
 1157loPI   C1B17841  10.777   0.734   6.061  0.0882 -0.0833  0.3916
 1157loPI   C2B17842  10.622   0.694   6.416 -0.0621 -0.2128 -0.0083
 1157loPI   C3B17843  10.686   0.745   6.863  0.2093  0.1805  0.0055
 1157loPI   C4B17844  10.609   0.883   7.343  0.2892 -0.1432  0.0034
 1158loPI    C117845   1.810   3.926   5.021  0.0011  0.1824  0.2304
 1158loPI    C217846   2.041   3.900   5.347  0.2788  0.1456  0.0343
 1158loPI    C317847   2.197   3.832   4.985 -0.0322  0.1624 -0.1065
 1158loPI   PO417848   1.608   4.000   5.160 -0.0823  0.3855  0.1724
 1158loPI   GL117849   1.364   3.731   5.551  0.3668  0.0043 -0.1141
 1158loPI   GL217850   1.635   3.913   5.692  0.4385 -0.0117  0.1960
 1158loPI   C1A17851   1.361   3.671   6.016  0.0683  0.1651  0.1083
 1158loPI   C2A17852   1.240   3.571   6.521 -0.1591 -0.3633  0.1182
 1158loPI   C3A17853   1.258   3.680   6.941  0.1114  0.2534  0.1271
 1158loPI   C4A17854   1.252   3.490   7.274  0.1217 -0.2390 -0.0164
 1158loPI   C5A17855   1.144   3.236   7.562 -0.1128  0.4051  0.0507
 1158loPI   C6A17856   1.240   2.810   7.785 -0.0262  0.0049 -0.0852
 1158loPI   C1B17857   1.638   4.046   6.002 -0.2836  0.2831  0.0201
 1158loPI   C2B17858   1.625   3.980   6.361  0.1571 -0.0996  0.1434
 1158loPI   C3B17859   1.723   3.886   6.699  0.1131  0.0354  0.0498
 1158loPI   C4B17860   1.813   3.846   7.149 -0.1116 -0.0609 -0.1187
 1159loPI    C117861   0.726  10.685   5.260 -0.0440 -0.1734  0.1082
 1159loPI    C217862   0.330  10.638   5.293 -0.0764 -0.0978 -0.1484
 1159loPI    C317863   0.535  10.421   5.027  0.0137  0.0563 -0.2064
 1159loPI   PO417864   0.810  10.822   5.415 -0.1151  0.3044  0.0413
 1159loPI   GL117865   0.949  10.941   5.726 -0.1656  0.2127  0.3413
 1159loPI   GL217866   1.210  10.774   5.787  0.1170  0.1638 -0.0516
 1159loPI   C1A17867   0.821  10.805   6.067  0.0597  0.2851  0.4742
 1159loPI   C2A17868   0.801  10.689   6.445  0.2505  0.1670  0.2977
 1159loPI   C3A17869   0.834  10.679   6.867  0.2513 -0.1028  0.1675
 1159loPI   C4A17870   0.744  10.674   7.313  0.0142  0.0357  0.0016
 1159loPI   C5A17871   0.665  10.766   7.718  0.0400 -0.0023 -0.1146
 1159loPI   C6A17872   0.683  10.784   8.183 -0.0885 -0.0045 -0.0334
 1159loPI   C1B17873   1.232  10.517   6.193 -0.0399 -0.2926  0.1394
 1159loPI   C2B17874   1.327  10.387   6.663 -0.0300 -0.5354  0.0166
 1159loPI   C3B17875   1.179  10.379   7.131 -0.1440 -0.0068  0.2116
 1159loPI   C4B17876   1.210  10.415   7.534  0.1225 -0.3218 -0.2600
 1160loPI    C117877  14.340   2.998   5.098 -0.2571 -0.0045 -0.0017
 1160loPI    C217878  14.230   2.824   4.756  0.1496 -0.0463 -0.1173
 1160loPI    C317879  14.617   2.891   4.830  0.0672 -0.0440  0.3399
 1160loPI   PO417880  14.329   2.916   5.319  0.2084  0.2848 -0.1020
 1160loPI   GL117881  14.056   2.976   5.598 -0.1746 -0.2996 -0.0889
 1160loPI   GL217882  13.887   2.699   5.708  0.0001  0.0880  0.1772
 1160loPI   C1A17883  14.036   2.938   6.094  0.1700 -0.0331  0.1544
 1160loPI   C2A17884  13.999   2.970   6.555 -0.0956  0.3149  0.2412
 1160loPI   C3A17885  13.970   3.021   6.938 -0.1080 -0.0494 -0.1887
 1160loPI   C4A17886  13.975   3.040   7.366 -0.3133  0.0307 -0.1065
 1160loPI   C5A17887  14.156   3.251   7.703  0.1481 -0.0463 -0.2105
 1160loPI   C6A17888  14.391   3.049   8.079  0.0498  0.0395 -0.1029
 1160loPI   C1B17889  13.950   2.403   6.047 -0.2879 -0.1321 -0.1512
 1160loPI   C2B17890  14.059   2.510   6.438  0.1343 -0.2412  0.2710
 1160loPI   C3B17891  14.107   2.531   6.902  0.1410  0.1188 -0.1179
 1160loPI   C4B17892  14.046   2.541   7.328  0.0405 -0.1418 -0.1709
 1161loPI    C117893   6.655  10.982   5.435 -0.1763 -0.0314 -0.0817
 1161loPI    C217894   6.973  10.791   5.283 -0.1524 -0.0919  0.0435
 1161loPI    C317895   7.024  11.126   5.495 -0.1888  0.0146 -0.1143
 1161loPI   PO417896   6.524  10.785   5.517 -0.0821 -0.2061  0.1284
 1161loPI   GL117897   6.512  10.634   5.903 -0.0130 -0.0449 -0.0337
 1161loPI   GL217898   6.224  10.650   6.006  0.0191 -0.2787 -0.0522
 1161loPI   C1A17899   6.702  10.586   6.255 -0.1686  0.1234 -0.3089
 1161loPI   C2A17900   6.752  10.698   6.672  0.0130  0.2651 -0.2266
 1161loPI   C3A17901   6.730  11.066   7.008  0.1419  0.0131  0.1732
 1161loPI   C4A17902   6.699  11.073   7.458 -0.2815 -0.0277  0.2313
 1161loPI   C5A17903   6.685  11.401   7.854  0.0781  0.0314 -0.2730
 1161loPI   C6A17904   6.946  11.476   8.045 -0.1344 -0.0461 -0.0783
 1161loPI   C1B17905   5.914  10.668   6.301 -0.1269 -0.1196 -0.1200
 1161loPI   C2B17906   5.838  10.702   6.718  0.2155  0.2231  0.0961
 1161loPI   C3B17907   5.835  10.544   7.105 -0.4854  0.0123  0.0839
 1161loPI   C4B17908   5.758  10.464   7.533 -0.0372 -0.1618  0.0610
 1162loPI    C117909   8.315   0.420   5.752  0.0906  0.0090  0.0375
 1162loPI    C217910   8.439   0.043   5.704 -0.0566 -0.0382  0.0240
 1162loPI    C317911   8.661   0.346   5.566  0.0329 -0.1227 -0.0185
 1162loPI   PO417912   8.332   0.473   6.014 -0.2112 -0.2197 -0.2085
 1162loPI   GL117913   7.958   0.474   6.323  0.2313  0.1462  0.4319
 1162loPI   GL217914   7.777   0.217   6.339 -0.0736 -0.0427 -0.1603
 1162loPI   C1A17915   7.948   0.435   6.844  0.2953 -0.0570  0.1287
 1162loPI   C2A17916   7.646   0.435   7.288  0.1942 -0.0617  0.0391
 1162loPI   C3A17917   7.469   0.494   7.790  0.4000 -0.1474  0.0681
 1162loPI   C4A17918   7.346   0.294   8.048  0.0399  0.0326 -0.2242
 1162loPI   C5A17919   7.364   0.049   8.424 -0.2533  0.3206 -0.0633
 1162loPI   C6A17920   7.165  -0.305   8.606 -0.0658  0.2500  0.5243
 1162loPI   C1B17921   8.083   0.031   6.651  0.3592  0.2471 -0.3524
 1162loPI   C2B17922   8.031   0.019   7.107  0.0116 -0.0187 -0.0632
 1162loPI   C3B17923   7.739  -0.119   7.421  0.0855 -0.2815  0.1051
 1162loPI   C4B17924   7.426  -0.035   7.631 -0.1081  0.0340  0.0163
 1163loPI    C117925   0.927  10.046   5.221  0.0524  0.0956  0.0251
 1163loPI    C217926   1.290  10.120   5.071 -0.0139  0.0328 -0.1689
 1163loPI    C317927   0.967  10.148   4.837 -0.1389  0.1276  0.0126
 1163loPI   PO417928   0.911  10.218   5.392  0.1158 -0.0414 -0.2567
 1163loPI   GL117929   0.833  10.427   5.695  0.0221 -0.0925  0.0502
 1163loPI   GL217930   0.381  10.500   5.744  0.0956  0.3294  0.2567
 1163loPI   C1A17931   0.831  10.262   6.065  0.2850  0.1112  0.0385
 1163loPI   C2A17932   0.775  10.193   6.498  0.0243 -0.0878 -0.2699
 1163loPI   C3A17933   0.751  10.176   6.881  0.1055  0.0099  0.0956
 1163loPI   C4A17934   0.689  10.160   7.289 -0.0572 -0.1806 -0.0720
 1163loPI   C5A17935   0.722  10.250   7.639 -0.2326 -0.0432  0.0469
 1163loPI   C6A17936   1.008  10.185   7.933  0.0019 -0.3815 -0.0833
 1163loPI   C1B17937   0.325  10.491   6.172 -0.0380 -0.2520 -0.1003
 1163loPI   C2B17938   0.329  10.493   6.645 -0.2241  0.0410 -0.1435
 1163loPI   C3B17939   0.339  10.458   7.119  0.2675  0.0685 -0.2132
 1163loPI   C4B17940   0.272  10.420   7.598  0.3144 -0.0222 -0.3655
 1164loPI    C117941   9.579   0.172   5.536 -0.0253  0.0304  0.0739
 1164loPI    C217942   9.544  -0.135   5.281  0.2138 -0.0157  0.0941
 1164loPI    C317943   9.821   0.147   5.219 -0.1469  0.3186 -0.0451
 1164loPI   PO417944   9.615   0.018   5.803  0.0421  0.2198  0.1219
 1164loPI   GL117945   9.424  -0.076   6.115  0.1104  0.0968 -0.1662
 1164loPI   GL217946   9.075  -0.082   6.336  0.1262  0.0975  0.0853
 1164loPI   C1A17947   9.479   0.002   6.600  0.0380  0.0261  0.0004
 1164loPI   C2A17948   9.371   0.333   6.751 -0.2029 -0.1010  0.2031
 1164loPI   C3A17949   9.236   0.619   7.133  0.0887  0.1966 -0.0681
 1164loPI   C4A17950   9.309   0.774   7.426 -0.3471 -0.1045  0.2290
 1164loPI   C5A17951   9.295   0.902   7.850  0.1743  0.1701  0.1320
 1164loPI   C6A17952   9.280   0.727   8.261  0.0597  0.1774  0.0556
 1164loPI   C1B17953   8.970   0.047   6.773  0.0189 -0.3430 -0.2567
 1164loPI   C2B17954   9.136   0.161   7.158 -0.1452  0.1334 -0.1293
 1164loPI   C3B17955   9.084   0.256   7.537  0.2501 -0.2515  0.0350
 1164loPI   C4B17956   9.150   0.403   7.865 -0.2431 -0.1263 -0.2648
 1165loPI    C117957   0.267   7.776   5.027 -0.2978 -0.2524 -0.2846
 1165loPI    C217958   0.067   7.858   5.363  0.0153  0.0850 -0.1735
 1165loPI    C317959  -0.123   7.860   5.012 -0.2398  0.0831 -0.0376
 1165loPI   PO417960   0.526   7.983   5.134 -0.1354 -0.1458 -0.0129
 1165loPI   GL117961   0.688   8.046   5.570 -0.0642 -0.2152  0.1623
 1165loPI   GL217962   0.366   8.256   5.579 -0.1061  0.0043  0.5625
 1165loPI   C1A17963   0.828   8.064   6.059  0.0332 -0.2148 -0.1607
 1165loPI   C2A17964   0.539   8.004   6.388 -0.3322  0.1229 -0.1855
 1165loPI   C3A17965   0.322   8.060   6.841  0.4075 -0.2285  0.1044
 1165loPI   C4A17966   0.021   8.044   7.173  0.2165 -0.3459  0.0084
 1165loPI   C5A17967   0.018   7.873   7.597  0.0084  0.0028 -0.0858
 1165loPI   C6A17968  -0.092   7.405   7.573  0.0246 -0.1732 -0.0281
 1165loPI   C1B17969   0.382   8.274   6.004 -0.2453  0.1981 -0.0385
 1165loPI   C2B17970   0.292   8.429   6.421  0.0341 -0.1371  0.3546
 1165loPI   C3B17971   0.167   8.559   6.781 -0.0058  0.3762 -0.0554
 1165loPI   C4B17972  -0.190   8.777   6.889 -0.0424  0.2816 -0.0366
 1166loPI    C117973  15.978   7.410   5.430  0.0006 -0.0927 -0.0417
 1166loPI    C217974  15.950   7.116   5.159 -0.2000 -0.0702 -0.0466
 1166loPI    C317975  15.862   7.493   5.056 -0.0798 -0.0297 -0.0032
 1166loPI   PO417976  16.222   7.436   5.491  0.1714  0.1003 -0.0601
 1166loPI   GL117977  16.430   7.368   5.825 -0.3007  0.1800  0.3186
 1166loPI   GL217978  16.105   7.307   5.974 -0.0509  0.0485  0.1119
 1166loPI   C1A17979  16.517   7.115   6.170  0.2446  0.1346  0.0886
 1166loPI   C2A17980  16.559   6.889   6.525  0.2541  0.2343  0.1332
 1166loPI   C3A17981  16.545   6.790   6.967  0.0229  0.2855  0.0559
 1166loPI   C4A17982  16.478   6.597   7.347  0.1576 -0.0713  0.3060
 1166loPI   C5A17983  16.240   6.324   7.766 -0.1696 -0.0663  0.2244
 1166loPI   C6A17984  16.426   6.252   8.172 -0.2000 -0.0826  0.2899
 1166loPI   C1B17985  16.123   7.150   6.451 -0.0121 -0.0129  0.0910
 1166loPI   C2B17986  16.076   7.077   6.874 -0.1309 -0.1066  0.0376
 1166loPI   C3B17987  16.171   7.090   7.375 -0.0774 -0.2432 -0.1533
 1166loPI   C4B17988  16.599   6.997   7.635  0.2023 -0.2573  0.1712
 1167loPI    C117989   1.868   5.476   5.191  0.2042  0.1103 -0.1279
 1167loPI    C217990   1.794   5.087   5.252  0.0449  0.1767  0.1169
 1167loPI    C317991   1.888   5.218   4.886 -0.2055 -0.0458 -0.0303
 1167loPI   PO417992   1.811   5.561   5.435 -0.1784 -0.0932 -0.3742
 1167loPI   GL117993   1.673   5.412   5.803  0.1860 -0.1989 -0.2328
 1167loPI   GL217994   1.343   5.369   5.681  0.0261 -0.1866 -0.2836
 1167loPI   C1A17995   1.733   5.464   6.324  0.0195  0.2461 -0.0937
 1167loPI   C2A17996   1.727   5.446   6.785 -0.2434 -0.2026 -0.1944
 1167loPI   C3A17997   1.920   5.374   7.160 -0.0205 -0.1336  0.2082
 1167loPI   C4A17998   2.191   5.503   7.586 -0.1488  0.0169  0.2343
 1167loPI   C5A17999   2.421   5.485   7.901 -0.2385 -0.0970 -0.0957
 1167loPI   C6A18000   2.613   5.785   8.139 -0.0698 -0.0950 -0.1721
 1167loPI   C1B18001   1.174   5.459   6.124 -0.0210 -0.0640  0.2709
 1167loPI   C2B18002   1.303   5.439   6.552 -0.1788  0.2690 -0.0691
 1167loPI   C3B18003   1.397   5.152   6.930 -0.1582 -0.3477 -0.1984
 1167loPI   C4B18004   1.364   5.180   7.391  0.1360 -0.0526  0.2216
 1168loPI    C118005   9.816  14.825   5.759 -0.0738 -0.0851  0.1689
 1168loPI    C218006   9.610  14.962   5.444 -0.1553 -0.1742  0.1830
 1168loPI    C318007  10.010  14.963   5.438 -0.1566 -0.2882  0.0294
 1168loPI   PO418008   9.602  14.709   5.895  0.0153  0.1420 -0.1199
 1168loPI   GL118009   9.539  14.552   6.289 -0.1027  0.2115 -0.1287
 1168loPI   GL218010   9.558  14.233   6.385 -0.2086  0.0580  0.0763
 1168loPI   C1A18011   9.328  14.548   6.703  0.4992 -0.2788  0.1885
 1168loPI   C2A18012   9.265  14.719   7.093 -0.2188 -0.0264  0.1039
 1168loPI   C3A18013   9.285  14.809   7.547 -0.1773  0.0634  0.2531
 1168loPI   C4A18014   8.952  15.003   7.806 -0.0221  0.1247  0.0180
 1168loPI   C5A18015   8.558  14.949   7.814  0.1636 -0.1774 -0.1285
 1168loPI   C6A18016   8.345  14.744   8.109 -0.1119 -0.2100 -0.2135
 1168loPI   C1B18017   9.405  14.100   6.855  0.2199  0.1999 -0.0059
 1168loPI   C2B18018   9.304  14.220   7.298  0.0248  0.0783 -0.2796
 1168loPI   C3B18019   9.296  14.362   7.731  0.2582  0.0632 -0.2948
 1168loPI   C4B18020   9.332  14.331   8.094  0.1333  0.0436  0.2450
 1169loPI    C118021   1.110   4.372   5.134 -0.0472 -0.0395 -0.1065
 1169loPI    C218022   0.982   4.006   5.233 -0.1436  0.0145 -0.0303
 1169loPI    C318023   1.154   4.068   4.878  0.0310 -0.1404  0.0255
 1169loPI   PO418024   1.291   4.395   5.388 -0.2347  0.1639  0.1214
 1169loPI   GL118025   1.273   4.555   5.854 -0.1810 -0.2535  0.1213
 1169loPI   GL218026   1.189   4.199   5.898 -0.1182  0.0587  0.0392
 1169loPI   C1A18027   1.369   4.403   6.312 -0.1506  0.0713 -0.1077
 1169loPI   C2A18028   1.413   4.293   6.654 -0.1103  0.0818 -0.3136
 1169loPI   C3A18029   1.364   4.175   7.070  0.0070  0.0591 -0.1649
 1169loPI   C4A18030   1.359   3.946   7.343 -0.1617 -0.0510 -0.0693
 1169loPI   C5A18031   1.218   3.721   7.797  0.0322 -0.1337 -0.0334
 1169loPI   C6A18032   1.145   3.464   8.129 -0.2346 -0.0167 -0.0297
 1169loPI   C1B18033   1.099   3.993   6.335  0.4026 -0.3969 -0.1144
 1169loPI   C2B18034   0.921   4.033   6.792  0.0404  0.1682 -0.1576
 1169loPI   C3B18035   0.900   3.940   7.200 -0.1221  0.4631 -0.0605
 1169loPI   C4B18036   0.836   4.013   7.668  0.2068  0.0550  0.3238
 1170loPI    C118037   7.109   0.205   6.010  0.1587 -0.1644 -0.0616
 1170loPI    C218038   7.015   0.411   5.680  0.1226  0.0693  0.0917
 1170loPI    C318039   6.840   0.059   5.753  0.0721  0.0543 -0.0976
 1170loPI   PO418040   7.347   0.325   6.069  0.1160  0.1108 -0.2411
 1170loPI   GL118041   7.408   0.560   6.428  0.0174 -0.1374  0.0319
 1170loPI   GL218042   7.104   0.582   6.439  0.0909 -0.0645  0.0966
 1170loPI   C1A18043   7.432   0.222   6.750 -0.1919  0.2141  0.1670
 1170loPI   C2A18044   7.556  -0.145   6.859 -0.2901 -0.0994  0.3958
 1170loPI   C3A18045   7.405  -0.367   7.226 -0.0435  0.3088  0.1104
 1170loPI   C4A18046   7.400  -0.524   7.722 -0.1143  0.2949  0.0165
 1170loPI   C5A18047   7.511  -0.404   8.107 -0.1893 -0.0928  0.0252
 1170loPI   C6A18048   7.708  -0.432   8.496 -0.0526 -0.1215 -0.0451
 1170loPI   C1B18049   6.878   0.874   6.763 -0.0530  0.1187  0.3506
 1170loPI   C2B18050   6.646   0.692   6.996 -0.0028 -0.2542  0.1318
 1170loPI   C3B18051   6.633   0.669   7.440  0.3355  0.3879 -0.2987
 1170loPI   C4B18052   6.666   0.852   7.878 -0.1320  0.1612 -0.2009
 1171loPI    C118053   0.520  11.830   5.314 -0.1527 -0.0574 -0.0003
 1171loPI    C218054   0.405  11.852   4.931 -0.1076  0.0715 -0.0069
 1171loPI    C318055   0.728  12.053   5.055 -0.0514 -0.0663  0.0726
 1171loPI   PO418056   0.454  11.565   5.386 -0.3218 -0.2381  0.1488
 1171loPI   GL118057   0.616  11.358   5.743 -0.1741 -0.1703  0.3855
 1171loPI   GL218058   0.507  11.665   5.890  0.3284  0.3409  0.2021
 1171loPI   C1A18059   0.903  11.300   6.076 -0.1120  0.2311 -0.2914
 1171loPI   C2A18060   0.835  11.225   6.416  0.0707 -0.2947 -0.3683
 1171loPI   C3A18061   0.896  11.231   6.897  0.2256  0.2173  0.2090
 1171loPI   C4A18062   0.727  11.152   7.340 -0.3809  0.0002 -0.1524
 1171loPI   C5A18063   0.650  11.274   7.805 -0.1482  0.1871  0.1985
 1171loPI   C6A18064   0.623  11.282   8.194 -0.1696 -0.3224 -0.0087
 1171loPI   C1B18065   0.388  11.494   6.286 -0.1010  0.0554 -0.1772
 1171loPI   C2B18066   0.403  11.493   6.645  0.1945 -0.2648  0.2173
 1171loPI   C3B18067   0.371  11.466   7.155  0.0136 -0.0247  0.1352
 1171loPI   C4B18068   0.230  11.376   7.551 -0.0051 -0.2589  0.1303
 1172loPI    C118069   1.423  12.509   5.720 -0.0438  0.0234  0.1415
 1172loPI    C218070   1.639  12.307   5.450  0.2282  0.1689  0.2465
 1172loPI    C318071   1.713  12.261   5.840  0.0683  0.2211  0.2837
 1172loPI   PO418072   1.133  12.481   5.739 -0.3873  0.0160  0.0090
 1172loPI   GL118073   0.923  12.538   6.102  0.0565 -0.0169  0.2516
 1172loPI   GL218074   1.099  12.786   6.271 -0.3337 -0.4256  0.0791
 1172loPI   C1A18075   0.917  12.336   6.475  0.1283 -0.0787  0.2986
 1172loPI   C2A18076   0.845  12.258   6.943 -0.1295  0.0561  0.4153
 1172loPI   C3A18077   0.830  12.220   7.404  0.0517  0.1050 -0.0267
 1172loPI   C4A18078   0.881  12.203   7.873  0.1090 -0.4202 -0.1700
 1172loPI   C5A18079   1.155  12.268   8.154 -0.0343 -0.2432  0.0057
 1172loPI   C6A18080   1.189  12.428   8.563 -0.0794 -0.2552  0.0098
 1172loPI   C1B18081   1.357  12.557   6.661 -0.0532  0.2052 -0.2015
 1172loPI   C2B18082   1.314  12.573   7.116 -0.0339  0.2401  0.3240
 1172loPI   C3B18083   1.290  12.493   7.597  0.0249  0.1262  0.0523
 1172loPI   C4B18084   1.537  12.665   7.922 -0.0204  0.1013  0.2466
 1173loPI    C118085   5.280   8.147   5.232 -0.1670  0.0303  0.0872
 1173loPI    C218086   5.244   8.415   4.938 -0.0383  0.0169  0.0583
 1173loPI    C318087   5.387   8.051   4.859  0.0609  0.0356  0.1497
 1173loPI   PO418088   5.026   8.137   5.346  0.0791  0.0209  0.1178
 1173loPI   GL118089   4.879   8.101   5.763 -0.0418  0.0190  0.3582
 1173loPI   GL218090   5.033   8.357   5.959  0.0679  0.2202  0.1013
 1173loPI   C1A18091   4.565   7.940   6.063 -0.1633 -0.1616 -0.0016
 1173loPI   C2A18092   4.380   7.847   6.557 -0.1344  0.0762  0.1122
 1173loPI   C3A18093   4.414   7.973   6.972  0.0402  0.1412 -0.0288
 1173loPI   C4A18094   4.358   7.996   7.357  0.2040  0.0995  0.1402
 1173loPI   C5A18095   4.165   8.189   7.671  0.2265  0.1926 -0.0986
 1173loPI   C6A18096   4.025   8.308   8.097  0.2116 -0.0398 -0.0625
 1173loPI   C1B18097   5.077   8.369   6.396 -0.1184  0.0101  0.1229
 1173loPI   C2B18098   5.135   8.327   6.772 -0.2268  0.0306 -0.2298
 1173loPI   C3B18099   5.057   8.450   7.212  0.1760 -0.0364  0.0050
 1173loPI   C4B18100   5.129   8.356   7.611 -0.1088  0.0866 -0.1051
 1174loPI    C118101   0.329   2.043   5.036 -0.0401  0.1135 -0.0041
 1174loPI    C218102   0.723   1.989   5.081 -0.0752 -0.2294 -0.0844
 1174loPI    C318103   0.583   2.342   4.956  0.2032 -0.0962 -0.0286
 1174loPI   PO418104   0.205   1.889   5.208 -0.2590 -0.0179 -0.0866
 1174loPI   GL118105   0.323   1.719   5.621  0.2242  0.0792 -0.0052
 1174loPI   GL218106   0.026   1.654   5.594  0.0743 -0.2427  0.1299
 1174loPI   C1A18107   0.336   1.612   6.074 -0.2057  0.2400  0.2484
 1174loPI   C2A18108   0.373   1.553   6.489 -0.0498  0.1876  0.1796
 1174loPI   C3A18109   0.418   1.597   6.846 -0.0296  0.2741  0.3247
 1174loPI   C4A18110   0.462   1.613   7.347 -0.1733 -0.1792 -0.0932
 1174loPI   C5A18111   0.544   1.499   7.746 -0.2560  0.1790  0.2843
 1174loPI   C6A18112   0.451   1.553   8.205  0.1428  0.1843  0.1964
 1174loPI   C1B18113  -0.118   1.810   5.996 -0.0071  0.0029 -0.2993
 1174loPI   C2B18114  -0.082   1.912   6.361  0.0140 -0.1633 -0.0662
 1174loPI   C3B18115  -0.115   1.827   6.835 -0.1154  0.0902 -0.3804
 1174loPI   C4B18116  -0.003   1.777   7.251  0.0250  0.1710 -0.1250
 1175loPI    C118117   2.510   4.224   5.077  0.0291  0.0685 -0.1342
 1175loPI    C218118   2.842   4.266   5.296  0.1011 -0.2459 -0.1789
 1175loPI    C318119   2.834   4.397   4.918  0.1053 -0.0539 -0.1133
 1175loPI   PO418120   2.305   4.295   5.220  0.0486  0.2419 -0.1963
 1175loPI   GL118121   2.281   4.360   5.674 -0.1150  0.1540 -0.0230
 1175loPI   GL218122   2.158   4.188   5.860  0.1722 -0.0672 -0.0819
 1175loPI   C1A18123   2.353   4.601   6.033  0.0171  0.1696  0.0482
 1175loPI   C2A18124   2.369   4.665   6.495 -0.1217 -0.0616  0.0358
 1175loPI   C3A18125   2.310   4.608   6.936  0.4142  0.0322  0.2542
 1175loPI   C4A18126   2.242   4.558   7.347 -0.0013  0.0851  0.1660
 1175loPI   C5A18127   2.450   4.557   7.647  0.0947 -0.0854  0.0461
 1175loPI   C6A18128   2.424   4.597   8.073  0.0679 -0.1012  0.2052
 1175loPI   C1B18129   2.257   4.209   6.284  0.1220  0.0954  0.1317
 1175loPI   C2B18130   2.205   4.159   6.698 -0.4477 -0.2162  0.1028
 1175loPI   C3B18131   2.322   4.123   7.148  0.1325 -0.1278  0.1932
 1175loPI   C4B18132   2.618   4.152   7.518 -0.1520  0.0709 -0.2600
 1176loPI    C118133  12.745  13.083   5.607 -0.0792 -0.0681  0.0498
 1176loPI    C218134  12.930  12.891   5.308  0.0352 -0.0594  0.1143
 1176loPI    C318135  12.593  13.095   5.237  0.0143 -0.1301  0.0088
 1176loPI   PO418136  12.950  13.131   5.767 -0.0121 -0.2104 -0.2736
 1176loPI   GL118137  13.400  13.097   5.960  0.0148  0.2353  0.0004
 1176loPI   GL218138  13.277  13.368   6.300 -0.3668  0.2730  0.1555
 1176loPI   C1A18139  13.727  13.174   6.250 -0.1367 -0.2061 -0.0728
 1176loPI   C2A18140  13.782  13.041   6.733 -0.0081 -0.4566 -0.0795
 1176loPI   C3A18141  13.929  13.166   7.202 -0.1594  0.0159  0.1443
 1176loPI   C4A18142  13.829  13.276   7.584 -0.2719  0.3334 -0.2437
 1176loPI   C5A18143  13.779  12.959   7.920  0.2993  0.0173 -0.0951
 1176loPI   C6A18144  13.531  12.694   8.208 -0.6688 -0.1791  0.2506
 1176loPI   C1B18145  13.408  12.849   6.477 -0.1485 -0.4650  0.1226
 1176loPI   C2B18146  13.072  12.565   6.583  0.1620  0.1062  0.2693
 1176loPI   C3B18147  12.996  12.703   7.043 -0.1757  0.2247 -0.0177
 1176loPI   C4B18148  12.980  12.784   7.403 -0.2885  0.5542 -0.0123
 1177loPI    C118149   1.005   2.785   5.189  0.0254  0.0119  0.1228
 1177loPI    C218150   1.059   2.405   5.077 -0.0219 -0.0337  0.2524
 1177loPI    C318151   1.036   2.693   4.801 -0.2486 -0.1581  0.1380
 1177loPI   PO418152   1.154   2.731   5.454  0.2845 -0.0105  0.0097
 1177loPI   GL118153   0.961   2.601   5.783  0.0223  0.1918 -0.0164
 1177loPI   GL218154   0.718   2.421   5.931  0.0937  0.0771 -0.2830
 1177loPI   C1A18155   0.883   2.884   6.100 -0.0592  0.1707  0.0053
 1177loPI   C2A18156   0.833   2.874   6.571  0.0274  0.0318 -0.0674
 1177loPI   C3A18157   0.819   2.807   6.988 -0.0974  0.2718  0.0878
 1177loPI   C4A18158   0.900   2.838   7.428 -0.0211  0.0899 -0.0990
 1177loPI   C5A18159   0.716   3.026   7.789 -0.0542 -0.0991  0.0000
 1177loPI   C6A18160   0.348   3.002   7.983  0.3559  0.1751  0.0531
 1177loPI   C1B18161   0.767   2.391   6.347  0.1346 -0.1236  0.1689
 1177loPI   C2B18162   0.829   2.322   6.754 -0.0347  0.0354 -0.0219
 1177loPI   C3B18163   0.917   2.349   7.151 -0.2035  0.0659 -0.1712
 1177loPI   C4B18164   0.861   2.376   7.628 -0.0867 -0.1374  0.1477
 1178loPI    C118165  12.777  14.198   5.368 -0.1184 -0.0160 -0.0077
 1178loPI    C218166  12.953  13.876   5.208  0.0894  0.0148  0.1537
 1178loPI    C318167  12.789  14.153   4.970 -0.0161 -0.1669  0.0117
 1178loPI   PO418168  12.657  14.068   5.629  0.0749  0.0082 -0.2722
 1178loPI   GL118169  12.510  13.887   6.003  0.1419  0.2623 -0.0175
 1178loPI   GL218170  12.183  13.856   5.974 -0.0918 -0.0958  0.1317
 1178loPI   C1A18171  12.407  13.677   6.400  0.0862 -0.2497 -0.0364
 1178loPI   C2A18172  12.508  13.425   6.806  0.0124 -0.1270 -0.0705
 1178loPI   C3A18173  12.532  13.543   7.287  0.0108  0.1145  0.0120
 1178loPI   C4A18174  12.553  13.548   7.699 -0.1718 -0.2111 -0.1647
 1178loPI   C5A18175  12.448  13.506   8.076 -0.1222 -0.0935  0.0543
 1178loPI   C6A18176  12.524  13.523   8.471 -0.4187  0.0643  0.1998
 1178loPI   C1B18177  11.938  13.817   6.392 -0.0283 -0.1222  0.0909
 1178loPI   C2B18178  11.953  13.772   6.801 -0.0760  0.0099 -0.0130
 1178loPI   C3B18179  12.081  13.822   7.147 -0.0038 -0.0986  0.2417
 1178loPI   C4B18180  12.094  13.729   7.532 -0.0615 -0.0005 -0.2127
 1179loPI    C118181   3.179  16.140   5.376  0.1868  0.1073  0.1020
 1179loPI    C218182   2.937  16.441   5.271  0.2360  0.1680  0.1616
 1179loPI    C318183   3.186  16.281   5.002 -0.0275 -0.0440  0.0384
 1179loPI   PO418184   3.064  16.130   5.671 -0.3019 -0.0412  0.1105
 1179loPI   GL118185   3.003  16.131   6.026 -0.1565  0.1933 -0.3413
 1179loPI   GL218186   3.345  16.001   6.077  0.1095 -0.1927 -0.1118
 1179loPI   C1A18187   2.729  16.273   6.235  0.1367  0.0457 -0.0084
 1179loPI   C2A18188   2.746  16.141   6.637  0.2173 -0.2559 -0.2871
 1179loPI   C3A18189   2.784  15.900   7.039 -0.2368 -0.0429  0.2899
 1179loPI   C4A18190   2.780  15.961   7.505  0.0187 -0.1582  0.2309
 1179loPI   C5A18191   2.804  16.108   7.921  0.1009  0.1504  0.3995
 1179loPI   C6A18192   2.964  16.555   8.023 -0.0300  0.0518 -0.0812
 1179loPI   C1B18193   3.176  15.950   6.490 -0.4341 -0.0721  0.2412
 1179loPI   C2B18194   3.238  15.977   6.884 -0.1727 -0.0856 -0.0624
 1179loPI   C3B18195   3.262  15.873   7.331 -0.0038  0.2203  0.4963
 1179loPI   C4B18196   3.237  15.968   7.860 -0.0866  0.0138  0.2576
 1180loPI    C118197  13.063   4.476   5.279 -0.0995 -0.0001  0.1441
 1180loPI    C218198  13.300   4.563   4.968  0.0498 -0.2685  0.1802
 1180loPI    C318199  12.914   4.665   4.960  0.0861 -0.1434 -0.0302
 1180loPI   PO418200  13.174   4.221   5.311  0.1940  0.0503 -0.4055
 1180loPI   GL118201  12.987   4.066   5.764  0.0033  0.0402 -0.1200
 1180loPI   GL218202  13.216   4.245   5.841  0.2154 -0.2130  0.3283
 1180loPI   C1A18203  13.023   4.296   6.290  0.3381  0.0978 -0.0990
 1180loPI   C2A18204  13.089   4.651   6.587  0.1791  0.1905 -0.1133
 1180loPI   C3A18205  13.372   4.855   6.869  0.0892  0.0984 -0.0071
 1180loPI   C4A18206  13.580   4.896   7.355  0.0463 -0.0849  0.0704
 1180loPI   C5A18207  13.741   5.081   7.789 -0.2163  0.0754  0.0097
 1180loPI   C6A18208  13.653   5.403   8.038  0.1015 -0.0208  0.3281
 1180loPI   C1B18209  13.363   3.971   6.211  0.1420  0.0177  0.0832
 1180loPI   C2B18210  13.521   3.666   6.527 -0.3133 -0.2681 -0.2274
 1180loPI   C3B18211  13.547   3.713   6.936 -0.1953 -0.0297 -0.2496
 1180loPI   C4B18212  13.469   3.784   7.421 -0.3962 -0.2027  0.3441
 1181loPI    C118213   0.430  15.475   5.760 -0.1097  0.0233  0.1188
 1181loPI    C218214   0.201  15.631   5.472  0.0324  0.2561  0.1295
 1181loPI    C318215   0.235  15.234   5.507 -0.1743  0.2230 -0.0239
 1181loPI   PO418216   0.688  15.617   5.790  0.1384 -0.1517  0.2978
 1181loPI   GL118217   0.871  15.503   6.158  0.0857  0.1512 -0.1739
 1181loPI   GL218218   0.509  15.506   6.285 -0.0926 -0.0010  0.2112
 1181loPI   C1A18219   0.831  15.262   6.538  0.0198 -0.1642  0.1457
 1181loPI   C2A18220   1.167  15.230   6.942  0.2792 -0.2642  0.0059
 1181loPI   C3A18221   1.053  15.332   7.302 -0.1975  0.2864  0.1314
 1181loPI   C4A18222   0.979  15.377   7.872  0.1276 -0.2293 -0.0699
 1181loPI   C5A18223   0.786  15.463   8.239  0.2804 -0.0592  0.0033
 1181loPI   C6A18224   0.475  15.685   8.360 -0.0342  0.1181  0.0614
 1181loPI   C1B18225   0.768  15.765   6.563  0.1325  0.2611  0.0990
 1181loPI   C2B18226   0.848  15.766   7.075  0.1481 -0.1439 -0.0236
 1181loPI   C3B18227   0.724  15.983   7.279  0.1291 -0.0804 -0.4209
 1181loPI   C4B18228   0.649  15.861   7.729 -0.1108  0.0816 -0.0589
 1182loPI    C118229   8.726  10.919   6.067  0.0424  0.1675 -0.0084
 1182loPI    C218230   8.825  10.618   6.311 -0.0205  0.1417 -0.0145
 1182loPI    C318231   8.931  10.606   5.926 -0.1081  0.0813 -0.0367
 1182loPI   PO418232   8.770  11.134   6.139  0.0955  0.2071 -0.2425
 1182loPI   GL118233   8.830  11.332   6.522 -0.0228 -0.0093  0.1803
 1182loPI   GL218234   8.667  11.531   6.741 -0.0995  0.0909 -0.3238
 1182loPI   C1A18235   8.661  11.013   6.772  0.3258  0.3024 -0.1835
 1182loPI   C2A18236   8.524  10.968   7.267  0.1634 -0.0251 -0.1221
 1182loPI   C3A18237   8.176  11.095   7.562  0.2697  0.0606  0.1253
 1182loPI   C4A18238   7.957  11.312   7.804 -0.0116  0.0236 -0.1166
 1182loPI   C5A18239   7.778  11.631   7.933  0.0375 -0.4041  0.0244
 1182loPI   C6A18240   7.828  12.021   7.688  0.0352  0.2738 -0.0880
 1182loPI   C1B18241   8.533  11.456   7.197  0.0557 -0.0799  0.0645
 1182loPI   C2B18242   8.656  11.456   7.657 -0.0770 -0.0125 -0.4294
 1182loPI   C3B18243   8.928  11.474   7.976  0.0207 -0.0976  0.1567
 1182loPI   C4B18244   9.195  11.340   8.277  0.1225 -0.2373 -0.1003
 1183loPI    C118245   1.155  17.192   5.648  0.0936  0.0494  0.1681
 1183loPI    C218246   0.858  17.443   5.554 -0.0767 -0.1801  0.0832
 1183loPI    C318247   1.154  17.376   5.293  0.1194  0.1440  0.2167
 1183loPI   PO418248   1.133  16.944   5.674  0.0440  0.2678 -0.0816
 1183loPI   GL118249   0.982  16.847   6.078 -0.0551 -0.0941  0.1717
 1183loPI   GL218250   1.023  17.163   6.134 -0.0528 -0.1924  0.2763
 1183loPI   C1A18251   0.917  16.578   6.433  0.2452  0.0884 -0.1631
 1183loPI   C2A18252   0.927  16.703   6.794  0.0773 -0.0345  0.1859
 1183loPI   C3A18253   1.016  16.875   7.186  0.1026  0.1436  0.2235
 1183loPI   C4A18254   0.866  17.083   7.532 -0.1494 -0.3271  0.1465
 1183loPI   C5A18255   0.861  17.209   7.935  0.0045  0.2405  0.2768
 1183loPI   C6A18256   1.058  17.148   8.346 -0.1392 -0.0174  0.0186
 1183loPI   C1B18257   1.145  17.077   6.523 -0.0056 -0.1889  0.1438
 1183loPI   C2B18258   1.324  17.208   6.877 -0.2823  0.0302 -0.1787
 1183loPI   C3B18259   1.354  17.197   7.305 -0.0738  0.1614  0.3347
 1183loPI   C4B18260   1.336  17.307   7.722 -0.2727  0.2533 -0.3725
 1184loPI    C118261   4.314  13.642   5.360 -0.0669 -0.3350 -0.3514
 1184loPI    C218262   4.641  13.648   5.130  0.1626 -0.0970 -0.0287
 1184loPI    C318263   4.329  13.883   5.041  0.2879  0.0657 -0.0437
 1184loPI   PO418264   4.408  13.675   5.583  0.3204  0.0144  0.1454
 1184loPI   GL118265   4.397  13.552   5.946 -0.1313  0.2419 -0.0649
 1184loPI   GL218266   4.287  13.809   6.048 -0.2442 -0.2334 -0.3244
 1184loPI   C1A18267   4.695  13.408   6.202  0.1456  0.1396  0.0675
 1184loPI   C2A18268   4.950  13.399   6.506  0.0502  0.0244  0.2441
 1184loPI   C3A18269   4.826  13.351   6.925  0.0740  0.0000  0.3438
 1184loPI   C4A18270   4.877  13.234   7.307  0.0817 -0.1385 -0.0220
 1184loPI   C5A18271   4.848  12.856   7.646  0.0122 -0.0191  0.2143
 1184loPI   C6A18272   4.723  12.443   7.580 -0.2559  0.4296 -0.3075
 1184loPI   C1B18273   4.237  13.609   6.456  0.1477  0.1566  0.3517
 1184loPI   C2B18274   4.339  13.542   6.966 -0.1648  0.2464 -0.0200
 1184loPI   C3B18275   4.364  13.303   7.374 -0.1038 -0.0871  0.0319
 1184loPI   C4B18276   4.522  13.281   7.796  0.1686  0.0338 -0.2094
 1185loPI    C118277  16.065   1.482   5.089  0.1533 -0.1211 -0.0337
 1185loPI    C218278  16.451   1.552   5.014  0.1578 -0.1269 -0.0157
 1185loPI    C318279  16.189   1.533   4.713  0.1546 -0.0213 -0.0199
 1185loPI   PO418280  16.170   1.428   5.424  0.0998  0.4345 -0.0778
 1185loPI   GL118281  15.849   1.338   5.764  0.1238  0.0236  0.0920
 1185loPI   GL218282  15.814   1.527   5.998 -0.1746 -0.2044  0.1611
 1185loPI   C1A18283  15.782   1.050   6.229  0.2605  0.1474 -0.3204
 1185loPI   C2A18284  15.837   0.980   6.690  0.0207 -0.2083  0.1667
 1185loPI   C3A18285  15.856   1.037   7.134  0.1627  0.0997 -0.1911
 1185loPI   C4A18286  15.749   1.003   7.498  0.0394  0.0219  0.2496
 1185loPI   C5A18287  15.668   1.050   7.940 -0.1088  0.1396 -0.0529
 1185loPI   C6A18288  15.930   1.198   8.240  0.1129 -0.0842  0.2069
 1185loPI   C1B18289  15.827   1.553   6.448  0.1128  0.0685  0.2847
 1185loPI   C2B18290  15.800   1.500   6.867  0.0463 -0.1310 -0.2167
 1185loPI   C3B18291  15.807   1.526   7.299  0.0589 -0.3440 -0.0974
 1185loPI   C4B18292  15.802   1.526   7.664 -0.1080  0.2779 -0.1021
 1186loPI    C118293   2.885  14.505   5.205  0.0067 -0.0536 -0.1559
 1186loPI    C218294   2.801  14.277   4.887  0.0098 -0.1190 -0.1101
 1186loPI    C318295   2.775  14.124   5.255 -0.1657  0.0068 -0.0687
 1186loPI   PO418296   2.735  14.753   5.239  0.1174 -0.0875 -0.1417
 1186loPI   GL118297   2.388  14.836   5.653 -0.2255  0.0480  0.1040
 1186loPI   GL218298   2.256  15.047   5.991  0.0216  0.1805  0.0456
 1186loPI   C1A18299   2.812  14.867   5.896  0.1811 -0.0852 -0.3155
 1186loPI   C2A18300   2.899  14.760   6.233 -0.0227 -0.2061 -0.3941
 1186loPI   C3A18301   2.886  14.662   6.714  0.1254  0.0922 -0.0979
 1186loPI   C4A18302   2.806  14.531   7.123  0.1134 -0.1116  0.0592
 1186loPI   C5A18303   2.705  14.289   7.495  0.1201 -0.0658 -0.2186
 1186loPI   C6A18304   2.384  14.235   7.843 -0.1130  0.1007 -0.2146
 1186loPI   C1B18305   2.404  14.780   6.406 -0.0034 -0.3311 -0.4177
 1186loPI   C2B18306   2.398  14.724   6.904  0.2166  0.0539 -0.0959
 1186loPI   C3B18307   2.316  14.575   7.308 -0.3381  0.0040 -0.2290
 1186loPI   C4B18308   2.284  14.759   7.643 -0.0646 -0.1340 -0.0558
 1187loPI    C118309  17.602   2.128   5.192 -0.2922 -0.1402 -0.1014
 1187loPI    C218310  17.546   2.143   4.796  0.0990 -0.1784 -0.1628
 1187loPI    C318311  17.896   2.255   4.952 -0.0065 -0.2909  0.1629
 1187loPI   PO418312  17.478   2.271   5.344 -0.2245  0.0203  0.0104
 1187loPI   GL118313  17.315   2.165   5.728  0.2210 -0.1094  0.1693
 1187loPI   GL218314  17.246   2.440   5.833  0.1502 -0.0104 -0.0990
 1187loPI   C1A18315  17.471   2.008   6.070 -0.0210 -0.3037 -0.3336
 1187loPI   C2A18316  17.529   2.079   6.504 -0.4670  0.4248  0.4229
 1187loPI   C3A18317  17.545   2.112   6.916 -0.0055 -0.0385  0.0776
 1187loPI   C4A18318  17.566   2.125   7.359 -0.0568 -0.1300  0.4211
 1187loPI   C5A18319  17.610   2.150   7.845 -0.1187  0.1986  0.0005
 1187loPI   C6A18320  17.697   2.112   8.186 -0.0388 -0.0683  0.2346
 1187loPI   C1B18321  17.464   2.497   6.283  0.1172 -0.4356  0.1838
 1187loPI   C2B18322  17.585   2.668   6.673  0.0005 -0.1795 -0.2015
 1187loPI   C3B18323  17.516   2.577   7.099  0.0782 -0.3347  0.0112
 1187loPI   C4B18324  17.642   2.652   7.513 -0.2386  0.0111  0.0920
 1188loPI    C118325   8.867  15.071   5.518 -0.1731 -0.0743 -0.1567
 1188loPI    C218326   8.891  14.674   5.482 -0.0559 -0.0840  0.0114
 1188loPI    C318327   9.122  14.909   5.256  0.0426 -0.1184  0.0758
 1188loPI   PO418328   8.913  15.022   5.824  0.0466  0.0999  0.0525
 1188loPI   GL118329   8.998  15.225   6.216  0.2266 -0.0442  0.1344
 1188loPI   GL218330   9.206  14.926   6.303  0.1443  0.0670 -0.0761
 1188loPI   C1A18331   8.824  15.300   6.555  0.1938 -0.0599 -0.2357
 1188loPI   C2A18332   9.034  15.121   6.796 -0.1072 -0.1070 -0.0502
 1188loPI   C3A18333   9.247  15.230   7.191 -0.0833  0.2252  0.0914
 1188loPI   C4A18334   9.306  15.356   7.603 -0.1688 -0.0271  0.3261
 1188loPI   C5A18335   9.241  15.427   8.111 -0.2898  0.0749 -0.1746
 1188loPI   C6A18336   9.199  15.113   8.403  0.1506 -0.2049 -0.0310
 1188loPI   C1B18337   9.529  15.123   6.529  0.0942 -0.1153 -0.1550
 1188loPI   C2B18338   9.726  14.989   6.978  0.0138 -0.1595  0.0937
 1188loPI   C3B18339   9.750  14.975   7.501  0.0318  0.0263  0.0693
 1188loPI   C4B18340   9.729  15.209   7.825 -0.1311 -0.0413  0.0535
 1189loPI    C118341  15.002   3.843   5.140 -0.0678 -0.3900  0.2846
 1189loPI    C218342  15.065   3.612   4.820  0.0474  0.0303 -0.0050
 1189loPI    C318343  14.732   3.832   4.845  0.0513  0.0191  0.1536
 1189loPI   PO418344  15.044   3.745   5.351 -0.0894 -0.2868  0.0479
 1189loPI   GL118345  14.938   3.640   5.683  0.4216  0.0583 -0.0374
 1189loPI   GL218346  15.345   3.648   5.687  0.1425  0.0263 -0.2140
 1189loPI   C1A18347  14.793   3.639   6.094  0.1488  0.1852 -0.1265
 1189loPI   C2A18348  14.846   3.606   6.542  0.2305 -0.0878 -0.0071
 1189loPI   C3A18349  14.913   3.636   6.882 -0.0203 -0.1060 -0.0341
 1189loPI   C4A18350  14.829   3.641   7.300  0.3775  0.1662 -0.0683
 1189loPI   C5A18351  14.871   3.945   7.632  0.0746 -0.1224 -0.0440
 1189loPI   C6A18352  14.915   4.096   8.011 -0.0101  0.0949 -0.1658
 1189loPI   C1B18353  15.324   3.339   5.973  0.2326 -0.2772  0.2184
 1189loPI   C2B18354  15.281   3.381   6.366  0.2104 -0.1271  0.0193
 1189loPI   C3B18355  15.312   3.346   6.803  0.0325  0.0628  0.1049
 1189loPI   C4B18356  15.300   3.306   7.278  0.1420 -0.2792  0.0366
 1190loPI    C118357   0.851   3.242   5.058 -0.2981  0.0119 -0.0721
 1190loPI    C218358   1.150   3.178   4.800 -0.2520 -0.2260  0.0381
 1190loPI    C318359   0.771   3.128   4.684 -0.2320 -0.3156  0.0104
 1190loPI   PO418360   1.008   3.506   5.199  0.1279  0.0872 -0.4333
 1190loPI   GL118361   0.928   3.446   5.689 -0.0084 -0.2763  0.0842
 1190loPI   GL218362   0.901   3.190   5.569 -0.0270  0.1111  0.1293
 1190loPI   C1A18363   0.931   3.378   6.218  0.2571  0.1339  0.1382
 1190loPI   C2A18364   0.884   3.309   6.725 -0.1985 -0.3763 -0.0583
 1190loPI   C3A18365   0.845   3.319   7.123  0.1159 -0.0797  0.1121
 1190loPI   C4A18366   0.757   3.497   7.543 -0.1049 -0.2162 -0.4449
 1190loPI   C5A18367   0.674   3.527   7.898  0.1784 -0.1472 -0.1697
 1190loPI   C6A18368   0.605   3.465   8.266  0.1478  0.1896  0.1762
 1190loPI   C1B18369   1.312   3.205   5.989  0.1271 -0.0370 -0.2872
 1190loPI   C2B18370   1.336   3.107   6.433 -0.3653 -0.0348  0.0180
 1190loPI   C3B18371   1.341   3.116   6.918 -0.0842 -0.1721 -0.0937
 1190loPI   C4B18372   1.358   2.911   7.267  0.0018  0.0947  0.1994
 1191loPI    C118373  16.133   2.028   5.124 -0.1916 -0.1386  0.0590
 1191loPI    C218374  16.331   1.972   4.781 -0.0471 -0.3779  0.1794
 1191loPI    C318375  15.931   1.973   4.783 -0.0524  0.0402 -0.0543
 1191loPI   PO418376  16.210   1.930   5.251 -0.3274 -0.1346  0.0225
 1191loPI   GL118377  16.010   1.858   5.617  0.1418  0.0675  0.2728
 1191loPI   GL218378  16.302   1.693   5.804  0.0926  0.1145 -0.0109
 1191loPI   C1A18379  15.694   2.024   5.847 -0.0205  0.0565  0.3938
 1191loPI   C2A18380  15.782   2.012   6.307  0.1956 -0.0201 -0.0479
 1191loPI   C3A18381  15.795   2.038   6.753  0.1709  0.1271  0.1992
 1191loPI   C4A18382  15.845   2.058   7.225 -0.4032  0.0627  0.0995
 1191loPI   C5A18383  15.734   2.130   7.659  0.1047  0.0494 -0.0130
 1191loPI   C6A18384  15.712   1.962   8.040  0.0628  0.2110 -0.0379
 1191loPI   C1B18385  16.265   1.787   6.180  0.1431  0.1450 -0.1955
 1191loPI   C2B18386  16.212   1.794   6.670 -0.3426 -0.1703  0.1099
 1191loPI   C3B18387  16.236   1.731   7.086  0.3039  0.1751 -0.1292
 1191loPI   C4B18388  16.278   1.794   7.524 -0.1306 -0.0916  0.3307
 1192loPI    C118389   6.193  15.758   5.474  0.0462 -0.1053 -0.0627
 1192loPI    C218390   6.056  15.540   5.168 -0.0790 -0.1091 -0.0042
 1192loPI    C318391   6.440  15.514   5.275 -0.0163 -0.0489 -0.2107
 1192loPI   PO418392   5.990  15.792   5.693 -0.0229  0.0609  0.1139
 1192loPI   GL118393   5.794  15.827   6.135  0.0091  0.0767  0.0886
 1192loPI   GL218394   5.616  15.516   6.009  0.0355  0.1737 -0.0155
 1192loPI   C1A18395   5.933  15.884   6.577  0.0933  0.1869  0.0874
 1192loPI   C2A18396   5.901  15.927   7.128 -0.3448  0.2249 -0.2881
 1192loPI   C3A18397   5.839  15.948   7.627 -0.0205 -0.0247  0.1741
 1192loPI   C4A18398   5.736  15.804   8.002 -0.1790 -0.0120  0.3812
 1192loPI   C5A18399   5.682  15.722   8.379  0.1755 -0.4100  0.2951
 1192loPI   C6A18400   5.554  15.882   8.821  0.2418  0.0865  0.1134
 1192loPI   C1B18401   5.634  15.451   6.492  0.1278  0.0102  0.2895
 1192loPI   C2B18402   5.619  15.478   6.878  0.2107 -0.0668  0.1502
 1192loPI   C3B18403   5.519  15.551   7.316 -0.1156 -0.0289  0.1465
 1192loPI   C4B18404   5.280  15.524   7.750  0.3149 -0.1040 -0.2812
 1193loPI    C118405   8.525   2.113   5.302  0.1740 -0.1010 -0.3440
 1193loPI    C218406   8.132   2.042   5.321  0.1676 -0.0252 -0.1671
 1193loPI    C318407   8.388   1.738   5.272  0.1075 -0.1133  0.0552
 1193loPI   PO418408   8.560   2.240   5.569  0.0869  0.1902 -0.0755
 1193loPI   GL118409   8.570   2.285   5.968  0.0195 -0.1542 -0.0052
 1193loPI   GL218410   8.714   2.041   6.021  0.0706 -0.2439  0.1839
 1193loPI   C1A18411   8.653   2.516   6.328 -0.0833 -0.0846  0.2347
 1193loPI   C2A18412   8.637   2.491   6.665 -0.1857  0.0388  0.3537
 1193loPI   C3A18413   8.548   2.596   7.077 -0.0846  0.0966 -0.0104
 1193loPI   C4A18414   8.309   2.750   7.471  0.2845 -0.2779 -0.2181
 1193loPI   C5A18415   8.156   2.687   8.000  0.2680  0.0227 -0.0849
 1193loPI   C6A18416   8.385   2.388   8.396 -0.1573 -0.1265  0.3110
 1193loPI   C1B18417   8.888   2.024   6.421 -0.1376 -0.1450  0.2893
 1193loPI   C2B18418   8.660   2.072   6.939  0.1625 -0.0398  0.1321
 1193loPI   C3B18419   8.606   2.175   7.412 -0.0899  0.2432  0.1399
 1193loPI   C4B18420   8.671   2.135   7.889  0.0189  0.3623  0.3549
 1194loPI    C118421  16.739   8.424   5.308 -0.0344 -0.0616  0.0546
 1194loPI    C218422  17.119   8.331   5.224 -0.0598 -0.2273  0.1216
 1194loPI    C318423  16.850   8.354   4.930  0.0137 -0.0525  0.0668
 1194loPI   PO418424  16.704   8.270   5.455  0.1430 -0.1052 -0.1863
 1194loPI   GL118425  16.585   8.295   5.881  0.0472 -0.0959 -0.0219
 1194loPI   GL218426  16.810   8.051   5.966  0.2960 -0.0523 -0.0420
 1194loPI   C1A18427  16.239   8.291   6.192  0.1988  0.0606  0.0802
 1194loPI   C2A18428  15.992   8.122   6.516  0.1407  0.1780  0.1069
 1194loPI   C3A18429  16.047   8.128   6.997 -0.1240 -0.0190  0.3050
 1194loPI   C4A18430  16.003   8.088   7.389 -0.2857  0.2041  0.2551
 1194loPI   C5A18431  15.869   8.015   7.751  0.0402  0.0354  0.2324
 1194loPI   C6A18432  15.570   7.750   7.908  0.0479 -0.0558 -0.2807
 1194loPI   C1B18433  16.737   8.367   6.363  0.0300 -0.1534 -0.2242
 1194loPI   C2B18434  16.435   8.368   6.671  0.0927  0.3382  0.1735
 1194loPI   C3B18435  16.079   8.670   6.784 -0.1784 -0.1698 -0.0215
 1194loPI   C4B18436  16.006   8.615   7.137 -0.0212 -0.0976 -0.2063
 1195loPI    C118437   5.065  17.366   5.304 -0.2358  0.1631 -0.2414
 1195loPI    C218438   4.923  16.992   5.297  0.2599 -0.0446  0.1542
 1195loPI    C318439   5.145  17.128   4.992  0.0945 -0.0763  0.0181
 1195loPI   PO418440   5.172  17.383   5.596 -0.3298 -0.0987  0.2470
 1195loPI   GL118441   5.140  17.416   5.937 -0.0952  0.1055 -0.0159
 1195loPI   GL218442   4.972  17.611   6.172  0.3814 -0.0039  0.0802
 1195loPI   C1A18443   5.387  17.416   6.338 -0.2030 -0.1846 -0.1209
 1195loPI   C2A18444   5.406  17.314   6.822 -0.1197 -0.3074 -0.1994
 1195loPI   C3A18445   5.386  17.296   7.216 -0.0545  0.2749 -0.0969
 1195loPI   C4A18446   5.301  17.369   7.591 -0.2588 -0.2086 -0.1261
 1195loPI   C5A18447   5.368  17.363   8.017 -0.1041 -0.3809  0.2602
 1195loPI   C6A18448   5.446  17.049   8.234  0.1162 -0.0823 -0.0467
 1195loPI   C1B18449   5.207  17.847   6.490 -0.2534 -0.0211  0.1083
 1195loPI   C2B18450   5.151  17.753   6.918 -0.0567  0.0501  0.0133
 1195loPI   C3B18451   5.089  17.813   7.315  0.0538 -0.2368  0.1974
 1195loPI   C4B18452   5.117  17.833   7.807  0.0993 -0.1243  0.0968
 1196loPI    C118453  10.900  15.173   5.589  0.0932 -0.0603 -0.1392
 1196loPI    C218454  11.119  14.839   5.599  0.1565 -0.0212 -0.2039
 1196loPI    C318455  10.941  14.951   5.258  0.0950 -0.0144 -0.1699
 1196loPI   PO418456  10.754  15.210   5.827 -0.2402 -0.0565  0.1418
 1196loPI   GL118457  10.759  15.462   6.181  0.0352 -0.1262 -0.2777
 1196loPI   GL218458  10.714  15.778   6.221  0.0946  0.1680 -0.1181
 1196loPI   C1A18459  10.463  15.493   6.521 -0.1496 -0.0967 -0.2370
 1196loPI   C2A18460  10.563  15.412   6.953 -0.3731 -0.1387  0.1017
 1196loPI   C3A18461  10.653  15.510   7.451  0.1414  0.1559  0.0243
 1196loPI   C4A18462  10.684  15.561   7.893  0.0272 -0.0055  0.3704
 1196loPI   C5A18463  10.718  15.501   8.370  0.3223  0.4430 -0.0145
 1196loPI   C6A18464  10.879  15.315   8.728 -0.1143  0.1362 -0.2150
 1196loPI   C1B18465  10.647  15.981   6.602  0.0261 -0.1196 -0.1982
 1196loPI   C2B18466  10.634  15.949   7.060 -0.0627  0.0490 -0.1866
 1196loPI   C3B18467  10.747  16.016   7.436 -0.2039  0.1654 -0.2803
 1196loPI   C4B18468  10.802  16.130   7.889  0.0996 -0.2232 -0.3202
 1197loPI    C118469  16.315  16.551   5.453  0.0119 -0.2088 -0.0929
 1197loPI    C218470  16.663  16.514   5.260  0.0627  0.0071 -0.0455
 1197loPI    C318471  16.378  16.752   5.113 -0.0403 -0.1172 -0.0488
 1197loPI   PO418472  16.313  16.335   5.542 -0.0375  0.1493 -0.0065
 1197loPI   GL118473  16.140  16.280   5.980 -0.1909  0.0351 -0.1898
 1197loPI   GL218474  16.339  16.546   6.052 -0.1218  0.1334  0.0131
 1197loPI   C1A18475  15.895  16.252   6.298 -0.1167 -0.2549  0.1826
 1197loPI   C2A18476  15.878  16.303   6.709  0.0882 -0.0074  0.0432
 1197loPI   C3A18477  15.901  16.386   7.190 -0.2729  0.0416 -0.3098
 1197loPI   C4A18478  15.833  16.118   7.594  0.0325  0.0669  0.2484
 1197loPI   C5A18479  15.820  16.006   7.999 -0.0025 -0.2226  0.0616
 1197loPI   C6A18480  15.561  16.007   8.347  0.0232  0.1389  0.0467
 1197loPI   C1B18481  16.345  16.553   6.461 -0.3013  0.0677 -0.0787
 1197loPI   C2B18482  16.243  16.667   6.905 -0.0101  0.1159 -0.0164
 1197loPI   C3B18483  16.353  16.670   7.211 -0.2846  0.2581  0.2699
 1197loPI   C4B18484  16.122  16.627   7.586  0.1690 -0.1663 -0.2252
 1198loPI    C118485   7.086   6.835   5.417  0.1714 -0.2132 -0.2310
 1198loPI    C218486   6.703   6.773   5.319  0.0959 -0.0867 -0.0210
 1198loPI    C318487   6.982   6.781   5.034 -0.0261 -0.3965 -0.1543
 1198loPI   PO418488   7.063   6.718   5.650 -0.1025 -0.0533  0.1284
 1198loPI   GL118489   6.983   6.634   6.100  0.1403 -0.1944  0.2218
 1198loPI   GL218490   6.954   6.966   6.116  0.0728 -0.2107  0.1206
 1198loPI   C1A18491   6.677   6.386   6.385  0.2066 -0.3045 -0.2669
 1198loPI   C2A18492   6.490   6.024   6.443  0.1934  0.2234 -0.1104
 1198loPI   C3A18493   6.255   5.750   6.615 -0.0978 -0.0834 -0.0236
 1198loPI   C4A18494   5.856   5.698   6.693  0.1262 -0.2245  0.0505
 1198loPI   C5A18495   5.752   5.532   7.135 -0.2217 -0.0840 -0.0686
 1198loPI   C6A18496   5.933   5.545   7.522 -0.2812 -0.1104 -0.1338
 1198loPI   C1B18497   6.854   6.806   6.523 -0.0143  0.2539 -0.1523
 1198loPI   C2B18498   6.701   6.446   6.849 -0.3279 -0.1059  0.1229
 1198loPI   C3B18499   6.522   6.054   6.979 -0.3258 -0.0565 -0.1475
 1198loPI   C4B18500   6.312   5.603   7.222  0.2139 -0.0235  0.2024
 1199loPI    C118501  10.790  11.439   5.502  0.3105  0.0333 -0.0936
 1199loPI    C218502  10.393  11.478   5.480  0.2893  0.1672  0.4051
 1199loPI    C318503  10.605  11.402   5.150 -0.1577 -0.0028  0.1482
 1199loPI   PO418504  10.895  11.724   5.690  0.1671  0.2217 -0.1884
 1199loPI   GL118505  10.992  12.011   6.093 -0.1349 -0.1258  0.0008
 1199loPI   GL218506  10.772  11.785   6.207 -0.1962  0.0057 -0.1069
 1199loPI   C1A18507  11.127  12.145   6.411  0.1062 -0.0703  0.2044
 1199loPI   C2A18508  11.237  12.145   6.874 -0.1455  0.1046 -0.1981
 1199loPI   C3A18509  11.214  12.290   7.241 -0.0895  0.2085  0.0873
 1199loPI   C4A18510  11.236  12.033   7.698 -0.0738  0.0707  0.1449
 1199loPI   C5A18511  11.319  12.265   8.118 -0.1365 -0.0290 -0.0525
 1199loPI   C6A18512  11.208  12.572   8.325  0.0105 -0.3949 -0.0908
 1199loPI   C1B18513  10.796  11.809   6.690  0.1829  0.0293  0.0552
 1199loPI   C2B18514  10.641  11.668   7.031 -0.1941  0.0281 -0.2544
 1199loPI   C3B18515  10.513  11.321   7.256 -0.0532 -0.0684  0.2244
 1199loPI   C4B18516  10.456  10.900   7.248 -0.1698  0.0501  0.0104
 1200loPI    C118517  17.744   0.412   5.493 -0.0967  0.2691  0.0476
 1200loPI    C218518  17.995   0.396   5.182  0.0538 -0.1138  0.1819
 1200loPI    C318519  17.674   0.157   5.193 -0.0212 -0.0105  0.2626
 1200loPI   PO418520  17.977   0.388   5.677  0.0994  0.1420  0.1836
 1200loPI   GL118521  18.048   0.358   6.085  0.1513 -0.2446  0.0340
 1200loPI   GL218522  18.067   0.689   6.075  0.0421 -0.1303  0.1443
 1200loPI   C1A18523  18.116   0.371   6.520  0.2991  0.0298 -0.2416
 1200loPI   C2A18524  17.954   0.379   6.956  0.1768  0.2967 -0.1488
 1200loPI   C3A18525  18.052   0.328   7.404  0.0438 -0.2680 -0.0534
 1200loPI   C4A18526  17.979   0.300   7.893 -0.1750 -0.1043 -0.1372
 1200loPI   C5A18527  18.270   0.227   8.248  0.3248 -0.1761  0.2676
 1200loPI   C6A18528  18.585   0.154   8.500  0.2451  0.3193 -0.1219
 1200loPI   C1B18529  18.024   0.886   6.438  0.0828  0.1367 -0.2961
 1200loPI   C2B18530  18.058   0.869   6.889  0.0362  0.0602 -0.1720
 1200loPI   C3B18531  17.964   0.857   7.288 -0.2252 -0.1711  0.0832
 1200loPI   C4B18532  18.151   0.741   7.660  0.0328 -0.1393 -0.0746
 1201loPI    C118533   1.305   7.804   4.798 -0.0044 -0.0690  0.1249
 1201loPI    C218534   1.611   7.940   5.017 -0.2591  0.0738  0.3979
 1201loPI    C318535   1.473   8.156   4.710  0.2324 -0.2211 -0.0486
 1201loPI   PO418536   1.106   7.701   4.992 -0.2943 -0.0512  0.0930
 1201loPI   GL118537   1.076   7.792   5.356 -0.1856  0.1386 -0.0033
 1201loPI   GL218538   1.269   7.866   5.550 -0.1137  0.2500 -0.0942
 1201loPI   C1A18539   0.896   7.621   5.699 -0.0027 -0.1007 -0.0380
 1201loPI   C2A18540   0.808   7.558   6.125 -0.0544  0.1151  0.0136
 1201loPI   C3A18541   0.736   7.574   6.603 -0.2338  0.0536  0.0186
 1201loPI   C4A18542   0.803   7.521   7.085  0.1041  0.2459  0.0438
 1201loPI   C5A18543   0.822   7.367   7.487 -0.0257 -0.3603 -0.2663
 1201loPI   C6A18544   0.734   7.629   7.901  0.0627  0.1650 -0.0894
 1201loPI   C1B18545   1.319   7.752   5.958 -0.0071  0.1662 -0.2037
 1201loPI   C2B18546   1.211   7.731   6.423 -0.1310  0.2893  0.1690
 1201loPI   C3B18547   1.252   7.714   6.892  0.2803 -0.2961 -0.1185
 1201loPI   C4B18548   1.086   7.924   7.308  0.0466 -0.0177  0.0663
 1202loPI    C118549   5.190   1.508   5.721 -0.0437 -0.0233 -0.1262
 1202loPI    C218550   5.042   1.830   5.907  0.1053  0.0605 -0.1506
 1202loPI    C318551   4.853   1.677   5.589 -0.1223 -0.0521  0.0357
 1202loPI   PO418552   5.240   1.351   5.841 -0.2045 -0.0638 -0.0096
 1202loPI   GL118553   5.355   1.016   6.119 -0.2875 -0.2662 -0.1804
 1202loPI   GL218554   5.060   1.031   6.195  0.0003 -0.0322  0.1688
 1202loPI   C1A18555   5.359   1.071   6.652  0.0130 -0.2290  0.1084
 1202loPI   C2A18556   5.435   1.067   7.065  0.0564 -0.1355 -0.0898
 1202loPI   C3A18557   5.510   1.084   7.525 -0.1609  0.0616  0.0091
 1202loPI   C4A18558   5.453   1.014   7.953 -0.1707  0.0175  0.0728
 1202loPI   C5A18559   5.277   1.194   8.252 -0.0689  0.2462 -0.1051
 1202loPI   C6A18560   4.834   1.396   8.381 -0.0727  0.0395  0.2726
 1202loPI   C1B18561   4.849   1.042   6.539  0.1744  0.0279  0.5236
 1202loPI   C2B18562   4.847   1.095   7.031  0.1044  0.0504  0.1289
 1202loPI   C3B18563   4.971   1.076   7.402  0.3141  0.0062 -0.0807
 1202loPI   C4B18564   4.969   1.082   7.857  0.1050  0.2459  0.2727
 1203loPI    C118565  15.093  12.784   5.717 -0.0722  0.0281  0.1070
 1203loPI    C218566  15.461  12.637   5.667 -0.0786 -0.0279  0.2209
 1203loPI    C318567  15.170  12.538   5.412  0.0238  0.1508  0.0313
 1203loPI   PO418568  15.054  12.782   5.978  0.0977  0.3322 -0.0567
 1203loPI   GL118569  15.019  12.549   6.339  0.1757  0.1908 -0.1128
 1203loPI   GL218570  15.249  12.301   6.392  0.0893 -0.0685 -0.0043
 1203loPI   C1A18571  15.100  12.724   6.670 -0.2407  0.0330 -0.5721
 1203loPI   C2A18572  15.156  12.867   7.096  0.2722  0.1735  0.0456
 1203loPI   C3A18573  15.083  12.949   7.589 -0.2686 -0.1118  0.0567
 1203loPI   C4A18574  15.041  12.977   8.139  0.0094  0.2144 -0.0446
 1203loPI   C5A18575  14.986  13.249   8.571  0.0460 -0.2719 -0.2373
 1203loPI   C6A18576  14.661  13.479   8.655  0.1781  0.1552  0.0802
 1203loPI   C1B18577  15.237  12.215   6.768  0.2163 -0.3498 -0.1730
 1203loPI   C2B18578  15.130  12.281   7.122 -0.0462 -0.2773  0.0168
 1203loPI   C3B18579  15.104  12.417   7.575 -0.1045 -0.0103 -0.0845
 1203loPI   C4B18580  15.011  12.244   7.997  0.1391  0.1823  0.0006
 1204loPI    C118581  11.904  17.382   5.482 -0.0863  0.0617  0.1286
 1204loPI    C218582  11.689  17.526   5.177  0.0335  0.2280  0.1208
 1204loPI    C318583  11.898  17.187   5.133 -0.0767  0.1658  0.0700
 1204loPI   PO418584  11.980  17.571   5.583 -0.0341 -0.0718  0.1553
 1204loPI   GL118585  12.317  17.545   5.831 -0.0633 -0.0436 -0.2114
 1204loPI   GL218586  12.323  17.195   5.778  0.2076  0.0363  0.0830
 1204loPI   C1A18587  12.172  17.581   6.205  0.1399  0.0534  0.0016
 1204loPI   C2A18588  12.297  17.621   6.653 -0.0433  0.0355 -0.2646
 1204loPI   C3A18589  12.376  17.591   7.081  0.1319 -0.4212  0.0434
 1204loPI   C4A18590  12.535  17.869   7.469  0.1671 -0.3955 -0.2566
 1204loPI   C5A18591  12.507  17.904   7.894  0.1521  0.0466 -0.0726
 1204loPI   C6A18592  12.090  17.822   8.123 -0.1164 -0.2374 -0.1622
 1204loPI   C1B18593  12.294  17.072   6.234  0.0460 -0.1276  0.1087
 1204loPI   C2B18594  12.331  17.067   6.621 -0.1075 -0.2674 -0.1100
 1204loPI   C3B18595  12.409  17.104   6.946 -0.0805  0.1916 -0.1512
 1204loPI   C4B18596  12.422  17.083   7.448  0.0844  0.0369 -0.2980
 1205loPI    C118597  14.911  15.810   5.520  0.0319 -0.2508 -0.0062
 1205loPI    C218598  14.929  15.495   5.274  0.1071 -0.1750 -0.0985
 1205loPI    C318599  15.004  15.863   5.135  0.2502 -0.1430  0.0593
 1205loPI   PO418600  14.670  15.849   5.629 -0.2834 -0.1717  0.0329
 1205loPI   GL118601  14.479  16.035   5.887  0.0213  0.0665  0.0881
 1205loPI   GL218602  14.340  15.666   6.002 -0.0194  0.0377  0.0356
 1205loPI   C1A18603  14.238  16.080   6.287  0.0841 -0.0118  0.1159
 1205loPI   C2A18604  14.113  16.204   6.718  0.1655 -0.1050  0.1794
 1205loPI   C3A18605  14.001  16.308   7.080 -0.1188 -0.1967 -0.1875
 1205loPI   C4A18606  14.172  16.458   7.343  0.2779 -0.1124 -0.0969
 1205loPI   C5A18607  14.237  16.553   7.771  0.0047  0.1053  0.1275
 1205loPI   C6A18608  13.945  16.614   8.119 -0.0395 -0.1144 -0.1665
 1205loPI   C1B18609  14.470  15.510   6.324  0.0804  0.1014 -0.1977
 1205loPI   C2B18610  14.537  15.592   6.701  0.1490  0.0369 -0.1118
 1205loPI   C3B18611  14.772  15.474   7.111  0.2064  0.0343  0.0557
 1205loPI   C4B18612  14.993  15.499   7.411 -0.0269  0.0357 -0.0298
 1206loPI    C118613   7.057   2.849   5.461 -0.2275  0.0465 -0.0995
 1206loPI    C218614   7.287   2.522   5.486 -0.0536  0.1671 -0.1043
 1206loPI    C318615   7.259   2.722   5.140 -0.4780 -0.0694 -0.2144
 1206loPI   PO418616   7.006   2.881   5.789 -0.0131 -0.1533 -0.0038
 1206loPI   GL118617   7.051   3.168   6.140 -0.3044  0.1466 -0.1011
 1206loPI   GL218618   6.897   3.388   6.094  0.1872  0.1450  0.0216
 1206loPI   C1A18619   7.005   3.228   6.642  0.1391  0.2229  0.1483
 1206loPI   C2A18620   6.728   3.397   6.861 -0.1030 -0.3356 -0.0276
 1206loPI   C3A18621   6.592   3.429   7.279 -0.0966 -0.1642 -0.0057
 1206loPI   C4A18622   6.570   3.300   7.795  0.2517  0.1239  0.1629
 1206loPI   C5A18623   6.423   2.992   8.036 -0.1338  0.1696  0.0614
 1206loPI   C6A18624   6.311   2.773   8.376  0.1135  0.1717 -0.0884
 1206loPI   C1B18625   6.699   3.515   6.376  0.0445  0.3427  0.0369
 1206loPI   C2B18626   6.436   3.774   6.576  0.2835  0.1706  0.0124
 1206loPI   C3B18627   6.326   3.867   7.047  0.2896 -0.0915 -0.0106
 1206loPI   C4B18628   6.324   3.883   7.386  0.0167  0.1788 -0.0865
 1207loPI    C118629   6.586   6.054   5.321  0.2333  0.2456  0.1146
 1207loPI    C218630   6.696   5.924   4.959 -0.0452 -0.0266  0.1236
 1207loPI    C318631   6.614   6.311   5.016  0.0390  0.0247 -0.0938
 1207loPI   PO418632   6.787   5.909   5.533  0.1623 -0.0115  0.0311
 1207loPI   GL118633   6.916   5.725   6.001 -0.0893  0.0317 -0.3271
 1207loPI   GL218634   7.231   5.573   5.996 -0.1358 -0.0713 -0.0518
 1207loPI   C1A18635   7.006   6.002   6.354  0.2895  0.2567 -0.2073
 1207loPI   C2A18636   6.999   6.084   6.768 -0.3242  0.2209  0.0775
 1207loPI   C3A18637   7.035   6.188   7.216  0.1395  0.2506  0.1661
 1207loPI   C4A18638   7.050   6.355   7.558 -0.0397 -0.1208  0.0056
 1207loPI   C5A18639   7.036   6.634   7.791  0.2727  0.1731 -0.0240
 1207loPI   C6A18640   7.067   6.891   8.146  0.3651  0.1205 -0.2386
 1207loPI   C1B18641   7.300   5.627   6.402  0.1434  0.0370  0.0070
 1207loPI   C2B18642   7.297   5.695   6.861  0.0304 -0.1512 -0.1052
 1207loPI   C3B18643   7.608   5.687   7.201 -0.1473  0.0684  0.1996
 1207loPI   C4B18644   7.685   5.483   7.541 -0.1627  0.3580 -0.2865
 1208loPI    C118645  10.841  16.689   5.513  0.1212 -0.0661 -0.0475
 1208loPI    C218646  10.507  16.722   5.295 -0.1256 -0.1684  0.3056
 1208loPI    C318647  10.680  17.049   5.447 -0.0527 -0.1139  0.1094
 1208loPI   PO418648  10.826  16.565   5.668 -0.0171 -0.2624 -0.2080
 1208loPI   GL118649  10.622  16.558   6.059  0.2669  0.0125 -0.1489
 1208loPI   GL218650  10.624  16.325   6.274 -0.2091 -0.0312 -0.1500
 1208loPI   C1A18651  10.580  16.829   6.327  0.1078  0.1403  0.2639
 1208loPI   C2A18652  10.686  16.975   6.772 -0.3794  0.0832  0.0752
 1208loPI   C3A18653  10.541  17.191   7.147  0.0222 -0.0187  0.0946
 1208loPI   C4A18654  10.618  17.244   7.545  0.0131 -0.0296  0.1792
 1208loPI   C5A18655  10.670  17.495   7.896  0.3461 -0.1497 -0.1349
 1208loPI   C6A18656  10.494  17.759   8.206  0.0163  0.1291 -0.0265
 1208loPI   C1B18657  10.673  16.444   6.696  0.0880 -0.1775  0.0861
 1208loPI   C2B18658  10.699  16.452   7.162 -0.0242  0.2321  0.0310
 1208loPI   C3B18659  10.832  16.544   7.605 -0.1128  0.2918 -0.0425
 1208loPI   C4B18660  10.875  16.868   7.867  0.1180  0.1203 -0.0206
 1209loPI    C118661  15.443  15.946   5.453  0.0421  0.0459  0.0548
 1209loPI    C218662  15.473  16.280   5.235  0.0209  0.0337  0.0330
 1209loPI    C318663  15.768  16.010   5.230  0.0308  0.0444  0.0380
 1209loPI   PO418664  15.333  16.042   5.776  0.0211  0.2086  0.4135
 1209loPI   GL118665  15.486  15.891   6.108 -0.0442 -0.3046 -0.1151
 1209loPI   GL218666  15.201  16.063   6.227  0.0691  0.0196 -0.0375
 1209loPI   C1A18667  15.456  15.625   6.459  0.0292  0.2579  0.1746
 1209loPI   C2A18668  15.499  15.628   6.903  0.1151  0.2140  0.4301
 1209loPI   C3A18669  15.437  15.731   7.305 -0.1131  0.0114  0.2416
 1209loPI   C4A18670  15.498  15.731   7.705  0.0974 -0.1030 -0.0085
 1209loPI   C5A18671  15.626  15.518   8.151 -0.0556  0.0938  0.0853
 1209loPI   C6A18672  15.832  15.581   8.529 -0.0131 -0.0532 -0.1415
 1209loPI   C1B18673  15.431  16.132   6.567  0.2999  0.0023 -0.1348
 1209loPI   C2B18674  15.546  16.092   6.969  0.0803 -0.0123 -0.2206
 1209loPI   C3B18675  15.408  16.214   7.391  0.1257 -0.1117 -0.1094
 1209loPI   C4B18676  15.390  16.186   7.915  0.1436  0.0734 -0.3818
 1210loPI    C118677   5.814   4.138   5.328 -0.0797  0.3501  0.1116
 1210loPI    C218678   6.109   4.271   5.093  0.0698  0.0579  0.1303
 1210loPI    C318679   5.765   4.145   4.931  0.1168 -0.0033  0.0774
 1210loPI   PO418680   5.808   4.234   5.575 -0.0956 -0.1425  0.2289
 1210loPI   GL118681   6.083   4.124   5.869 -0.0102  0.1590  0.1057
 1210loPI   GL218682   5.893   3.938   5.968 -0.0741  0.0370 -0.1085
 1210loPI   C1A18683   6.120   4.199   6.396 -0.2562  0.0415  0.0350
 1210loPI   C2A18684   6.191   4.260   6.833  0.0399 -0.0112 -0.0629
 1210loPI   C3A18685   6.034   4.262   7.211  0.1646  0.1196  0.0978
 1210loPI   C4A18686   6.034   4.249   7.686 -0.1189 -0.1921  0.1204
 1210loPI   C5A18687   5.728   4.000   7.915 -0.2045 -0.0574  0.0853
 1210loPI   C6A18688   5.359   3.824   8.119 -0.0093 -0.0522  0.1348
 1210loPI   C1B18689   5.855   3.800   6.296  0.2051 -0.0363 -0.1069
 1210loPI   C2B18690   5.934   3.818   6.659 -0.2314 -0.3253 -0.1728
 1210loPI   C3B18691   5.778   3.813   7.073 -0.2867 -0.3478  0.1763
 1210loPI   C4B18692   5.860   3.804   7.489 -0.0022  0.0674  0.3413
 1211loPI    C118693   4.048  12.347   5.167 -0.0514  0.0699 -0.0842
 1211loPI    C218694   4.414  12.189   5.132 -0.0573  0.0260  0.0476
 1211loPI    C318695   4.145  12.137   4.841  0.0212  0.0059 -0.0218
 1211loPI   PO418696   4.057  12.321   5.443 -0.2892 -0.1277  0.1139
 1211loPI   GL118697   3.977  12.216   5.749 -0.0846  0.2109 -0.0370
 1211loPI   GL218698   3.822  12.088   5.907  0.2908  0.0904  0.1978
 1211loPI   C1A18699   4.276  12.354   6.186  0.0713 -0.1713 -0.0654
 1211loPI   C2A18700   4.080  12.494   6.600 -0.2334 -0.2514 -0.3907
 1211loPI   C3A18701   4.008  12.551   7.047  0.1019 -0.3208  0.0270
 1211loPI   C4A18702   3.847  12.664   7.426 -0.1754 -0.0328  0.0591
 1211loPI   C5A18703   3.923  13.057   7.630  0.3633 -0.1390  0.1019
 1211loPI   C6A18704   4.048  13.174   7.998  0.0776  0.0841  0.1997
 1211loPI   C1B18705   3.681  12.372   6.289 -0.0087  0.1192 -0.1374
 1211loPI   C2B18706   3.562  12.351   6.713 -0.1160  0.0127  0.0234
 1211loPI   C3B18707   3.567  12.318   7.167  0.0910 -0.2328 -0.3831
 1211loPI   C4B18708   3.431  12.264   7.632  0.1444  0.0051 -0.1409
 1212loPI    C118709  11.314   5.549   5.347 -0.2208  0.0722  0.3051
 1212loPI    C218710  10.967   5.356   5.392 -0.3235  0.2162  0.1436
 1212loPI    C318711  11.072   5.498   5.033  0.0301 -0.0646  0.1305
 1212loPI   PO418712  11.479   5.416   5.580  0.0081  0.0267  0.2764
 1212loPI   GL118713  11.806   5.553   5.838  0.0093  0.2810  0.2294
 1212loPI   GL218714  11.554   5.398   6.054  0.3717  0.0204  0.0864
 1212loPI   C1A18715  12.032   5.600   6.204  0.0100  0.2020  0.1409
 1212loPI   C2A18716  12.120   5.634   6.639 -0.1979  0.1635  0.1387
 1212loPI   C3A18717  12.069   5.503   6.930 -0.0210  0.0650 -0.2079
 1212loPI   C4A18718  12.013   5.516   7.401 -0.1216 -0.1276  0.0298
 1212loPI   C5A18719  12.126   5.665   7.829 -0.0390 -0.2760  0.1655
 1212loPI   C6A18720  12.293   6.035   7.852  0.0092  0.0880 -0.0379
 1212loPI   C1B18721  11.712   5.271   6.482  0.0169 -0.1690  0.0097
 1212loPI   C2B18722  11.579   5.170   6.843 -0.0656  0.1139 -0.0849
 1212loPI   C3B18723  11.596   5.215   7.289 -0.0570 -0.0602 -0.1328
 1212loPI   C4B18724  11.598   4.982   7.681 -0.1095  0.2303 -0.1179
 1213loPI    C118725   1.711   7.468   4.892 -0.1216  0.0413 -0.0992
 1213loPI    C218726   1.728   7.203   4.593 -0.0189 -0.0040 -0.0535
 1213loPI    C318727   1.767   7.594   4.517  0.1108 -0.0231 -0.0877
 1213loPI   PO418728   1.552   7.461   5.150  0.2150  0.2931  0.2421
 1213loPI   GL118729   1.336   7.377   5.557  0.1165  0.0466 -0.0568
 1213loPI   GL218730   1.592   7.488   5.712 -0.2658 -0.0489  0.2168
 1213loPI   C1A18731   1.106   7.145   5.900 -0.0685 -0.1447 -0.0466
 1213loPI   C2A18732   1.065   7.211   6.377  0.0687 -0.1265  0.0628
 1213loPI   C3A18733   1.099   7.239   6.793  0.0109 -0.0738 -0.0334
 1213loPI   C4A18734   1.222   7.263   7.239 -0.3359 -0.0423 -0.0475
 1213loPI   C5A18735   1.335   7.485   7.507 -0.4060 -0.0865  0.2872
 1213loPI   C6A18736   1.538   7.793   7.463 -0.0630 -0.0460 -0.2617
 1213loPI   C1B18737   1.559   7.310   6.155 -0.0027  0.1247 -0.2308
 1213loPI   C2B18738   1.587   7.418   6.600  0.0083 -0.1290 -0.2644
 1213loPI   C3B18739   1.697   7.459   7.118 -0.1326 -0.0732  0.1617
 1213loPI   C4B18740   1.902   7.508   7.589 -0.1247 -0.1193  0.0546
 1214POPI    C118741  13.642  14.544   5.559 -0.0407 -0.1480 -0.0662
 1214POPI    C218742  13.532  14.803   5.274  0.0058 -0.1599 -0.0951
 1214POPI    C318743  13.897  14.640   5.266  0.0997  0.0354  0.1145
 1214POPI   PO418744  13.488  14.652   5.754 -0.1785  0.2103  0.1067
 1214POPI   GL118745  13.400  14.677   6.180 -0.0537  0.2617  0.2604
 1214POPI   GL218746  13.646  14.342   6.213 -0.2035  0.1154  0.0042
 1214POPI   C1A18747  13.492  14.774   6.620  0.1637 -0.3663  0.0210
 1214POPI   D2A18748  13.403  14.642   6.980  0.1346  0.5686 -0.2438
 1214POPI   C3A18749  13.455  14.945   7.296 -0.2333 -0.0763 -0.1341
 1214POPI   C4A18750  13.443  15.125   7.800 -0.3203  0.3010  0.0447
 1214POPI   C1B18751  13.623  14.246   6.706  0.0162 -0.0584 -0.1164
 1214POPI   C2B18752  13.520  14.148   7.108  0.0031  0.3828 -0.1728
 1214POPI   C3B18753  13.438  14.016   7.495 -0.4365  0.2484  0.1117
 1214POPI   C4B18754  13.505  13.671   7.793  0.0503 -0.2860  0.0495
 1215POPI    C118755   2.654   0.571   5.591 -0.1603  0.0208 -0.2806
 1215POPI    C218756   2.410   0.528   5.277 -0.0147  0.1067 -0.4069
 1215POPI    C318757   2.758   0.330   5.289 -0.0823 -0.0038 -0.2346
 1215POPI   PO418758   2.453   0.596   5.790 -0.2218  0.1646 -0.2258
 1215POPI   GL118759   2.646   0.776   6.050 -0.2111 -0.0997 -0.3219
 1215POPI   GL218760   2.905   0.571   5.998 -0.0907  0.0328  0.1486
 1215POPI   C1A18761   2.472   0.816   6.477  0.2198  0.0731  0.1466
 1215POPI   D2A18762   2.292   0.677   6.835  0.0413 -0.0532 -0.0174
 1215POPI   C3A18763   2.482   0.673   7.203 -0.0534 -0.3383  0.1796
 1215POPI   C4A18764   2.644   0.687   7.583 -0.1758 -0.1284 -0.1937
 1215POPI   C1B18765   3.009   0.745   6.359  0.2095  0.1283 -0.2249
 1215POPI   C2B18766   2.900   0.610   6.881  0.0957  0.1506 -0.1840
 1215POPI   C3B18767   3.010   0.662   7.212 -0.3309  0.0664  0.0940
 1215POPI   C4B18768   3.111   0.653   7.712 -0.2893 -0.1777 -0.0042
 1216POPI    C118769   0.152  13.271   5.714  0.0981  0.0072 -0.1568
 1216POPI    C218770  -0.054  13.160   5.389  0.1299  0.0269 -0.1836
 1216POPI    C318771   0.153  13.503   5.388 -0.0742  0.1524 -0.0559
 1216POPI   PO418772   0.283  13.045   5.773 -0.3258  0.0921  0.2248
 1216POPI   GL118773   0.202  12.783   6.092 -0.0042  0.0011 -0.1585
 1216POPI   GL218774  -0.016  12.427   6.083  0.3217  0.0340  0.1449
 1216POPI   C1A18775   0.147  12.871   6.521  0.3978  0.0225 -0.1204
 1216POPI   D2A18776  -0.131  12.957   6.832  0.1072  0.1936  0.0004
 1216POPI   C3A18777  -0.008  12.910   7.287  0.1790 -0.1326  0.0038
 1216POPI   C4A18778  -0.161  12.795   7.690  0.0122  0.0626 -0.0164
 1216POPI   C1B18779  -0.056  12.425   6.458  0.0048 -0.0957 -0.2672
 1216POPI   C2B18780  -0.043  12.452   6.853  0.2183 -0.2326 -0.0528
 1216POPI   C3B18781  -0.062  12.311   7.261 -0.1690  0.0950  0.1768
 1216POPI   C4B18782  -0.116  12.154   7.648  0.3395 -0.2459  0.1234
 1217POPI    C118783  13.066  15.574   5.854  0.0049 -0.1834 -0.0800
 1217POPI    C218784  13.449  15.682   5.814 -0.1210  0.3037 -0.0333
 1217POPI    C318785  13.246  15.546   5.498  0.1020 -0.0122 -0.0457
 1217POPI   PO418786  13.061  15.444   6.034 -0.2184  0.0107 -0.2105
 1217POPI   GL118787  13.288  15.558   6.382  0.0635  0.1036 -0.1487
 1217POPI   GL218788  13.542  15.560   6.277 -0.1680  0.0060  0.0424
 1217POPI   C1A18789  13.433  15.617   6.783  0.1389  0.0166  0.4664
 1217POPI   D2A18790  13.461  15.783   7.253 -0.0180  0.0372  0.0356
 1217POPI   C3A18791  13.886  15.906   7.422  0.0550  0.1567  0.2193
 1217POPI   C4A18792  14.204  16.053   7.669  0.0278  0.2027 -0.1379
 1217POPI   C1B18793  13.878  15.705   6.577  0.1083 -0.2877 -0.0406
 1217POPI   C2B18794  13.983  15.701   6.927 -0.1262  0.2258  0.2216
 1217POPI   C3B18795  14.337  15.715   7.258  0.2208 -0.2198  0.1298
 1217POPI   C4B18796  14.538  15.725   7.616  0.2425 -0.2603 -0.0076
 1218POPI    C118797   7.229  10.343   5.478  0.0059 -0.1526 -0.0369
 1218POPI    C218798   6.953  10.205   5.223 -0.1330  0.1513 -0.0555
 1218POPI    C318799   7.287  10.375   5.083 -0.2522  0.4036 -0.0391
 1218POPI   PO418800   7.237  10.085   5.601  0.2197  0.0813  0.1545
 1218POPI   GL118801   7.374   9.885   5.999 -0.0050 -0.1710  0.3422
 1218POPI   GL218802   7.122   9.851   6.239  0.0985  0.1266  0.2935
 1218POPI   C1A18803   7.743   9.931   6.319 -0.3504  0.1778 -0.0836
 1218POPI   D2A18804   7.789   9.919   6.690  0.2233  0.2802 -0.2029
 1218POPI   C3A18805   7.460   9.866   7.094  0.1550  0.2084  0.1484
 1218POPI   C4A18806   7.098   9.869   7.363  0.3016  0.1510 -0.0635
 1218POPI   C1B18807   7.189   9.838   6.653 -0.1979  0.0175  0.0461
 1218POPI   C2B18808   7.135  10.181   6.916 -0.0361 -0.3792 -0.0331
 1218POPI   C3B18809   7.209  10.331   7.373 -0.0390 -0.1612  0.1147
 1218POPI   C4B18810   7.322  10.328   7.712  0.1124 -0.0146  0.1044
 1219POPI    C118811  11.613  15.139   5.629 -0.1808  0.3641  0.0312
 1219POPI    C218812  11.687  15.353   5.299  0.0306 -0.0631 -0.2063
 1219POPI    C318813  11.921  15.042   5.393 -0.4131 -0.3465 -0.0043
 1219POPI   PO418814  11.409  15.231   5.792 -0.1825 -0.1881 -0.1911
 1219POPI   GL118815  11.116  15.132   6.164 -0.1094  0.3114  0.2950
 1219POPI   GL218816  11.284  14.845   6.119  0.0187  0.1300  0.1538
 1219POPI   C1A18817  10.859  15.186   6.624  0.4761 -0.0613  0.3803
 1219POPI   D2A18818  10.693  14.882   6.910 -0.0044  0.1055  0.0978
 1219POPI   C3A18819  10.630  14.999   7.338 -0.1390  0.0772  0.0147
 1219POPI   C4A18820  10.670  15.054   7.778  0.2382 -0.0973 -0.0767
 1219POPI   C1B18821  11.186  14.819   6.589  0.0969  0.1275  0.0633
 1219POPI   C2B18822  11.132  14.801   7.113  0.0517 -0.0347  0.2212
 1219POPI   C3B18823  11.079  14.780   7.522 -0.0347 -0.2393  0.1710
 1219POPI   C4B18824  11.417  14.909   7.915 -0.1290 -0.2579  0.0867
 1220POPI    C118825   1.456  14.954   5.612 -0.0716 -0.1772  0.0666
 1220POPI    C218826   1.157  14.994   5.349  0.0077 -0.1123 -0.0144
 1220POPI    C318827   1.502  14.826   5.235  0.0621 -0.0338  0.0332
 1220POPI   PO418828   1.274  14.870   5.867 -0.1310 -0.3009  0.0078
 1220POPI   GL118829   1.077  14.930   6.325  0.3063 -0.1138  0.2714
 1220POPI   GL218830   1.005  14.640   6.510 -0.0977 -0.0394 -0.4869
 1220POPI   C1A18831   1.371  15.179   6.470  0.1449  0.0390 -0.1672
 1220POPI   D2A18832   1.645  15.277   6.747 -0.0533  0.2921  0.1777
 1220POPI   C3A18833   1.531  15.257   7.236 -0.3079 -0.0551  0.1934
 1220POPI   C4A18834   1.574  15.450   7.551 -0.1727  0.1438  0.0801
 1220POPI   C1B18835   0.864  14.831   6.853 -0.3113 -0.0722  0.0392
 1220POPI   C2B18836   0.778  14.913   7.256  0.0284  0.0816  0.1627
 1220POPI   C3B18837   0.717  14.940   7.653  0.1458  0.1173 -0.1887
 1220POPI   C4B18838   0.934  14.970   8.101 -0.0634 -0.1608  0.0038
 1221POPI    C118839   2.943  13.622   5.444 -0.1197  0.0682  0.1263
 1221POPI    C218840   3.141  13.276   5.424  0.1783  0.2315  0.1999
 1221POPI    C318841   3.098  13.501   5.097 -0.0997  0.0817  0.1305
 1221POPI   PO418842   3.044  13.859   5.633 -0.0201 -0.2438 -0.1216
 1221POPI   GL118843   2.961  13.777   6.015  0.1348  0.2121 -0.4457
 1221POPI   GL218844   2.886  14.123   6.038 -0.2953 -0.1958  0.2828
 1221POPI   C1A18845   2.683  13.865   6.511 -0.1603 -0.4587 -0.1422
 1221POPI   D2A18846   2.549  14.197   6.782 -0.2882 -0.1369 -0.1491
 1221POPI   C3A18847   2.351  14.115   7.166  0.3460  0.2852 -0.1326
 1221POPI   C4A18848   2.128  13.973   7.527  0.2951 -0.1051 -0.0545
 1221POPI   C1B18849   3.065  14.242   6.381  0.0175 -0.2523  0.0308
 1221POPI   C2B18850   3.039  14.137   6.797  0.0296 -0.0246  0.0694
 1221POPI   C3B18851   2.914  13.961   7.169 -0.0277  0.0630  0.1101
 1221POPI   C4B18852   3.016  13.922   7.586 -0.0741  0.0450  0.2233
 1222POPI    C118853   8.643  12.192   5.796 -0.0958  0.1275 -0.0599
 1222POPI    C218854   8.434  11.957   5.549 -0.0427  0.0467 -0.0282
 1222POPI    C318855   8.690  11.795   5.811  0.0566  0.1450 -0.0638
 1222POPI   PO418856   8.406  12.327   5.912  0.0096 -0.0401 -0.2969
 1222POPI   GL118857   8.189  12.617   6.304 -0.0032 -0.0646 -0.2165
 1222POPI   GL218858   8.284  12.943   6.285  0.1315  0.1065 -0.0565
 1222POPI   C1A18859   8.209  12.441   6.757  0.0236  0.1682 -0.2153
 1222POPI   D2A18860   8.310  12.494   7.191  0.0289  0.1285 -0.0998
 1222POPI   C3A18861   8.674  12.295   7.413  0.1298 -0.2471  0.1157
 1222POPI   C4A18862   8.723  11.950   7.666 -0.1020  0.2392 -0.0335
 1222POPI   C1B18863   8.183  12.919   6.715  0.1278  0.4117  0.0890
 1222POPI   C2B18864   8.186  13.060   7.078  0.2526  0.3037  0.0992
 1222POPI   C3B18865   8.395  12.967   7.469 -0.0749  0.2712  0.0763
 1222POPI   C4B18866   8.478  13.126   7.832 -0.0074 -0.0819 -0.2591
 1223POPI    C118867  16.116  13.649   5.525  0.1102 -0.0979  0.0014
 1223POPI    C218868  16.095  13.429   5.191 -0.0108  0.1432 -0.1523
 1223POPI    C318869  15.859  13.749   5.235  0.0527  0.1529  0.1366
 1223POPI   PO418870  16.127  13.429   5.707 -0.1928  0.1451 -0.1915
 1223POPI   GL118871  16.248  13.350   6.154 -0.3357  0.0087 -0.1787
 1223POPI   GL218872  16.591  13.149   6.294 -0.2456  0.1813 -0.0033
 1223POPI   C1A18873  16.111  13.279   6.631 -0.0334 -0.3303 -0.2988
 1223POPI   D2A18874  16.139  12.864   6.809 -0.0159  0.0185  0.2331
 1223POPI   C3A18875  16.073  12.843   7.309  0.0639 -0.0028  0.0112
 1223POPI   C4A18876  15.935  12.864   7.680  0.0218  0.0710  0.0982
 1223POPI   C1B18877  16.647  13.044   6.741  0.1066 -0.0861 -0.1869
 1223POPI   C2B18878  16.700  13.036   7.174  0.1011 -0.2245  0.3030
 1223POPI   C3B18879  16.541  13.142   7.537 -0.1869 -0.3255 -0.2511
 1223POPI   C4B18880  16.780  13.077   7.925  0.0655 -0.0320 -0.1742
 1224POPI    C118881   9.807   6.472   5.182  0.1216 -0.1718  0.1561
 1224POPI    C218882  10.196   6.511   5.097  0.0959 -0.3971 -0.0765
 1224POPI    C318883   9.925   6.520   4.803 -0.1143  0.1678  0.1212
 1224POPI   PO418884   9.764   6.522   5.453 -0.2093  0.2644 -0.2794
 1224POPI   GL118885  10.094   6.508   5.730  0.0914  0.2021  0.0472
 1224POPI   GL218886  10.340   6.316   5.707  0.1715 -0.1491 -0.0366
 1224POPI   C1A18887  10.071   6.556   6.188 -0.0658 -0.1104 -0.2060
 1224POPI   D2A18888  10.189   6.533   6.600  0.0203  0.1173 -0.0169
 1224POPI   C3A18889  10.158   6.443   7.022  0.0924 -0.0552 -0.2854
 1224POPI   C4A18890  10.300   6.452   7.367  0.2355  0.1666  0.0040
 1224POPI   C1B18891  10.595   6.346   6.118  0.0377  0.1780 -0.2192
 1224POPI   C2B18892  10.675   6.326   6.590 -0.0013 -0.5067 -0.0063
 1224POPI   C3B18893  10.716   6.296   7.049 -0.0104 -0.1766 -0.1625
 1224POPI   C4B18894  10.778   6.196   7.450  0.0601 -0.2613  0.0388
 1225POPI    C118895  15.314   1.230   5.372  0.0452 -0.0787 -0.0450
 1225POPI    C218896  15.019   1.012   5.215  0.0171 -0.0608 -0.0171
 1225POPI    C318897  15.355   1.073   5.007  0.0909 -0.2652  0.0389
 1225POPI   PO418898  15.389   1.111   5.639  0.3862  0.0732  0.5034
 1225POPI   GL118899  15.374   1.237   5.943 -0.2921 -0.1712 -0.5114
 1225POPI   GL218900  15.084   1.348   6.067  0.0222  0.2446 -0.1378
 1225POPI   C1A18901  15.397   1.293   6.442  0.1107 -0.5628 -0.1491
 1225POPI   D2A18902  15.396   1.214   6.758 -0.0304  0.0789  0.0180
 1225POPI   C3A18903  15.398   1.332   7.158  0.2448  0.0854 -0.3028
 1225POPI   C4A18904  15.342   1.298   7.605 -0.1572  0.1543 -0.1953
 1225POPI   C1B18905  14.947   1.576   6.482  0.1640 -0.0564 -0.0588
 1225POPI   C2B18906  14.876   1.511   6.913 -0.0295 -0.2976  0.1218
 1225POPI   C3B18907  14.969   1.568   7.360 -0.1539  0.1072  0.0401
 1225POPI   C4B18908  14.911   1.490   7.895 -0.1887 -0.0809 -0.1504
 1226POPI    C118909  13.765   0.413   5.334 -0.1103  0.1036 -0.0852
 1226POPI    C218910  13.709   0.066   5.142 -0.0933  0.0419  0.0202
 1226POPI    C318911  14.063   0.252   5.122 -0.0261 -0.0695  0.1602
 1226POPI   PO418912  13.613   0.352   5.539 -0.2148 -0.3014  0.0393
 1226POPI   GL118913  13.540   0.392   5.974 -0.4401 -0.0566  0.1539
 1226POPI   GL218914  13.232   0.268   6.086 -0.1999 -0.0159  0.0383
 1226POPI   C1A18915  13.838   0.300   6.328 -0.0909 -0.0703  0.1314
 1226POPI   D2A18916  13.892   0.150   6.690  0.0004 -0.2218 -0.1330
 1226POPI   C3A18917  14.008   0.295   7.148 -0.0400 -0.0858  0.3480
 1226POPI   C4A18918  14.003   0.446   7.604 -0.0747 -0.0883  0.0859
 1226POPI   C1B18919  13.218   0.632   6.344  0.0450 -0.0527 -0.0533
 1226POPI   C2B18920  12.942   0.927   6.580  0.0918 -0.0578  0.0941
 1226POPI   C3B18921  12.456   0.988   6.593  0.1579  0.1259  0.0914
 1226POPI   C4B18922  12.219   1.101   6.790 -0.0572  0.1325  0.0726
 1227POPI    C118923  10.620  12.864   5.525 -0.0389 -0.0802 -0.0291
 1227POPI    C218924  10.580  12.479   5.425 -0.0199 -0.0189 -0.2804
 1227POPI    C318925  10.642  12.753   5.141 -0.1904  0.1905 -0.1185
 1227POPI   PO418926  10.775  12.847   5.700 -0.1359 -0.2792 -0.2855
 1227POPI   GL118927  10.916  12.829   6.044  0.3011 -0.2758 -0.2290
 1227POPI   GL218928  10.975  12.494   5.959 -0.1867 -0.1129  0.0929
 1227POPI   C1A18929  10.902  13.013   6.523 -0.0161  0.4575 -0.0917
 1227POPI   D2A18930  11.018  13.054   7.041  0.0797 -0.2812  0.2399
 1227POPI   C3A18931  11.264  13.298   7.288  0.0663  0.0809 -0.1871
 1227POPI   C4A18932  11.304  13.773   7.372 -0.0401  0.0254 -0.2451
 1227POPI   C1B18933  11.137  12.616   6.445 -0.0448 -0.3519 -0.1827
 1227POPI   C2B18934  11.206  12.618   6.847 -0.0590  0.1874  0.0212
 1227POPI   C3B18935  11.338  12.787   7.279 -0.0916 -0.1210  0.1678
 1227POPI   C4B18936  11.319  12.565   7.672  0.2975 -0.0598  0.1989
 1228POPI    C118937  14.035   7.227   5.235  0.1355  0.2258  0.0091
 1228POPI    C218938  14.379   7.226   5.031  0.1923 -0.1376  0.0996
 1228POPI    C318939  14.035   7.298   4.841  0.2637 -0.2947 -0.0926
 1228POPI   PO418940  14.063   7.333   5.442 -0.1823 -0.2034  0.0961
 1228POPI   GL118941  14.142   7.642   5.567 -0.1446 -0.0240 -0.0542
 1228POPI   GL218942  14.315   7.524   5.847  0.1515 -0.0623 -0.1409
 1228POPI   C1A18943  13.886   7.862   5.868 -0.1141 -0.0846 -0.2068
 1228POPI   D2A18944  13.725   7.903   6.300  0.4100 -0.2141  0.0841
 1228POPI   C3A18945  13.816   7.793   6.674 -0.3167  0.1645  0.1802
 1228POPI   C4A18946  13.807   7.666   7.146  0.1110 -0.0438  0.1835
 1228POPI   C1B18947  14.164   7.599   6.309  0.0185 -0.1876  0.0749
 1228POPI   C2B18948  14.238   7.522   6.770  0.0671 -0.0828  0.0693
 1228POPI   C3B18949  14.295   7.530   7.201 -0.2749 -0.0887 -0.0118
 1228POPI   C4B18950  14.404   7.372   7.635  0.2383  0.0238  0.1978
 1229POPI    C118951   2.685   9.179   5.293  0.1050 -0.0990 -0.0034
 1229POPI    C218952   2.896   9.519   5.308 -0.1157  0.0431 -0.0697
 1229POPI    C318953   2.575   9.493   5.071 -0.1393 -0.1909 -0.0150
 1229POPI   PO418954   2.740   9.084   5.533 -0.0415  0.4105  0.1109
 1229POPI   GL118955   2.917   8.997   5.885  0.0044  0.0516 -0.2223
 1229POPI   GL218956   2.777   8.719   5.947 -0.2373  0.2186 -0.2400
 1229POPI   C1A18957   3.098   8.970   6.279  0.0387  0.2634 -0.1593
 1229POPI   D2A18958   2.823   8.859   6.612  0.1494  0.1584  0.0289
 1229POPI   C3A18959   2.674   9.150   6.890 -0.3318 -0.0924  0.0612
 1229POPI   C4A18960   2.629   9.156   7.314 -0.1997  0.1498 -0.0057
 1229POPI   C1B18961   2.593   9.025   6.243 -0.0274 -0.2232  0.2685
 1229POPI   C2B18962   2.401   9.303   6.488 -0.3061  0.0137  0.0133
 1229POPI   C3B18963   2.148   9.386   6.817  0.0084  0.2429  0.1409
 1229POPI   C4B18964   2.109   9.432   7.294 -0.1969  0.0556  0.1313
 1230POPI    C118965   3.778  14.764   5.053 -0.3835 -0.0123 -0.2217
 1230POPI    C218966   4.072  14.794   4.783 -0.2763 -0.0167 -0.1067
 1230POPI    C318967   3.708  14.671   4.670 -0.2312 -0.0232 -0.2477
 1230POPI   PO418968   3.864  14.683   5.297  0.1234 -0.5088  0.2353
 1230POPI   GL118969   3.650  14.616   5.663  0.0020  0.4001  0.0361
 1230POPI   GL218970   3.848  14.850   5.814  0.0863  0.1955 -0.1362
 1230POPI   C1A18971   3.448  14.627   6.121  0.0522  0.1938 -0.1923
 1230POPI   D2A18972   3.407  14.605   6.594 -0.0299 -0.1114 -0.1609
 1230POPI   C3A18973   3.383  14.479   6.928 -0.1484 -0.1367 -0.2147
 1230POPI   C4A18974   3.225  14.291   7.283  0.1351 -0.1022  0.0623
 1230POPI   C1B18975   3.827  14.923   6.154 -0.1031  0.2079 -0.0413
 1230POPI   C2B18976   3.731  14.971   6.603 -0.0019 -0.0602 -0.2051
 1230POPI   C3B18977   3.747  14.820   6.945  0.2340  0.0165  0.1469
 1230POPI   C4B18978   3.951  14.986   7.278  0.0560  0.2160  0.1269
 1231POPI    C118979   9.615  10.982   5.377  0.2166  0.2923 -0.1045
 1231POPI    C218980   9.394  11.290   5.249 -0.4029 -0.1074 -0.0425
 1231POPI    C318981   9.427  10.961   5.025  0.1439 -0.0583 -0.0483
 1231POPI   PO418982   9.666  11.104   5.641 -0.2383  0.0400 -0.2753
 1231POPI   GL118983   9.605  11.193   6.129  0.2585  0.1655  0.1840
 1231POPI   GL218984   9.485  11.475   6.378  0.0674 -0.1961 -0.1877
 1231POPI   C1A18985   9.789  10.951   6.453 -0.2311 -0.2092 -0.2454
 1231POPI   D2A18986   9.635  10.641   6.706  0.0549 -0.1578 -0.2133
 1231POPI   C3A18987   9.631  10.425   7.131 -0.0757  0.1071 -0.1298
 1231POPI   C4A18988   9.801  10.280   7.549  0.1469  0.2266  0.0563
 1231POPI   C1B18989   9.667  11.418   6.766 -0.1639 -0.3423  0.0357
 1231POPI   C2B18990   9.479  11.440   7.269  0.2108  0.6070 -0.2142
 1231POPI   C3B18991   9.489  11.641   7.703  0.1408  0.1703 -0.1213
 1231POPI   C4B18992   9.582  12.096   7.855  0.1043 -0.1881  0.0741
 1232POPI    C118993  11.744  13.178   5.419 -0.1861 -0.0757 -0.0098
 1232POPI    C218994  11.553  13.499   5.275  0.0453  0.0469 -0.0477
 1232POPI    C318995  11.777  13.274   5.032  0.0078 -0.0544  0.0113
 1232POPI   PO418996  11.664  13.120   5.658  0.3001 -0.1825  0.3806
 1232POPI   GL118997  11.694  12.994   6.085 -0.0748 -0.0626 -0.0414
 1232POPI   GL218998  11.378  13.010   6.219  0.1760  0.3373 -0.1675
 1232POPI   C1A18999  11.839  12.874   6.509  0.0848 -0.0416 -0.0631
 1232POPI   D2A19000  12.068  12.569   6.686 -0.1113 -0.2638  0.0969
 1232POPI   C3A19001  12.135  12.615   7.113 -0.0747  0.0842  0.1190
 1232POPI   C4A19002  12.204  12.678   7.577  0.3889 -0.1260 -0.0591
 1232POPI   C1B19003  11.401  13.056   6.667 -0.1829 -0.0807  0.2506
 1232POPI   C2B19004  11.652  12.974   6.980  0.1999  0.0570 -0.1289
 1232POPI   C3B19005  11.797  12.944   7.388  0.0904  0.1300 -0.0072
 1232POPI   C4B19006  11.584  13.161   7.746 -0.1290  0.0464 -0.2915
 1233POPI    C119007   5.931   7.399   5.015  0.0188  0.0022  0.0644
 1233POPI    C219008   5.719   7.078   4.904 -0.0267  0.1050 -0.1531
 1233POPI    C319009   5.680   7.422   4.703  0.0095  0.2522  0.0878
 1233POPI   PO419010   5.879   7.411   5.288  0.0446  0.0304 -0.0619
 1233POPI   GL119011   5.971   7.074   5.662  0.1324 -0.2055  0.3140
 1233POPI   GL219012   5.872   6.880   5.803  0.1147 -0.0954  0.0813
 1233POPI   C1A19013   6.227   7.350   5.978  0.0116 -0.1443 -0.2318
 1233POPI   D2A19014   6.297   7.720   6.138  0.0924 -0.1348 -0.5853
 1233POPI   C3A19015   6.226   7.753   6.545 -0.3181  0.0772 -0.0531
 1233POPI   C4A19016   6.114   7.489   6.771 -0.3712  0.0579 -0.1549
 1233POPI   C1B19017   5.977   6.912   6.200 -0.1933  0.0740  0.0091
 1233POPI   C2B19018   5.887   7.099   6.613  0.1572  0.0308  0.2199
 1233POPI   C3B19019   5.966   7.103   7.029  0.0316  0.0473  0.0210
 1233POPI   C4B19020   6.286   6.932   7.371  0.0008  0.1240  0.2622
 1234POPI    C119021  13.429   0.760   5.686  0.2431 -0.1213  0.0303
 1234POPI    C219022  13.322   0.716   5.303 -0.3827  0.2840  0.1436
 1234POPI    C319023  13.675   0.882   5.395 -0.0383 -0.2013 -0.2457
 1234POPI   PO419024  13.176   0.964   5.779 -0.1416 -0.1918 -0.0964
 1234POPI   GL119025  12.923   0.992   6.053 -0.0746  0.2519  0.1031
 1234POPI   GL219026  12.923   1.315   6.031 -0.1973  0.3233 -0.2886
 1234POPI   C1A19027  12.714   0.579   6.322  0.3599  0.2433  0.1982
 1234POPI   D2A19028  12.615   0.474   6.736 -0.1071  0.1880  0.1105
 1234POPI   C3A19029  12.659   0.837   7.088 -0.3766 -0.0122 -0.0269
 1234POPI   C4A19030  12.665   1.240   7.041 -0.2857 -0.0492  0.0887
 1234POPI   C1B19031  13.010   1.391   6.394  0.0847  0.1321  0.1682
 1234POPI   C2B19032  13.037   1.452   6.848 -0.0894 -0.1484 -0.0074
 1234POPI   C3B19033  13.086   1.452   7.244  0.0287 -0.0035  0.0449
 1234POPI   C4B19034  13.175   1.500   7.693  0.1830  0.1394 -0.2429
 1235POPI    C119035   0.066   3.553   5.249  0.1055  0.2133  0.0001
 1235POPI    C219036  -0.287   3.546   5.435  0.1194 -0.2490  0.0209
 1235POPI    C319037  -0.272   3.550   5.036  0.0928  0.0186  0.0209
 1235POPI   PO419038   0.167   3.798   5.377 -0.0985  0.1144 -0.2755
 1235POPI   GL119039   0.448   3.903   5.650  0.0654  0.1199 -0.2019
 1235POPI   GL219040   0.690   3.909   5.674 -0.1762  0.1646  0.3607
 1235POPI   C1A19041   0.362   3.836   6.100  0.0465  0.0288  0.2904
 1235POPI   D2A19042   0.266   4.160   6.364 -0.2450 -0.0153 -0.3479
 1235POPI   C3A19043   0.424   4.209   6.800 -0.0890 -0.0104  0.1306
 1235POPI   C4A19044   0.462   4.212   7.223 -0.2047  0.1397 -0.1853
 1235POPI   C1B19045   0.794   3.771   6.010 -0.1038 -0.2126 -0.1144
 1235POPI   C2B19046   0.673   3.669   6.441 -0.1344  0.1058  0.2714
 1235POPI   C3B19047   0.549   3.635   6.843 -0.0798 -0.0131  0.0379
 1235POPI   C4B19048   0.393   3.619   7.238  0.0299 -0.3127  0.1334
 1236POPI    C119049   3.736   0.783   5.572 -0.1646 -0.1105 -0.0380
 1236POPI    C219050   3.379   0.963   5.577 -0.2088 -0.1984 -0.0149
 1236POPI    C319051   3.512   0.791   5.241  0.0036  0.2134 -0.1485
 1236POPI   PO419052   3.852   0.990   5.711  0.1979  0.1096 -0.1229
 1236POPI   GL119053   3.924   1.086   6.184  0.0725 -0.1176 -0.1946
 1236POPI   GL219054   3.826   1.402   6.146  0.0078 -0.0637 -0.0097
 1236POPI   C1A19055   3.927   1.033   6.572 -0.1258 -0.0642  0.2214
 1236POPI   D2A19056   4.082   0.752   6.962  0.0908  0.2029 -0.1899
 1236POPI   C3A19057   4.074   0.684   7.436 -0.0259  0.0684 -0.0750
 1236POPI   C4A19058   3.788   0.418   7.779 -0.0192 -0.2029  0.0358
 1236POPI   C1B19059   3.964   1.512   6.584  0.1347  0.0398  0.2714
 1236POPI   C2B19060   4.053   1.599   6.994 -0.1301 -0.2157 -0.4292
 1236POPI   C3B19061   4.132   1.608   7.325  0.1057  0.4226 -0.1455
 1236POPI   C4B19062   4.105   1.393   7.823 -0.0174  0.0702 -0.0832
 1237POPI    C119063  17.554   8.173   4.995  0.0946 -0.1551 -0.2492
 1237POPI    C219064  17.477   8.082   4.613 -0.1511 -0.2916 -0.1693
 1237POPI    C319065  17.321   8.413   4.775 -0.0044 -0.2063 -0.2009
 1237POPI   PO419066  17.452   7.941   5.264 -0.1780  0.0676  0.1566
 1237POPI   GL119067  17.577   7.840   5.588 -0.0073  0.0555  0.1781
 1237POPI   GL219068  17.428   7.671   5.812 -0.2490  0.1310 -0.2743
 1237POPI   C1A19069  17.999   8.047   5.859  0.0842 -0.0716  0.0654
 1237POPI   D2A19070  18.080   8.036   6.358 -0.0441 -0.1379 -0.2712
 1237POPI   C3A19071  17.831   7.818   6.756  0.1095 -0.0049 -0.0351
 1237POPI   C4A19072  17.850   7.606   7.116  0.1181 -0.1362 -0.3220
 1237POPI   C1B19073  17.212   7.703   6.121  0.0589  0.1608  0.6898
 1237POPI   C2B19074  16.995   7.937   6.418 -0.0477 -0.0053 -0.0643
 1237POPI   C3B19075  16.848   8.091   6.792  0.0642 -0.0340  0.2034
 1237POPI   C4B19076  17.031   8.143   7.175  0.1273  0.2773  0.0346
 1238POPI    C119077   0.902   9.514   5.226 -0.3247 -0.2109 -0.1567
 1238POPI    C219078   0.629   9.359   4.978 -0.1619 -0.0624 -0.4342
 1238POPI    C319079   0.926   9.583   4.832 -0.1127  0.1005 -0.0923
 1238POPI   PO419080   0.742   9.660   5.486 -0.0330  0.0269  0.0360
 1238POPI   GL119081   0.900   9.819   5.798 -0.1291 -0.0541 -0.0354
 1238POPI   GL219082   1.213   9.606   5.870  0.0639  0.3637  0.0104
 1238POPI   C1A19083   0.718   9.765   6.247 -0.0364  0.5636  0.2220
 1238POPI   D2A19084   0.755   9.702   6.682 -0.2656 -0.1427 -0.2565
 1238POPI   C3A19085   0.766   9.677   7.167  0.0180 -0.0437  0.0131
 1238POPI   C4A19086   0.707   9.719   7.580  0.0135  0.1502  0.0214
 1238POPI   C1B19087   1.163   9.427   6.231  0.1923  0.0076  0.0122
 1238POPI   C2B19088   1.176   9.420   6.650  0.1411 -0.0495  0.0865
 1238POPI   C3B19089   1.247   9.372   7.115 -0.0298 -0.1024  0.3875
 1238POPI   C4B19090   1.150   9.432   7.503  0.0164  0.1260 -0.1840
 1239POPI    C119091   9.355  13.776   5.941 -0.0442 -0.2832 -0.1195
 1239POPI    C219092   9.727  13.850   5.814 -0.0835  0.1100 -0.0161
 1239POPI    C319093   9.418  13.897   5.565 -0.0581 -0.3481 -0.1429
 1239POPI   PO419094   9.374  13.780   6.222 -0.4252  0.3034 -0.2188
 1239POPI   GL119095   9.309  13.412   6.496  0.3932  0.2551 -0.4607
 1239POPI   GL219096   8.995  13.523   6.574 -0.0342  0.0843  0.0724
 1239POPI   C1A19097   9.509  13.110   6.615  0.3678  0.0154 -0.0395
 1239POPI   D2A19098   9.739  13.059   6.935 -0.1585 -0.1341  0.1232
 1239POPI   C3A19099   9.731  12.721   7.291  0.0457  0.0570 -0.1063
 1239POPI   C4A19100   9.616  12.342   7.385 -0.1378  0.0209 -0.0579
 1239POPI   C1B19101   9.041  13.613   6.941  0.0051 -0.3818 -0.0314
 1239POPI   C2B19102   9.259  13.558   7.451 -0.0265  0.1902  0.2060
 1239POPI   C3B19103   9.388  13.455   7.877  0.1947  0.0167 -0.2307
 1239POPI   C4B19104   9.157  13.502   8.341 -0.1423  0.1521  0.2908
 1240POPI    C119105  12.616   4.296   5.192  0.0110 -0.2648  0.1881
 1240POPI    C219106  12.760   4.094   4.879  0.0270 -0.2705  0.1992
 1240POPI    C319107  12.372   4.190   4.894  0.0811 -0.0176  0.0400
 1240POPI   PO419108  12.680   4.198   5.460  0.1210 -0.0872  0.1071
 1240POPI   GL119109  12.501   4.367   5.816  0.0933 -0.2003 -0.0073
 1240POPI   GL219110  12.805   4.520   5.894  0.0201 -0.3868  0.0053
 1240POPI   C1A19111  12.523   4.243   6.224  0.1375 -0.2482  0.0256
 1240POPI   D2A19112  12.614   4.224   6.645  0.2035 -0.0337 -0.0887
 1240POPI   C3A19113  12.612   4.322   7.069  0.0641  0.3351 -0.1742
 1240POPI   C4A19114  12.603   4.323   7.541 -0.0269  0.1126 -0.0963
 1240POPI   C1B19115  12.573   4.750   6.346  0.1167 -0.3194  0.1468
 1240POPI   C2B19116  12.541   4.759   6.795  0.2342  0.0273  0.0565
 1240POPI   C3B19117  12.620   4.857   7.206 -0.2306  0.0336  0.2539
 1240POPI   C4B19118  12.592   4.842   7.607  0.3403  0.0472  0.0186
 1241POPI    C119119  12.560  13.549   5.380 -0.0528 -0.0910  0.0474
 1241POPI    C219120  12.235  13.450   5.169  0.0394  0.1297 -0.2036
 1241POPI    C319121  12.423  13.795   5.097  0.1493  0.1492  0.1549
 1241POPI   PO419122  12.543  13.572   5.627 -0.2092  0.0493  0.1293
 1241POPI   GL119123  12.697  13.455   6.046  0.1607 -0.1455  0.1456
 1241POPI   GL219124  12.477  13.242   6.039  0.0787  0.1428 -0.0110
 1241POPI   C1A19125  12.861  13.487   6.462  0.0340  0.1445 -0.2751
 1241POPI   D2A19126  12.816  13.792   6.846  0.0343  0.1623  0.0571
 1241POPI   C3A19127  13.059  13.789   7.093  0.2170 -0.0399 -0.0306
 1241POPI   C4A19128  13.351  13.580   7.316 -0.0778 -0.0333  0.1840
 1241POPI   C1B19129  12.295  13.116   6.388 -0.0294 -0.1288 -0.1205
 1241POPI   C2B19130  12.395  12.911   6.792  0.0562  0.1652  0.0024
 1241POPI   C3B19131  12.544  12.939   7.258  0.0843  0.1637  0.0371
 1241POPI   C4B19132  12.550  12.998   7.693 -0.0629 -0.1164  0.0147
 1242POPI    C119133  16.700  17.473   5.555  0.2352 -0.1865  0.0030
 1242POPI    C219134  16.763  17.863   5.616  0.1479 -0.1901  0.1172
 1242POPI    C319135  16.614  17.737   5.267  0.2571 -0.1299  0.0483
 1242POPI   PO419136  16.693  17.384   5.826  0.1889  0.1609  0.0210
 1242POPI   GL119137  16.553  17.711   6.097  0.4083 -0.0609 -0.2096
 1242POPI   GL219138  16.559  17.461   6.339  0.0805 -0.0603 -0.0498
 1242POPI   C1A19139  16.412  18.005   6.474  0.0338 -0.2550 -0.0601
 1242POPI   D2A19140  16.299  18.273   6.733  0.0977  0.0374  0.2674
 1242POPI   C3A19141  16.322  18.206   7.058  0.0919  0.2259  0.0257
 1242POPI   C4A19142  16.313  18.377   7.354 -0.0944 -0.0098  0.1454
 1242POPI   C1B19143  16.685  17.523   6.727  0.2425  0.2531  0.3559
 1242POPI   C2B19144  16.785  17.546   7.131  0.1065 -0.1487  0.1563
 1242POPI   C3B19145  16.754  17.552   7.545  0.0684  0.0207  0.2486
 1242POPI   C4B19146  16.893  17.390   7.929  0.0651  0.1136  0.1411
 1243POPI    C119147   5.553  16.358   5.215 -0.0649 -0.0972 -0.0093
 1243POPI    C219148   5.194  16.528   5.165  0.0407  0.1622  0.0988
 1243POPI    C319149   5.423  16.447   4.847 -0.1027  0.0167  0.0312
 1243POPI   PO419150   5.645  16.501   5.485  0.2011  0.0368  0.1733
 1243POPI   GL119151   5.781  16.313   5.821 -0.1641  0.0585 -0.3705
 1243POPI   GL219152   5.537  16.314   6.012  0.0893 -0.0735 -0.0218
 1243POPI   C1A19153   6.112  16.332   6.089  0.2474  0.1117 -0.1593
 1243POPI   D2A19154   6.255  16.303   6.538 -0.0399 -0.0137  0.1547
 1243POPI   C3A19155   6.157  16.379   6.943  0.0993 -0.0555  0.0980
 1243POPI   C4A19156   6.171  16.339   7.387 -0.0550  0.3429  0.0891
 1243POPI   C1B19157   5.692  16.387   6.405 -0.0383  0.1225  0.0732
 1243POPI   C2B19158   5.687  16.315   6.787  0.2392  0.1542 -0.0927
 1243POPI   C3B19159   5.654  16.342   7.280 -0.0115  0.0503 -0.3422
 1243POPI   C4B19160   5.778  16.425   7.646  0.0356 -0.4554 -0.1766
 1244POPI    C119161  11.137  16.235   5.339 -0.0656  0.0567  0.0694
 1244POPI    C219162  11.502  16.321   5.200 -0.0996  0.2855  0.1175
 1244POPI    C319163  11.193  16.294   4.948 -0.0505  0.0899  0.0765
 1244POPI   PO419164  11.142  16.034   5.533 -0.1141 -0.0524  0.0579
 1244POPI   GL119165  11.239  16.048   6.063 -0.1781 -0.1358 -0.2074
 1244POPI   GL219166  11.084  16.316   6.075 -0.1868 -0.0801  0.2572
 1244POPI   C1A19167  11.164  15.683   6.440  0.1116  0.2093 -0.0082
 1244POPI   D2A19168  11.053  15.700   6.842  0.2432  0.0355  0.1512
 1244POPI   C3A19169  11.014  15.300   7.106 -0.0818  0.0064 -0.1233
 1244POPI   C4A19170  11.138  15.258   7.528 -0.0417 -0.0131 -0.3364
 1244POPI   C1B19171  11.137  16.223   6.537 -0.0538  0.1888  0.2878
 1244POPI   C2B19172  11.079  16.247   6.926  0.0979  0.1610  0.0184
 1244POPI   C3B19173  11.240  16.319   7.387  0.1816  0.2908  0.1127
 1244POPI   C4B19174  11.297  16.333   7.863  0.0722 -0.1750 -0.0602
 1245POPI    C119175   8.419  11.508   6.114  0.0765 -0.0200  0.0093
 1245POPI    C219176   8.223  11.848   6.034  0.0839 -0.0336 -0.0679
 1245POPI    C319177   8.232  11.554   5.763  0.0789 -0.0948 -0.0020
 1245POPI   PO419178   8.616  11.705   6.292 -0.0201 -0.3060  0.1556
 1245POPI   GL119179   8.639  12.001   6.644  0.1023  0.3845 -0.2332
 1245POPI   GL219180   8.407  12.132   6.407 -0.0021 -0.1255  0.2238
 1245POPI   C1A19181   8.695  12.526   6.853 -0.0721 -0.2608 -0.0312
 1245POPI   D2A19182   8.758  12.828   7.118 -0.0082  0.2015 -0.1602
 1245POPI   C3A19183   8.807  12.699   7.585  0.1189  0.0852 -0.0438
 1245POPI   C4A19184   8.939  12.641   7.989  0.0692 -0.2732  0.1632
 1245POPI   C1B19185   8.237  11.876   6.838  0.0083 -0.2121  0.0844
 1245POPI   C2B19186   8.438  11.927   7.149 -0.1156  0.0235 -0.3136
 1245POPI   C3B19187   8.862  11.817   7.222  0.2467 -0.1016  0.0722
 1245POPI   C4B19188   9.104  11.674   7.399 -0.0601  0.1714  0.1272
 1246POPI    C119189   7.412  12.140   5.623 -0.2539  0.0270 -0.0062
 1246POPI    C219190   7.611  11.914   5.360  0.1743  0.2326  0.1316
 1246POPI    C319191   7.480  12.276   5.253 -0.3511  0.0040 -0.0328
 1246POPI   PO419192   7.443  12.142   5.879 -0.2932  0.0349  0.1845
 1246POPI   GL119193   7.219  12.298   6.200  0.4512 -0.0571  0.0697
 1246POPI   GL219194   7.021  12.044   6.399  0.2904  0.3650  0.1086
 1246POPI   C1A19195   7.357  12.352   6.589  0.1963  0.0186 -0.2588
 1246POPI   D2A19196   7.385  12.379   7.046 -0.0815  0.0299  0.1285
 1246POPI   C3A19197   7.465  12.315   7.445 -0.0932 -0.0202 -0.0906
 1246POPI   C4A19198   7.220  12.326   7.803  0.0186  0.0516  0.0199
 1246POPI   C1B19199   7.025  11.940   6.847 -0.2289 -0.2701 -0.0479
 1246POPI   C2B19200   7.045  12.042   7.274 -0.0541  0.0076 -0.2553
 1246POPI   C3B19201   6.944  11.957   7.683  0.1749 -0.0039  0.0327
 1246POPI   C4B19202   6.865  12.067   8.143  0.1850 -0.0039 -0.1200
 1247DPPI    C119203  11.315  10.626   5.635  0.0195  0.0814 -0.2489
 1247DPPI    C219204  11.486  10.269   5.577 -0.1365 -0.0586  0.1231
 1247DPPI    C319205  11.185  10.388   5.342  0.0005 -0.1147 -0.0833
 1247DPPI   PO419206  11.199  10.646   5.919  0.0671 -0.1077 -0.0152
 1247DPPI   GL119207  11.402  10.271   6.028  0.1089 -0.0142 -0.2022
 1247DPPI   GL219208  11.679  10.482   5.980 -0.1444  0.3768  0.2008
 1247DPPI   C1A19209  11.459  10.112   6.380  0.1680 -0.3072 -0.2178
 1247DPPI   C2A19210  11.612  10.254   6.788  0.0332  0.1083 -0.0195
 1247DPPI   C3A19211  11.732  10.254   7.267 -0.0812  0.0715  0.0495
 1247DPPI   C4A19212  11.710  10.488   7.580  0.0218  0.1016  0.0724
 1247DPPI   C1B19213  11.582  10.836   6.367 -0.0001 -0.1772  0.0113
 1247DPPI   C2B19214  11.590  10.780   6.782  0.0564 -0.1313 -0.0998
 1247DPPI   C3B19215  11.561  10.867   7.318 -0.1258  0.0366 -0.2579
 1247DPPI   C4B19216  11.286  10.823   7.734  0.1106 -0.2670 -0.3643
 1248DPPI    C119217   9.973  17.093   5.474 -0.0281  0.0756  0.0721
 1248DPPI    C219218  10.270  17.168   5.217 -0.0932  0.1200  0.0095
 1248DPPI    C319219  10.028  16.855   5.157 -0.0920  0.1150  0.0313
 1248DPPI   PO419220   9.950  17.297   5.542  0.2186  0.0372 -0.2781
 1248DPPI   GL119221   9.872  17.284   5.960  0.0573 -0.0843  0.1787
 1248DPPI   GL219222   9.940  17.669   5.994  0.1050  0.1373  0.2235
 1248DPPI   C1A19223   9.797  17.149   6.446  0.2179  0.1506  0.0303
 1248DPPI   C2A19224   9.864  17.075   6.849  0.1387  0.1832  0.0985
 1248DPPI   C3A19225   9.975  17.040   7.236 -0.1187 -0.4209 -0.0304
 1248DPPI   C4A19226  10.083  17.196   7.612 -0.0083  0.0066 -0.0115
 1248DPPI   C1B19227   9.877  17.787   6.404 -0.0612 -0.1602  0.0149
 1248DPPI   C2B19228   9.882  17.924   6.824  0.0516 -0.1614  0.1914
 1248DPPI   C3B19229   9.619  17.921   7.115  0.2108  0.2505  0.0454
 1248DPPI   C4B19230   9.529  17.947   7.491 -0.1595  0.2038 -0.2991
 1249DPPI    C119231   8.710  13.115   6.121 -0.0703  0.1447  0.0532
 1249DPPI    C219232   8.583  12.857   5.843 -0.1776  0.1916  0.0583
 1249DPPI    C319233   8.786  13.185   5.734 -0.1486  0.1683  0.0419
 1249DPPI   PO419234   8.894  12.983   6.295  0.1484 -0.4091  0.1223
 1249DPPI   GL119235   8.683  13.067   6.676  0.2479 -0.1244 -0.0168
 1249DPPI   GL219236   8.528  13.344   6.695  0.0621  0.0346 -0.0091
 1249DPPI   C1A19237   9.148  13.153   7.027 -0.0645  0.0810  0.0416
 1249DPPI   C2A19238   9.338  13.044   7.383  0.0329 -0.0606  0.0417
 1249DPPI   C3A19239   9.651  13.078   7.689 -0.1134  0.2757 -0.0457
 1249DPPI   C4A19240  10.109  13.072   7.803  0.2484  0.1410  0.0082
 1249DPPI   C1B19241   8.555  13.395   7.204 -0.0736  0.0012 -0.0468
 1249DPPI   C2B19242   8.849  13.193   7.410 -0.1473 -0.1955  0.0271
 1249DPPI   C3B19243   9.060  13.104   7.800 -0.0305 -0.1807 -0.0139
 1249DPPI   C4B19244   8.856  13.139   8.162 -0.0157 -0.0761  0.0623
 1250DPPI    C119245   9.962   9.753   5.655  0.0941  0.0321 -0.0996
 1250DPPI    C219246   9.798  10.113   5.713 -0.0190 -0.0308 -0.0265
 1250DPPI    C319247  10.141  10.080   5.510  0.0888  0.1369  0.1257
 1250DPPI   PO419248   9.991   9.644   5.824 -0.0771 -0.1447 -0.0485
 1250DPPI   GL119249  10.202   9.568   6.179 -0.2457 -0.0145  0.0713
 1250DPPI   GL219250   9.907   9.436   6.293 -0.4945  0.0775  0.2125
 1250DPPI   C1A19251  10.317   9.439   6.644  0.0256  0.2166 -0.3165
 1250DPPI   C2A19252  10.468   9.293   7.101  0.1572 -0.1645  0.0610
 1250DPPI   C3A19253  10.597   9.357   7.540 -0.0359 -0.0356  0.0874
 1250DPPI   C4A19254  10.744   9.811   7.647  0.0012  0.0571 -0.2514
 1250DPPI   C1B19255   9.926   9.077   6.560  0.2885  0.0726  0.3459
 1250DPPI   C2B19256   9.959   9.059   6.911 -0.0758 -0.1711  0.1641
 1250DPPI   C3B19257   9.991   8.975   7.368 -0.3108 -0.1999 -0.1316
 1250DPPI   C4B19258   9.920   8.848   7.839 -0.2876  0.2844  0.0513
 1251DPPI    C119259  17.865  10.427   5.305 -0.0306  0.0665  0.0039
 1251DPPI    C219260  17.550  10.617   5.147 -0.0319 -0.0669 -0.1569
 1251DPPI    C319261  17.889  10.581   4.936  0.1194  0.1437  0.0449
 1251DPPI   PO419262  17.954  10.521   5.581  0.4241 -0.3266 -0.1354
 1251DPPI   GL119263  17.953  10.370   5.988 -0.1371 -0.0168  0.0705
 1251DPPI   GL219264  17.622  10.540   6.168 -0.1461 -0.1611  0.0957
 1251DPPI   C1A19265  17.899  10.215   6.460 -0.0796  0.0594 -0.0937
 1251DPPI   C2A19266  17.986  10.217   6.818 -0.0249  0.2843  0.0934
 1251DPPI   C3A19267  17.900  10.206   7.188 -0.1519 -0.0624  0.0115
 1251DPPI   C4A19268  17.767  10.094   7.501  0.0285  0.1457 -0.0528
 1251DPPI   C1B19269  17.511  10.559   6.576  0.0434 -0.2746 -0.0382
 1251DPPI   C2B19270  17.555  10.444   6.896 -0.1536 -0.1517 -0.0349
 1251DPPI   C3B19271  17.389  10.459   7.275  0.1778  0.1087  0.2380
 1251DPPI   C4B19272  17.309  10.536   7.698  0.4260 -0.0576  0.0136
 1252DPPI    C119273  13.815  11.295   5.190 -0.2706 -0.0964 -0.0285
 1252DPPI    C219274  13.569  11.430   4.906 -0.0184 -0.0419 -0.2243
 1252DPPI    C319275  13.874  11.191   4.809  0.1328  0.0628 -0.0138
 1252DPPI   PO419276  13.693  11.154   5.365 -0.0117 -0.3172 -0.0975
 1252DPPI   GL119277  13.491  10.934   5.691 -0.3014  0.2943  0.1479
 1252DPPI   GL219278  13.313  10.814   5.804 -0.1162 -0.3038  0.0312
 1252DPPI   C1A19279  13.786  10.646   5.959 -0.0043 -0.0850  0.0705
 1252DPPI   C2A19280  14.103  10.804   6.225  0.0618 -0.1538 -0.2170
 1252DPPI   C3A19281  14.367  10.650   6.491 -0.0625  0.2143 -0.0700
 1252DPPI   C4A19282  14.386  10.306   6.712 -0.4076  0.2180  0.0216
 1252DPPI   C1B19283  13.337  10.733   6.210  0.0529 -0.3165 -0.1053
 1252DPPI   C2B19284  13.351  10.735   6.646  0.0113  0.0128 -0.0715
 1252DPPI   C3B19285  13.333  10.816   7.072 -0.2037  0.1368  0.0951
 1252DPPI   C4B19286  13.407  10.839   7.530 -0.0221 -0.1009  0.0295
 1253DPPI    C119287   8.442  14.834   5.326 -0.0254 -0.0571 -0.0501
 1253DPPI    C219288   8.195  14.520   5.342  0.0913 -0.1432  0.0938
 1253DPPI    C319289   8.309  14.667   4.988 -0.3452  0.0419  0.0232
 1253DPPI   PO419290   8.379  14.967   5.580 -0.2954 -0.2846  0.0475
 1253DPPI   GL119291   8.341  14.889   6.024 -0.1415  0.0225  0.0520
 1253DPPI   GL219292   8.552  14.901   6.161  0.2613  0.1152 -0.0174
 1253DPPI   C1A19293   8.011  14.913   6.260  0.2827 -0.2350 -0.0458
 1253DPPI   C2A19294   7.842  14.920   6.638 -0.0880 -0.0397  0.1598
 1253DPPI   C3A19295   7.768  15.035   6.987 -0.3314 -0.1302 -0.0943
 1253DPPI   C4A19296   7.692  15.065   7.341 -0.1832  0.0500  0.3700
 1253DPPI   C1B19297   8.369  14.625   6.425 -0.0611  0.3561 -0.1791
 1253DPPI   C2B19298   8.407  14.328   6.812 -0.0883 -0.0796  0.1603
 1253DPPI   C3B19299   8.437  14.360   7.230  0.0418 -0.1996  0.0743
 1253DPPI   C4B19300   8.291  14.556   7.629 -0.0301 -0.3218  0.3130
 1254DPPI    C119301   9.137  17.247   5.565  0.0715 -0.1800 -0.0119
 1254DPPI    C219302   8.832  17.373   5.339  0.0070 -0.2752  0.0211
 1254DPPI    C319303   9.181  17.569   5.332  0.0326 -0.3259 -0.2233
 1254DPPI   PO419304   9.129  17.255   5.787 -0.0539  0.0522  0.1379
 1254DPPI   GL119305   9.001  17.441   6.201  0.0376 -0.1007 -0.1632
 1254DPPI   GL219306   9.303  17.456   6.220 -0.0194 -0.2737  0.0604
 1254DPPI   C1A19307   8.890  17.600   6.633  0.0297 -0.0161 -0.0527
 1254DPPI   C2A19308   9.102  17.677   6.978 -0.0752 -0.0333 -0.3236
 1254DPPI   C3A19309   9.066  17.701   7.373 -0.2267  0.1954  0.2649
 1254DPPI   C4A19310   8.849  17.502   7.751 -0.2765 -0.1885 -0.0931
 1254DPPI   C1B19311   9.442  17.465   6.573 -0.2984 -0.0190  0.1084
 1254DPPI   C2B19312   9.576  17.465   6.891  0.1410  0.3274 -0.2291
 1254DPPI   C3B19313   9.570  17.408   7.286  0.3284 -0.2103 -0.0001
 1254DPPI   C4B19314   9.417  17.432   7.629 -0.0654  0.1893 -0.0126
 1255DPPI    C119315  11.393  12.285   5.098  0.0596 -0.1344 -0.0009
 1255DPPI    C219316  11.498  11.899   5.098  0.2567 -0.0821 -0.1050
 1255DPPI    C319317  11.281  12.047   4.796 -0.0473 -0.1702  0.0667
 1255DPPI   PO419318  11.666  12.450   5.328  0.1037  0.0232  0.0716
 1255DPPI   GL119319  11.620  12.375   5.728  0.0010  0.3508 -0.0352
 1255DPPI   GL219320  11.502  12.118   6.052  0.0613 -0.1467 -0.0925
 1255DPPI   C1A19321  11.817  12.500   6.164  0.1761 -0.1771 -0.0474
 1255DPPI   C2A19322  11.594  12.453   6.544  0.0698  0.0063 -0.2445
 1255DPPI   C3A19323  11.631  12.422   6.987  0.1802  0.1133  0.0936
 1255DPPI   C4A19324  11.739  12.471   7.414  0.3288  0.2178  0.2133
 1255DPPI   C1B19325  11.549  11.867   6.385  0.0219  0.3170  0.1013
 1255DPPI   C2B19326  11.652  11.853   6.842  0.1033 -0.0978 -0.1937
 1255DPPI   C3B19327  11.581  12.010   7.274  0.0495 -0.0866 -0.1066
 1255DPPI   C4B19328  11.611  11.685   7.523 -0.1685 -0.2192  0.0997
 1256DPPI    C119329   6.657  11.609   5.557  0.0608  0.0767 -0.1566
 1256DPPI    C219330   6.374  11.408   5.358  0.0710 -0.1589  0.0605
 1256DPPI    C319331   6.738  11.453   5.198 -0.0004 -0.1103 -0.0906
 1256DPPI   PO419332   6.525  11.636   5.823 -0.0850 -0.1328  0.2437
 1256DPPI   GL119333   6.601  11.632   6.224  0.0241  0.1383  0.1660
 1256DPPI   GL219334   6.220  11.489   6.146  0.0048 -0.0649  0.1536
 1256DPPI   C1A19335   6.685  11.503   6.720  0.1363  0.1714 -0.1241
 1256DPPI   C2A19336   6.870  11.541   7.085 -0.1258  0.0590  0.2812
 1256DPPI   C3A19337   7.052  11.427   7.496  0.3248 -0.1138  0.0448
 1256DPPI   C4A19338   7.489  11.376   7.695  0.1663 -0.0341  0.0649
 1256DPPI   C1B19339   6.200  11.529   6.615  0.4216 -0.0476 -0.0419
 1256DPPI   C2B19340   6.217  11.363   7.069 -0.1335 -0.2458  0.0316
 1256DPPI   C3B19341   6.258  11.283   7.498  0.1292 -0.1030  0.2064
 1256DPPI   C4B19342   6.163  11.112   8.043  0.0113 -0.2897  0.0514
 1257DPPI    C119343   8.007  16.764   5.944  0.1392 -0.1764 -0.1005
 1257DPPI    C219344   8.056  16.459   6.198 -0.0481  0.0314  0.1919
 1257DPPI    C319345   7.744  16.463   5.948  0.0027 -0.0563  0.1262
 1257DPPI   PO419346   8.266  16.728   5.810 -0.1304  0.0640  0.0693
 1257DPPI   GL119347   8.634  16.751   6.092  0.0925 -0.0931 -0.1621
 1257DPPI   GL219348   8.906  16.935   6.193  0.0349  0.1758 -0.1001
 1257DPPI   C1A19349   8.487  16.745   6.555 -0.2147 -0.1338 -0.0181
 1257DPPI   C2A19350   8.476  16.574   6.955  0.2498 -0.0168 -0.0522
 1257DPPI   C3A19351   8.379  16.180   7.151 -0.1932 -0.1634  0.2179
 1257DPPI   C4A19352   8.516  16.176   7.421  0.1886 -0.0183 -0.1012
 1257DPPI   C1B19353   8.955  17.051   6.636 -0.4298  0.1228  0.1035
 1257DPPI   C2B19354   8.969  17.092   7.047 -0.3918 -0.0484 -0.2567
 1257DPPI   C3B19355   8.912  17.096   7.535  0.1027 -0.0040  0.0766
 1257DPPI   C4B19356   9.146  17.108   7.879  0.2104  0.0183 -0.0739
 1258DPPI    C119357  14.285  16.777   5.387 -0.0135 -0.0418 -0.0716
 1258DPPI    C219358  14.048  16.988   5.144  0.0973  0.1604 -0.0062
 1258DPPI    C319359  14.371  16.804   4.997 -0.0877 -0.1016 -0.0925
 1258DPPI   PO419360  14.253  16.992   5.664 -0.3403  0.0271  0.0022
 1258DPPI   GL119361  14.036  16.887   5.999  0.1228 -0.0684 -0.1927
 1258DPPI   GL219362  13.942  17.233   5.946 -0.0775  0.0610  0.2553
 1258DPPI   C1A19363  14.143  16.932   6.472  0.1785 -0.0345 -0.1733
 1258DPPI   C2A19364  14.221  16.849   6.967 -0.1951  0.0147 -0.0559
 1258DPPI   C3A19365  14.141  16.952   7.387  0.1899  0.1214 -0.1855
 1258DPPI   C4A19366  14.142  16.996   7.875 -0.4328 -0.3283 -0.1483
 1258DPPI   C1B19367  14.198  17.368   6.197  0.2478 -0.0770 -0.2066
 1258DPPI   C2B19368  14.387  17.296   6.653  0.2121 -0.2137 -0.3036
 1258DPPI   C3B19369  14.533  17.272   7.078  0.1116  0.1713  0.2430
 1258DPPI   C4B19370  14.613  17.235   7.524 -0.0293  0.2224  0.0536
 1259DPPI    C119371   3.262   7.865   5.202 -0.0147  0.0315  0.0081
 1259DPPI    C219372   3.354   7.648   5.526 -0.0024 -0.2341 -0.1702
 1259DPPI    C319373   3.062   7.527   5.281 -0.2462  0.1468 -0.0761
 1259DPPI   PO419374   3.230   8.066   5.291  0.0606 -0.0593 -0.1163
 1259DPPI   GL119375   3.297   8.146   5.757  0.2837  0.1568  0.0771
 1259DPPI   GL219376   3.007   8.227   5.814 -0.0993  0.0395  0.0394
 1259DPPI   C1A19377   3.287   7.846   6.039 -0.0051  0.1960 -0.0265
 1259DPPI   C2A19378   3.333   7.912   6.464  0.1273 -0.1029  0.1173
 1259DPPI   C3A19379   3.344   7.847   6.944  0.0815  0.0521  0.0341
 1259DPPI   C4A19380   3.327   7.921   7.455  0.0108 -0.0498  0.0070
 1259DPPI   C1B19381   3.025   8.390   6.274 -0.1789  0.0132  0.0199
 1259DPPI   C2B19382   3.071   8.292   6.565 -0.0525  0.0556 -0.0295
 1259DPPI   C3B19383   3.231   8.640   6.861  0.0607 -0.0460 -0.1246
 1259DPPI   C4B19384   3.117   8.980   7.127  0.2095 -0.0457 -0.0382
 1260DPPI    C119385   6.571  15.036   5.741 -0.0790 -0.0440 -0.2883
 1260DPPI    C219386   6.922  14.854   5.680  0.0220  0.0985 -0.1403
 1260DPPI    C319387   6.772  15.097   5.400 -0.1392 -0.2485 -0.3618
 1260DPPI   PO419388   6.526  15.066   5.966 -0.1283  0.2297 -0.0173
 1260DPPI   GL119389   6.294  15.010   6.284  0.3371 -0.2206  0.2592
 1260DPPI   GL219390   6.037  14.707   6.073  0.1424 -0.1073 -0.0862
 1260DPPI   C1A19391   6.209  14.904   6.617  0.0665  0.1387 -0.1615
 1260DPPI   C2A19392   6.171  14.911   7.073  0.0095  0.0485 -0.0060
 1260DPPI   C3A19393   6.146  15.055   7.496  0.3087  0.0181  0.2486
 1260DPPI   C4A19394   6.404  15.156   7.863  0.0540  0.1774  0.2890
 1260DPPI   C1B19395   5.921  14.480   6.472  0.2324 -0.0234 -0.1270
 1260DPPI   C2B19396   5.857  14.536   6.893  0.2042 -0.0865  0.0125
 1260DPPI   C3B19397   5.867  14.615   7.312  0.0128  0.0810 -0.3113
 1260DPPI   C4B19398   5.804  14.709   7.728 -0.1904  0.0802 -0.3163
 1261DPPI    C119399  10.947  13.894   5.599  0.2281  0.2646  0.0419
 1261DPPI    C219400  11.043  13.669   5.283 -0.0787  0.0676  0.0850
 1261DPPI    C319401  10.948  14.055   5.233 -0.0001  0.0707 -0.0462
 1261DPPI   PO419402  11.029  13.746   5.816  0.2482  0.2484  0.2118
 1261DPPI   GL119403  10.947  13.336   6.137 -0.1860 -0.0760  0.0965
 1261DPPI   GL219404  10.634  13.519   6.230  0.0602 -0.0587  0.1068
 1261DPPI   C1A19405  10.954  13.465   6.630 -0.3597  0.2320  0.0389
 1261DPPI   C2A19406  10.816  13.522   7.099 -0.2061  0.0989 -0.1591
 1261DPPI   C3A19407  10.828  13.502   7.531 -0.0223  0.0751 -0.0175
 1261DPPI   C4A19408  10.588  13.333   7.865  0.0058  0.0181  0.1392
 1261DPPI   C1B19409  10.396  13.528   6.586  0.1104  0.1340  0.0480
 1261DPPI   C2B19410  10.161  13.560   6.983 -0.0672  0.2197 -0.0249
 1261DPPI   C3B19411  10.339  13.512   7.211 -0.0949  0.0647  0.0861
 1261DPPI   C4B19412  10.298  13.686   7.571  0.0890  0.3758 -0.0466
 1262DPPI    C119413   7.458   3.498   5.461  0.0405 -0.1958  0.2872
 1262DPPI    C219414   7.320   3.231   5.196  0.2217 -0.1693  0.1640
 1262DPPI    C319415   7.714   3.273   5.251  0.1944  0.0610  0.1948
 1262DPPI   PO419416   7.391   3.385   5.807 -0.2629  0.0291  0.2575
 1262DPPI   GL119417   7.477   3.468   6.189 -0.1246  0.0670 -0.0410
 1262DPPI   GL219418   7.810   3.572   6.278 -0.1327 -0.0524  0.0908
 1262DPPI   C1A19419   7.390   3.478   6.632 -0.0216  0.1996 -0.2412
 1262DPPI   C2A19420   7.176   3.463   7.063 -0.0945  0.3271 -0.0249
 1262DPPI   C3A19421   7.095   3.397   7.421 -0.0930  0.1963 -0.0071
 1262DPPI   C4A19422   7.017   3.409   7.733  0.0859  0.2767  0.4245
 1262DPPI   C1B19423   7.544   3.934   6.482  0.2710  0.2156 -0.2181
 1262DPPI   C2B19424   7.420   3.912   6.881  0.3716  0.2139  0.0897
 1262DPPI   C3B19425   7.248   3.909   7.318 -0.4642  0.2289 -0.1943
 1262DPPI   C4B19426   7.246   4.064   7.762  0.2301  0.3662 -0.0508
 1263DPPI    C119427  15.148  11.855   5.446 -0.0122 -0.1442  0.0700
 1263DPPI    C219428  14.845  12.074   5.589  0.0035 -0.1173  0.0619
 1263DPPI    C319429  14.967  12.124   5.212 -0.2678 -0.4336 -0.0723
 1263DPPI   PO419430  15.190  11.776   5.710 -0.3590  0.1463  0.0499
 1263DPPI   GL119431  15.054  11.793   6.080  0.0562  0.0089 -0.2087
 1263DPPI   GL219432  14.851  11.623   5.991  0.1211 -0.5258 -0.2116
 1263DPPI   C1A19433  15.287  11.782   6.378 -0.0523  0.0257 -0.2912
 1263DPPI   C2A19434  15.193  11.691   6.811  0.0717  0.2427  0.0351
 1263DPPI   C3A19435  15.141  11.794   7.280  0.3304 -0.1717 -0.3382
 1263DPPI   C4A19436  15.068  11.848   7.734  0.1534 -0.0264 -0.2386
 1263DPPI   C1B19437  14.700  11.557   6.425 -0.0631  0.0574 -0.0789
 1263DPPI   C2B19438  14.641  11.502   6.934 -0.1417 -0.2243  0.0698
 1263DPPI   C3B19439  14.657  11.633   7.365  0.0326  0.0521  0.1846
 1263DPPI   C4B19440  14.592  11.626   7.678 -0.3248  0.0763 -0.1644
 1264DPPI    C119441  13.300  16.063   5.446  0.1360  0.1728 -0.0692
 1264DPPI    C219442  13.681  16.112   5.556  0.1470  0.1597 -0.1020
 1264DPPI    C319443  13.580  15.811   5.312  0.0891  0.0597  0.0442
 1264DPPI   PO419444  13.154  16.072   5.638 -0.3111 -0.0971 -0.2087
 1264DPPI   GL119445  12.916  15.999   6.110 -0.0120  0.2496  0.1149
 1264DPPI   GL219446  12.858  16.369   6.215 -0.3870 -0.1477 -0.1888
 1264DPPI   C1A19447  13.027  15.915   6.615 -0.2067  0.0476  0.0549
 1264DPPI   C2A19448  13.042  15.945   7.058  0.1147 -0.0942  0.2783
 1264DPPI   C3A19449  12.953  15.765   7.478  0.0086 -0.1256  0.1221
 1264DPPI   C4A19450  12.898  15.769   7.978 -0.0520 -0.1685  0.2168
 1264DPPI   C1B19451  12.985  16.406   6.627  0.3385 -0.1022 -0.3081
 1264DPPI   C2B19452  12.915  16.397   7.075  0.2158 -0.0200 -0.0254
 1264DPPI   C3B19453  13.078  16.320   7.464  0.1938 -0.1345  0.3275
 1264DPPI   C4B19454  13.245  16.052   7.786 -0.0205 -0.1060 -0.0033
 1265DPPI    C119455   8.570  14.281   6.094  0.0286  0.0132  0.1462
 1265DPPI    C219456   8.216  14.428   5.983  0.0882  0.2493  0.2609
 1265DPPI    C319457   8.531  14.461   5.739  0.0602  0.1492  0.2107
 1265DPPI   PO419458   8.484  14.011   6.102 -0.0901 -0.1012  0.1528
 1265DPPI   GL119459   8.288  13.913   6.489 -0.3272  0.3108  0.0896
 1265DPPI   GL219460   8.605  13.839   6.558  0.0902  0.1768  0.2557
 1265DPPI   C1A19461   8.002  14.014   6.884 -0.0410  0.2151 -0.0208
 1265DPPI   C2A19462   7.944  14.089   7.290 -0.0010  0.0864  0.1563
 1265DPPI   C3A19463   7.952  14.084   7.600  0.0142  0.0582 -0.1486
 1265DPPI   C4A19464   7.949  14.372   7.909  0.0292 -0.0018 -0.1966
 1265DPPI   C1B19465   8.519  13.800   6.931 -0.2245 -0.4408  0.2344
 1265DPPI   C2B19466   8.399  13.865   7.277  0.0906 -0.0175 -0.0139
 1265DPPI   C3B19467   8.480  14.071   7.742 -0.1362  0.3160  0.0028
 1265DPPI   C4B19468   8.369  14.139   8.187  0.3938 -0.0322 -0.0897
 1266DPPI    C119469   2.864  17.341   5.425 -0.0876  0.0950  0.0465
 1266DPPI    C219470   3.135  17.532   5.201 -0.2611  0.2183 -0.0608
 1266DPPI    C319471   2.803  17.385   5.032 -0.1685 -0.1097  0.0346
 1266DPPI   PO419472   3.043  17.152   5.562 -0.2744  0.0991  0.0528
 1266DPPI   GL119473   3.012  17.230   5.949  0.1020 -0.0546  0.0588
 1266DPPI   GL219474   3.174  17.078   6.095 -0.0158  0.0507  0.1440
 1266DPPI   C1A19475   2.874  16.929   6.441 -0.1381 -0.1838 -0.0836
 1266DPPI   C2A19476   2.906  16.960   6.797  0.0357 -0.1165  0.2063
 1266DPPI   C3A19477   2.874  16.816   7.257 -0.1921 -0.1078 -0.4116
 1266DPPI   C4A19478   2.805  16.846   7.675  0.5053  0.0668  0.1401
 1266DPPI   C1B19479   3.402  17.123   6.492  0.0270  0.0705 -0.0979
 1266DPPI   C2B19480   3.406  17.055   6.868  0.1843 -0.0726  0.3738
 1266DPPI   C3B19481   3.378  16.871   7.321  0.2366  0.0778 -0.1420
 1266DPPI   C4B19482   3.480  16.892   7.783  0.0065 -0.1293  0.2080
 1267PYPI    C119483  13.841   5.124   5.425  0.0548  0.0627  0.1251
 1267PYPI    C219484  13.556   4.928   5.224  0.1765 -0.1269  0.1349
 1267PYPI    C319485  13.655   5.300   5.117  0.2617 -0.2366 -0.1788
 1267PYPI   PO419486  13.728   5.083   5.675 -0.0393  0.2110  0.2130
 1267PYPI   GL119487  13.767   4.867   5.973 -0.0678  0.0986  0.0599
 1267PYPI   GL219488  13.945   5.125   6.166  0.0273  0.1432 -0.2755
 1267PYPI   C1A19489  13.671   4.772   6.404 -0.1213 -0.0832  0.0098
 1267PYPI   C2A19490  13.822   5.083   6.721  0.3444 -0.0967  0.1547
 1267PYPI   D3A19491  14.216   5.321   6.806 -0.1707  0.0015 -0.0533
 1267PYPI   C4A19492  14.421   5.355   6.463 -0.2764 -0.2032  0.2977
 1267PYPI   C1B19493  13.895   5.478   6.311  0.2011  0.0627 -0.0874
 1267PYPI   C2B19494  13.768   5.642   6.790 -0.0739  0.0644 -0.0703
 1267PYPI   C3B19495  13.952   5.578   7.191 -0.0896  0.2827  0.1226
 1267PYPI   C4B19496  13.926   5.506   7.550 -0.0822 -0.2270 -0.3398
 1268PYPI    C119497   8.121  17.696   5.712 -0.0543  0.1318  0.1362
 1268PYPI    C219498   7.740  17.688   5.588  0.0004  0.1592 -0.0362
 1268PYPI    C319499   7.961  18.017   5.534  0.0876  0.0979 -0.0554
 1268PYPI   PO419500   8.056  17.529   5.936 -0.0416  0.0527 -0.0199
 1268PYPI   GL119501   8.186  17.599   6.307 -0.1112 -0.1795  0.1937
 1268PYPI   GL219502   7.853  17.686   6.410  0.0649  0.1282 -0.0293
 1268PYPI   C1A19503   8.445  17.322   6.481  0.0672  0.1334 -0.2460
 1268PYPI   C2A19504   8.494  17.149   6.924  0.0557  0.1231  0.2051
 1268PYPI   D3A19505   8.489  16.969   7.296  0.0301  0.0044 -0.0717
 1268PYPI   C4A19506   8.425  17.266   7.711  0.3312  0.1488 -0.0252
 1268PYPI   C1B19507   8.003  17.501   6.771 -0.1910  0.0929 -0.1633
 1268PYPI   C2B19508   8.111  17.469   7.166 -0.0376 -0.2621  0.1001
 1268PYPI   C3B19509   7.863  17.438   7.478  0.1512 -0.2060  0.2955
 1268PYPI   C4B19510   7.964  17.267   7.934  0.1455  0.1698 -0.0427
 1269PYPI    C119511  12.733   2.651   5.273  0.0937 -0.3660 -0.0772
 1269PYPI    C219512  13.014   2.503   5.516  0.1115 -0.0250  0.1170
 1269PYPI    C319513  13.116   2.755   5.221  0.0134  0.0838  0.1754
 1269PYPI   PO419514  12.562   2.799   5.474 -0.2307  0.4057  0.1967
 1269PYPI   GL119515  12.627   3.003   5.747  0.2076 -0.2480 -0.1524
 1269PYPI   GL219516  12.997   3.027   5.576 -0.0749  0.1545 -0.0454
 1269PYPI   C1A19517  12.599   3.263   6.080  0.3763 -0.1778 -0.0402
 1269PYPI   C2A19518  12.683   3.174   6.511  0.2444 -0.1098  0.3261
 1269PYPI   D3A19519  12.654   3.099   6.894 -0.3381  0.1027 -0.0573
 1269PYPI   C4A19520  12.673   3.306   7.262  0.2047  0.0235 -0.0898
 1269PYPI   C1B19521  13.029   3.036   6.017  0.0379  0.1897 -0.0483
 1269PYPI   C2B19522  13.174   3.281   6.390  0.1046 -0.1000 -0.1043
 1269PYPI   C3B19523  13.085   3.416   6.769 -0.2062 -0.0588 -0.0634
 1269PYPI   C4B19524  13.120   3.502   7.150  0.1559 -0.1823  0.2094
 1270PYPI    C119525  16.032   6.164   4.769  0.1652 -0.0713 -0.1889
 1270PYPI    C219526  15.983   6.003   4.406  0.0075 -0.0935 -0.1583
 1270PYPI    C319527  15.792   6.341   4.503  0.1490 -0.0184 -0.1394
 1270PYPI   PO419528  16.106   5.906   4.929  0.0928 -0.0262 -0.2058
 1270PYPI   GL119529  16.090   5.746   5.381 -0.2670  0.2236  0.0506
 1270PYPI   GL219530  16.373   5.719   5.563  0.1451  0.2020 -0.1135
 1270PYPI   C1A19531  15.902   5.817   5.851  0.0317  0.1709 -0.3453
 1270PYPI   C2A19532  15.774   5.753   6.295  0.0129  0.0044 -0.0321
 1270PYPI   D3A19533  15.641   5.654   6.676 -0.0315  0.0098  0.1780
 1270PYPI   C4A19534  15.991   5.472   7.084  0.0871  0.0733 -0.0374
 1270PYPI   C1B19535  16.237   5.413   5.844  0.0803 -0.1418 -0.1410
 1270PYPI   C2B19536  16.221   5.492   6.316  0.1817  0.1467 -0.0507
 1270PYPI   C3B19537  16.408   5.355   6.743 -0.2619  0.0044  0.1698
 1270PYPI   C4B19538  16.585   5.059   6.871 -0.0565  0.0474 -0.1232
 1271PYPI    C119539   7.178  15.384   5.706  0.1852 -0.0249 -0.0723
 1271PYPI    C219540   7.124  15.778   5.751 -0.3168 -0.0858 -0.0902
 1271PYPI    C319541   7.372  15.641   5.468 -0.1387  0.2149 -0.0837
 1271PYPI   PO419542   7.094  15.325   5.932  0.0396 -0.4580  0.0404
 1271PYPI   GL119543   6.975  15.564   6.184  0.2761 -0.2309  0.1363
 1271PYPI   GL219544   6.654  15.427   6.243  0.2303 -0.0030  0.2176
 1271PYPI   C1A19545   6.883  15.667   6.661 -0.2177  0.3384 -0.0385
 1271PYPI   C2A19546   6.774  15.794   7.134 -0.3708 -0.0908 -0.1206
 1271PYPI   D3A19547   6.861  15.836   7.531 -0.0484 -0.1697  0.2231
 1271PYPI   C4A19548   6.843  16.074   7.847 -0.0250  0.0378 -0.0720
 1271PYPI   C1B19549   6.661  15.221   6.627  0.0320 -0.1083  0.0135
 1271PYPI   C2B19550   6.563  15.382   6.985  0.0089  0.1707  0.0802
 1271PYPI   C3B19551   6.488  15.399   7.406 -0.1316 -0.2030  0.1244
 1271PYPI   C4B19552   6.457  15.687   7.820  0.0599 -0.0617  0.0053
 1272PYPI    C119553   1.356   0.418   5.540 -0.0516 -0.1886  0.0066
 1272PYPI    C219554   1.376   0.397   5.141 -0.1252 -0.0902 -0.0028
 1272PYPI    C319555   1.490   0.730   5.329  0.1785 -0.2371  0.0790
 1272PYPI   PO419556   1.415   0.269   5.628 -0.3448 -0.1480  0.0933
 1272PYPI   GL119557   1.482   0.248   5.985  0.0436  0.0420 -0.3078
 1272PYPI   GL219558   1.284   0.010   6.136 -0.0731 -0.2173  0.2215
 1272PYPI   C1A19559   1.647   0.448   6.343 -0.2789  0.0255 -0.0338
 1272PYPI   C2A19560   1.848   0.730   6.664 -0.2216 -0.2521  0.3973
 1272PYPI   D3A19561   1.854   0.688   7.110 -0.2209 -0.0631  0.2383
 1272PYPI   C4A19562   1.612   0.710   7.487 -0.2145 -0.0343 -0.1471
 1272PYPI   C1B19563   1.094  -0.010   6.520 -0.2183 -0.1528 -0.0224
 1272PYPI   C2B19564   0.679  -0.064   6.722 -0.2178 -0.0085  0.1064
 1272PYPI   C3B19565   0.469   0.264   6.918 -0.2553 -0.3645  0.1105
 1272PYPI   C4B19566   0.356   0.619   7.200 -0.0935 -0.0218 -0.1914
 1273PYPI    C119567   6.578  16.068   5.282  0.0812 -0.1702  0.0850
 1273PYPI    C219568   6.673  15.874   4.945 -0.0086  0.0686 -0.0810
 1273PYPI    C319569   6.289  15.938   5.037  0.0135 -0.0597  0.1052
 1273PYPI   PO419570   6.650  15.953   5.499  0.0133 -0.3636 -0.0883
 1273PYPI   GL119571   6.385  16.049   5.800 -0.0334 -0.0173  0.2993
 1273PYPI   GL219572   6.452  16.425   5.787 -0.2481  0.1082 -0.2140
 1273PYPI   C1A19573   6.429  15.870   6.216  0.1760 -0.2208 -0.1349
 1273PYPI   C2A19574   6.424  15.798   6.568  0.2000 -0.2111 -0.2448
 1273PYPI   D3A19575   6.339  15.888   6.957  0.1065  0.3683  0.6056
 1273PYPI   C4A19576   6.325  15.838   7.335 -0.1437  0.0575 -0.3014
 1273PYPI   C1B19577   6.575  16.642   6.188  0.1166  0.1268 -0.0316
 1273PYPI   C2B19578   6.542  16.687   6.665 -0.2979  0.0466  0.0103
 1273PYPI   C3B19579   6.616  16.825   7.168 -0.0918  0.2329 -0.1145
 1273PYPI   C4B19580   6.679  16.927   7.524 -0.0825 -0.2329 -0.3375
 1274PYPI    C119581  17.008   3.337   5.276  0.1783  0.0363  0.0482
 1274PYPI    C219582  16.809   3.626   5.467  0.1232 -0.0027  0.0498
 1274PYPI    C319583  16.796   3.605   5.068 -0.0925 -0.1625  0.0633
 1274PYPI   PO419584  16.934   3.139   5.391 -0.3423 -0.3145 -0.2672
 1274PYPI   GL119585  16.759   3.084   5.778  0.2196  0.0880 -0.2167
 1274PYPI   GL219586  17.069   2.984   5.828  0.1119 -0.3669 -0.0376
 1274PYPI   C1A19587  16.755   3.103   6.239 -0.2413 -0.0620  0.0005
 1274PYPI   C2A19588  16.682   3.092   6.653 -0.1108 -0.1001  0.0234
 1274PYPI   D3A19589  16.658   3.216   7.090  0.2424 -0.0961 -0.0574
 1274PYPI   C4A19590  16.638   3.120   7.483  0.0237 -0.1800 -0.1868
 1274PYPI   C1B19591  17.272   2.977   6.125  0.0523  0.0305  0.0041
 1274PYPI   C2B19592  17.203   2.901   6.494 -0.0189 -0.2185  0.1128
 1274PYPI   C3B19593  17.122   2.816   6.859 -0.3230  0.2230 -0.1278
 1274PYPI   C4B19594  17.050   2.921   7.267  0.0282  0.1935 -0.2422
 1275PYPI    C119595  11.190   1.658   5.608  0.1165 -0.0453  0.0161
 1275PYPI    C219596  11.183   1.884   5.278  0.2131 -0.0293  0.0246
 1275PYPI    C319597  11.180   2.057   5.638 -0.1861 -0.0525  0.0366
 1275PYPI   PO419598  11.427   1.446   5.588 -0.1819 -0.3037  0.3045
 1275PYPI   GL119599  11.698   1.413   5.789  0.0306  0.0896  0.0596
 1275PYPI   GL219600  11.937   1.520   5.900 -0.0959  0.3056 -0.2495
 1275PYPI   C1A19601  11.576   1.272   6.223  0.0039 -0.1010 -0.0634
 1275PYPI   C2A19602  11.546   1.309   6.686  0.0277 -0.2851  0.0995
 1275PYPI   D3A19603  11.539   1.143   7.079  0.1979 -0.0691 -0.0439
 1275PYPI   C4A19604  11.793   1.363   7.250 -0.2254 -0.0888 -0.1132
 1275PYPI   C1B19605  11.916   1.648   6.299 -0.1729  0.1205  0.3158
 1275PYPI   C2B19606  12.027   1.603   6.743  0.0070 -0.2876  0.0141
 1275PYPI   C3B19607  12.279   1.546   7.185 -0.2907 -0.0754  0.1814
 1275PYPI   C4B19608  12.665   1.723   7.245  0.0352  0.0624 -0.0378
 1276PYPI    C119609   9.198   8.012   5.486  0.0495 -0.0349 -0.0023
 1276PYPI    C219610   9.157   8.167   5.119  0.0175 -0.0980 -0.0255
 1276PYPI    C319611   9.154   7.771   5.170 -0.1238 -0.0868  0.0601
 1276PYPI   PO419612   9.158   8.042   5.685 -0.1424 -0.0366 -0.1130
 1276PYPI   GL119613   9.023   7.885   6.034 -0.1967 -0.3194  0.1613
 1276PYPI   GL219614   8.737   8.051   5.981 -0.2070  0.2845 -0.0714
 1276PYPI   C1A19615   9.066   7.868   6.483 -0.2574 -0.1992 -0.2082
 1276PYPI   C2A19616   9.137   7.796   6.861  0.1938 -0.0975  0.0705
 1276PYPI   D3A19617   9.106   8.015   7.227  0.0205  0.0803  0.5179
 1276PYPI   C4A19618   8.942   7.896   7.519  0.0966  0.0202  0.1376
 1276PYPI   C1B19619   8.703   8.179   6.408 -0.3003  0.2900 -0.0795
 1276PYPI   C2B19620   8.759   8.190   6.824 -0.1113 -0.0239  0.1211
 1276PYPI   C3B19621   8.650   8.239   7.234  0.1760  0.1708 -0.0960
 1276PYPI   C4B19622   8.442   8.422   7.578  0.0404 -0.0936 -0.0272
 1277PYPI    C119623  13.718   9.829   5.199 -0.0911  0.0724 -0.1284
 1277PYPI    C219624  13.459   9.900   5.494  0.1048 -0.0401  0.0736
 1277PYPI    C319625  13.339   9.708   5.165 -0.1412  0.1819  0.0302
 1277PYPI   PO419626  13.986   9.701   5.376 -0.0448  0.1070  0.1468
 1277PYPI   GL119627  14.016   9.675   5.811  0.0108  0.0906  0.2598
 1277PYPI   GL219628  13.777   9.875   5.952 -0.4998 -0.1380  0.2050
 1277PYPI   C1A19629  13.922   9.443   6.167 -0.2146  0.2798  0.1459
 1277PYPI   C2A19630  13.809   9.462   6.619  0.0512 -0.0446  0.0415
 1277PYPI   D3A19631  13.612   9.295   6.939 -0.2371  0.1559  0.2692
 1277PYPI   C4A19632  13.700   9.354   7.338 -0.2617 -0.2821 -0.1482
 1277PYPI   C1B19633  13.730   9.904   6.407 -0.2070 -0.0039 -0.0047
 1277PYPI   C2B19634  13.930  10.084   6.755  0.2773  0.2698 -0.0841
 1277PYPI   C3B19635  14.098  10.232   7.107 -0.0091  0.0123 -0.0282
 1277PYPI   C4B19636  14.160  10.222   7.557 -0.1412  0.7775 -0.1096
 1278PYPI    C119637   2.170  11.371   5.264 -0.0881  0.0791 -0.0629
 1278PYPI    C219638   1.897  11.516   5.011 -0.1848  0.0612  0.0308
 1278PYPI    C319639   2.089  11.176   4.924  0.1546  0.3201 -0.2641
 1278PYPI   PO419640   2.097  11.409   5.436 -0.1648  0.0770 -0.2518
 1278PYPI   GL119641   1.964  11.207   5.795  0.3985 -0.1309  0.0934
 1278PYPI   GL219642   2.235  11.147   5.928 -0.1046 -0.0451  0.0999
 1278PYPI   C1A19643   1.792  11.326   6.164  0.2751  0.1034 -0.3042
 1278PYPI   C2A19644   1.746  11.295   6.598 -0.0723  0.0299 -0.0056
 1278PYPI   D3A19645   1.687  11.074   6.841  0.1959 -0.0231 -0.1842
 1278PYPI   C4A19646   1.673  11.181   7.318  0.2720 -0.1195  0.1504
 1278PYPI   C1B19647   2.174  11.083   6.292 -0.1990  0.0728 -0.1972
 1278PYPI   C2B19648   2.198  11.006   6.673 -0.0704 -0.1909 -0.1522
 1278PYPI   C3B19649   2.090  10.935   7.123 -0.0541 -0.2206 -0.0585
 1278PYPI   C4B19650   2.037  10.851   7.450  0.0777 -0.0990 -0.0453
 1279PYPI    C119651  14.435   5.266   5.100  0.3490  0.2480 -0.0778
 1279PYPI    C219652  14.115   5.424   4.920  0.1238  0.2469  0.3099
 1279PYPI    C319653  14.482   5.520   4.794 -0.0241  0.2349 -0.1516
 1279PYPI   PO419654  14.318   5.337   5.364  0.0814  0.3403 -0.1615
 1279PYPI   GL119655  14.361   5.125   5.725  0.2087  0.1453  0.2148
 1279PYPI   GL219656  14.180   5.409   5.868 -0.0843 -0.2808  0.3996
 1279PYPI   C1A19657  14.410   5.029   6.065 -0.1763 -0.0040 -0.1560
 1279PYPI   C2A19658  14.241   4.840   6.465  0.2201  0.2067  0.0045
 1279PYPI   D3A19659  13.979   4.548   6.730  0.2231  0.0079  0.2146
 1279PYPI   C4A19660  13.913   4.620   7.161 -0.0462  0.0783  0.0674
 1279PYPI   C1B19661  14.444   5.735   6.136  0.1936  0.2133 -0.1705
 1279PYPI   C2B19662  14.274   5.886   6.628 -0.2299 -0.0774  0.1259
 1279PYPI   C3B19663  14.302   5.950   7.046 -0.0901 -0.3046  0.1898
 1279PYPI   C4B19664  14.345   5.782   7.513  0.2164  0.3531  0.0494
 1280ERGO   ROH19665  17.861  11.882   6.140  0.1724  0.0778  0.1426
 1280ERGO    R119666  18.012  11.831   6.374  0.1609  0.2075  0.1799
 1280ERGO    R219667  17.986  11.983   6.603 -0.1052  0.1227  0.2141
 1280ERGO    R319668  17.941  11.742   6.720  0.1547  0.0335  0.1337
 1280ERGO    R419669  17.980  11.926   6.944 -0.2172  0.0359  0.1973
 1280ERGO    R519670  18.087  11.739   6.910  0.0537  0.1859  0.2124
 1280ERGO    C119671  17.934  11.666   7.252 -0.0385 -0.0984  0.1120
 1280ERGO    C219672  17.844  11.644   7.598 -0.1493 -0.1483  0.0113
 1281ERGO   ROH19673   7.859  10.418   6.435 -0.1603  0.0555 -0.0088
 1281ERGO    R119674   7.719  10.485   6.672 -0.1782 -0.1819  0.0529
 1281ERGO    R219675   7.665  10.300   6.870  0.1132 -0.3102  0.0308
 1281ERGO    R319676   7.789  10.482   7.029 -0.0626 -0.1903  0.0288
 1281ERGO    R419677   7.664  10.293   7.216  0.1324 -0.3076  0.0287
 1281ERGO    R519678   7.640  10.509   7.215 -0.0796 -0.3359  0.0312
 1281ERGO    C119679   7.780  10.460   7.566 -0.0214 -0.1935  0.0256
 1281ERGO    C219680   7.900  10.194   7.822  0.0474  0.0805 -0.2884
 1282ERGO   ROH19681   2.746   1.403   6.226  0.1449 -0.0966  0.0032
 1282ERGO    R119682   2.688   1.244   6.453  0.1502 -0.0407  0.0431
 1282ERGO    R219683   2.877   1.185   6.646  0.1226  0.1026  0.1100
 1282ERGO    R319684   2.690   1.288   6.814  0.0387  0.0840  0.0301
 1282ERGO    R419685   2.829   1.086   6.973 -0.0755  0.0173  0.0573
 1282ERGO    R519686   2.614   1.100   6.941 -0.0596  0.0554 -0.0638
 1282ERGO    C119687   2.626   1.124   7.322 -0.2695 -0.0498 -0.0484
 1282ERGO    C219688   2.850   1.111   7.635 -0.0150 -0.1816  0.1629
 1283ERGO   ROH19689   7.317  13.353   6.390 -0.1825 -0.0663 -0.0568
 1283ERGO    R119690   7.200  13.423   6.639 -0.0928 -0.1744  0.0174
 1283ERGO    R219691   7.157  13.239   6.840  0.0439 -0.2511 -0.0173
 1283ERGO    R319692   7.300  13.416   6.989  0.0649 -0.2590 -0.0294
 1283ERGO    R419693   7.197  13.222   7.183 -0.1325 -0.1066  0.0116
 1283ERGO    R519694   7.174  13.438   7.191 -0.0200 -0.0935 -0.1020
 1283ERGO    C119695   7.355  13.378   7.522 -0.2156 -0.0298  0.0172
 1283ERGO    C219696   7.199  13.365   7.906 -0.1606  0.2509 -0.1489
 1284ERGO   ROH19697  13.076   5.596   5.883  0.0248 -0.1880 -0.0140
 1284ERGO    R119698  13.017   5.718   6.132 -0.0973 -0.2428 -0.0160
 1284ERGO    R219699  12.878   5.588   6.332  0.1642 -0.4376  0.0426
 1284ERGO    R319700  13.094   5.655   6.482  0.1059 -0.0706 -0.0274
 1284ERGO    R419701  12.886   5.587   6.677  0.2823 -0.4455  0.0408
 1284ERGO    R519702  13.002   5.771   6.670 -0.0357 -0.2380  0.0104
 1284ERGO    C119703  13.094   5.650   7.020  0.2964 -0.1055 -0.0261
 1284ERGO    C219704  13.066   5.647   7.373 -0.0393  0.0335 -0.3003
 1285ERGO   ROH19705  16.778  14.964   6.339 -0.0082 -0.0096 -0.0699
 1285ERGO    R119706  16.791  15.130   6.568  0.1512 -0.0241 -0.0677
 1285ERGO    R219707  16.614  15.109   6.778  0.0365  0.2382 -0.1347
 1285ERGO    R319708  16.841  15.085   6.925 -0.0488 -0.0950 -0.0475
 1285ERGO    R419709  16.644  15.201   7.110  0.0634  0.2637 -0.1440
 1285ERGO    R519710  16.842  15.281   7.064  0.2131 -0.0614 -0.0914
 1285ERGO    C119711  16.875  15.232   7.441 -0.0011 -0.0341 -0.0676
 1285ERGO    C219712  16.933  15.391   7.624 -0.0568 -0.0580  0.2809
 1286ERGO   ROH19713   3.514   9.753   5.749  0.0045  0.1114 -0.0554
 1286ERGO    R119714   3.509   9.631   6.004 -0.2221  0.0264 -0.0983
 1286ERGO    R219715   3.723   9.643   6.179 -0.2530 -0.3049 -0.0334
 1286ERGO    R319716   3.535   9.740   6.350 -0.1798 -0.1261 -0.0515
 1286ERGO    R419717   3.730   9.607   6.523 -0.1749 -0.0732 -0.0085
 1286ERGO    R519718   3.515   9.572   6.519 -0.1904 -0.0076  0.0696
 1286ERGO    C119719   3.557   9.677   6.883 -0.0608  0.2296 -0.0112
 1286ERGO    C219720   3.477   9.782   7.238  0.4151 -0.2216 -0.0151
 1287ERGO   ROH19721   4.130   4.890   5.702  0.1638 -0.3458  0.1898
 1287ERGO    R119722   4.194   4.923   5.976  0.0773 -0.3541  0.2117
 1287ERGO    R219723   4.133   5.153   6.116  0.3354 -0.2187  0.1098
 1287ERGO    R319724   4.012   4.979   6.285 -0.0004  0.0034  0.1060
 1287ERGO    R419725   4.105   5.196   6.458  0.2000 -0.0588  0.0797
 1287ERGO    R519726   4.146   4.984   6.483 -0.1025 -0.1105  0.1798
 1287ERGO    C119727   3.974   5.057   6.816 -0.1941  0.2428  0.0586
 1287ERGO    C219728   3.959   5.114   7.173  0.0104  0.1989 -0.0973
 1288ERGO   ROH19729  16.542  15.925   5.775 -0.3082 -0.1077  0.0551
 1288ERGO    R119730  16.500  15.874   6.050 -0.3135  0.0077  0.0760
 1288ERGO    R219731  16.662  15.979   6.247 -0.1333 -0.1546  0.0156
 1288ERGO    R319732  16.427  16.071   6.348  0.0036  0.1710  0.0493
 1288ERGO    R419733  16.604  16.051   6.580 -0.0892 -0.4173  0.0828
 1288ERGO    R519734  16.406  15.962   6.560 -0.2543 -0.0329 -0.0752
 1288ERGO    C119735  16.350  16.180   6.868  0.0649 -0.2645  0.1535
 1288ERGO    C219736  16.340  16.202   7.276  0.1015  0.1007 -0.0466
 1289ERGO   ROH19737   2.321  13.041   6.256  0.1774 -0.2728 -0.2702
 1289ERGO    R119738   2.084  12.963   6.390  0.1619 -0.1003 -0.1968
 1289ERGO    R219739   2.068  12.737   6.548  0.0675 -0.0449 -0.1314
 1289ERGO    R319740   1.979  12.912   6.735  0.2037  0.0567 -0.1589
 1289ERGO    R419741   1.941  12.648   6.857  0.2095  0.1090 -0.0264
 1289ERGO    R519742   1.790  12.803   6.833  0.2282  0.1350 -0.0145
 1289ERGO    C119743   1.783  12.761   7.212  0.4201  0.2939  0.0088
 1289ERGO    C219744   1.753  12.711   7.438  0.0875 -0.1365 -0.2153
 1290ERGO   ROH19745  14.482   0.166   6.019 -0.2873  0.0699 -0.1987
 1290ERGO    R119746  14.517   0.253   6.286 -0.3990  0.0756 -0.1864
 1290ERGO    R219747  14.309   0.259   6.469 -0.3995 -0.2701 -0.1722
 1290ERGO    R319748  14.478   0.108   6.618 -0.1587 -0.0438 -0.2070
 1290ERGO    R419749  14.349   0.287   6.811 -0.4356 -0.2685 -0.1677
 1290ERGO    R519750  14.563   0.259   6.783 -0.3846  0.0639 -0.1809
 1290ERGO    C119751  14.531   0.161   7.150 -0.2306 -0.0552 -0.1977
 1290ERGO    C219752  14.486   0.203   7.456 -0.0628 -0.2451  0.1582
 1291ERGO   ROH19753  14.843  11.143   6.126  0.0659  0.1074 -0.1685
 1291ERGO    R119754  14.748  11.011   6.357 -0.0934  0.1369 -0.2180
 1291ERGO    R219755  14.901  10.983   6.586 -0.1713 -0.0339 -0.1971
 1291ERGO    R319756  14.686  11.100   6.705 -0.1033  0.1096 -0.2096
 1291ERGO    R419757  14.802  10.926   6.912 -0.1666  0.0761 -0.1750
 1291ERGO    R519758  14.595  10.927   6.844 -0.1822  0.1733 -0.1665
 1291ERGO    C119759  14.543  11.002   7.214 -0.0998  0.2750 -0.1739
 1291ERGO    C219760  14.564  11.153   7.554  0.0305 -0.0962  0.1791
 1292ERGO   ROH19761  12.083  15.206   6.344 -0.1412  0.0335  0.0445
 1292ERGO    R119762  12.111  15.328   6.598 -0.2037  0.1181  0.0115
 1292ERGO    R219763  11.913  15.319   6.789 -0.1480 -0.0491  0.0645
 1292ERGO    R319764  12.112  15.220   6.945 -0.0010  0.1914  0.0351
 1292ERGO    R419765  11.902  15.298   7.134 -0.1170 -0.1574  0.0588
 1292ERGO    R519766  12.111  15.360   7.139 -0.2003  0.1409  0.0726
 1292ERGO    C119767  12.082  15.192   7.481  0.0389  0.0052  0.0279
 1292ERGO    C219768  11.915  15.099   7.800  0.0584  0.2851 -0.0986
 1293ERGO   ROH19769   8.113   8.936   6.078 -0.0361  0.1659 -0.0300
 1293ERGO    R119770   8.145   9.016   6.348 -0.0000  0.0838 -0.0088
 1293ERGO    R219771   7.931   9.076   6.512  0.0214  0.1006  0.0217
 1293ERGO    R319772   8.044   8.890   6.674 -0.0207  0.0211 -0.0408
 1293ERGO    R419773   7.917   9.081   6.857  0.3000  0.1574  0.0335
 1293ERGO    R519774   8.125   9.016   6.861  0.2418 -0.0307 -0.1204
 1293ERGO    C119775   8.016   8.910   7.211  0.4227  0.1159 -0.0183
 1293ERGO    C219776   8.095   8.709   7.479 -0.0864 -0.0722  0.3971
 1294ERGO   ROH19777   4.067   0.506   5.960 -0.0694  0.0000 -0.0511
 1294ERGO    R119778   3.925   0.545   6.202 -0.1504 -0.1096 -0.0807
 1294ERGO    R219779   3.776   0.345   6.320  0.0562 -0.2554 -0.0640
 1294ERGO    R319780   3.930   0.403   6.537 -0.0398 -0.0370 -0.0503
 1294ERGO    R419781   3.679   0.300   6.649  0.0265 -0.2256 -0.0681
 1294ERGO    R519782   3.775   0.489   6.698 -0.1547 -0.1176 -0.1143
 1294ERGO    C119783   3.768   0.327   7.044 -0.0809 -0.0032 -0.0576
 1294ERGO    C219784   3.765   0.285   7.301  0.0631 -0.0249  0.0773
 1295ERGO   ROH19785   3.863   6.779   5.918  0.0655 -0.3138 -0.0517
 1295ERGO    R119786   3.760   6.596   6.108  0.1679 -0.2786  0.0382
 1295ERGO    R219787   3.911   6.499   6.319  0.2071 -0.0522  0.1143
 1295ERGO    R319788   3.703   6.592   6.468  0.1204 -0.1138  0.0337
 1295ERGO    R419789   3.849   6.413   6.648  0.3510  0.2495  0.2248
 1295ERGO    R519790   3.636   6.404   6.601  0.3494 -0.0440  0.2574
 1295ERGO    C119791   3.618   6.449   6.979  0.3534  0.3673  0.2135
 1295ERGO    C219792   3.745   6.439   7.294  0.3044  0.0964  0.1949
 1296ERGO   ROH19793  13.406  16.174   6.047 -0.2090 -0.0614  0.0922
 1296ERGO    R119794  13.383  16.094   6.317  0.0522 -0.0093  0.1329
 1296ERGO    R219795  13.602  16.078   6.487  0.1893  0.2397 -0.0089
 1296ERGO    R319796  13.450  16.242   6.643  0.1424  0.1453  0.0441
 1296ERGO    R419797  13.639  16.117   6.828  0.0289 -0.0216  0.0402
 1296ERGO    R519798  13.422  16.120   6.847  0.0240 -0.0016 -0.0605
 1296ERGO    C119799  13.519  16.292   7.173 -0.1084 -0.2625  0.1185
 1296ERGO    C219800  13.563  16.325   7.473  0.0086  0.2807  0.3258
 1297ERGO   ROH19801  10.566   8.577   5.842  0.1269 -0.1492 -0.0889
 1297ERGO    R119802  10.448   8.529   6.095  0.0919 -0.1123 -0.0984
 1297ERGO    R219803  10.464   8.284   6.223  0.1446 -0.0696 -0.0243
 1297ERGO    R319804  10.564   8.433   6.427  0.0563  0.0218 -0.0468
 1297ERGO    R419805  10.462   8.192   6.556  0.0544  0.0548  0.0106
 1297ERGO    R519806  10.412   8.397   6.608  0.0052  0.0657 -0.0809
 1297ERGO    C119807  10.555   8.279   6.942 -0.0810  0.2130  0.0097
 1297ERGO    C219808  10.548   8.341   7.359  0.3045  0.0695 -0.0350
 1298ERGO   ROH19809   8.249   1.169   6.694 -0.0977 -0.1192 -0.0203
 1298ERGO    R119810   8.283   1.316   6.933 -0.1435 -0.0359 -0.0641
 1298ERGO    R219811   8.070   1.410   7.082 -0.1769 -0.1990 -0.0040
 1298ERGO    R319812   8.193   1.276   7.283  0.0224 -0.0450 -0.0220
 1298ERGO    R419813   7.954   1.391   7.407  0.0752 -0.0591  0.0959
 1298ERGO    R519814   8.159   1.414   7.476  0.1215  0.0503 -0.0717
 1298ERGO    C119815   8.003   1.255   7.785  0.4091  0.1670  0.1372
 1298ERGO    C219816   8.003   1.114   8.102 -0.0632  0.0272 -0.0771
 1299ERGO   ROH19817   5.933   4.598   6.035  0.0566  0.0242  0.0460
 1299ERGO    R119818   5.958   4.759   6.266 -0.1753  0.0191  0.0772
 1299ERGO    R219819   5.746   4.811   6.435 -0.2677 -0.2721  0.0575
 1299ERGO    R319820   5.915   4.715   6.625 -0.1721 -0.0962  0.0634
 1299ERGO    R419821   5.679   4.805   6.774 -0.1949 -0.1815  0.0740
 1299ERGO    R519822   5.886   4.863   6.811 -0.2235 -0.0422  0.0116
 1299ERGO    C119823   5.800   4.711   7.150 -0.0627  0.0363  0.0891
 1299ERGO    C219824   5.741   4.642   7.565 -0.0577  0.0856 -0.0638
 1300ERGO   ROH19825   6.908  16.182   5.963 -0.1533 -0.1230 -0.1103
 1300ERGO    R119826   6.839  16.100   6.224  0.0455 -0.0993 -0.0489
 1300ERGO    R219827   6.995  16.158   6.444  0.1505  0.0301 -0.1559
 1300ERGO    R319828   6.764  16.263   6.541  0.1541 -0.0647 -0.0408
 1300ERGO    R419829   6.929  16.213   6.779  0.3017  0.0248 -0.1239
 1300ERGO    R519830   6.725  16.143   6.745  0.3139 -0.0675 -0.0107
 1300ERGO    C119831   6.673  16.344   7.065  0.3932 -0.0673  0.0027
 1300ERGO    C219832   6.830  16.434   7.479 -0.1483 -0.1766  0.2476
 1301ERGO   ROH19833   0.816   4.453   5.606  0.0574  0.0041  0.0182
 1301ERGO    R119834   0.738   4.508   5.873  0.0527  0.0126  0.0178
 1301ERGO    R219835   0.719   4.311   6.067 -0.0119 -0.0000  0.0187
 1301ERGO    R319836   0.887   4.475   6.203  0.0282 -0.0453  0.0185
 1301ERGO    R419837   0.757   4.316   6.410 -0.0733  0.0867  0.0226
 1301ERGO    R519838   0.767   4.532   6.402  0.0269  0.0642 -0.0274
 1301ERGO    C119839   0.937   4.473   6.738 -0.0713  0.0946  0.0245
 1301ERGO    C219840   0.962   4.467   7.086  0.0658  0.1163 -0.2583
 1302ERGO   ROH19841   5.058   2.277   6.077 -0.1569  0.1154  0.0145
 1302ERGO    R119842   5.107   2.415   6.319 -0.0635  0.0634  0.0257
 1302ERGO    R219843   4.920   2.433   6.522 -0.0026  0.0587  0.0841
 1302ERGO    R319844   5.122   2.331   6.673  0.0246 -0.0037  0.0065
 1302ERGO    R419845   4.933   2.446   6.867  0.1485  0.0805  0.0780
 1302ERGO    R519846   5.147   2.489   6.852  0.1583  0.0008 -0.0154
 1302ERGO    C119847   5.130   2.359   7.210  0.2619  0.0346  0.0016
 1302ERGO    C219848   5.157   2.431   7.504 -0.2470 -0.4108  0.2124
 1303ERGO   ROH19849   9.527   8.147   6.027  0.1001  0.0465  0.1230
 1303ERGO    R119850   9.527   8.297   6.267  0.0979 -0.0434  0.1794
 1303ERGO    R219851   9.336   8.264   6.464  0.0678 -0.0823  0.1423
 1303ERGO    R319852   9.552   8.226   6.623  0.0409 -0.1813  0.1568
 1303ERGO    R419853   9.327   8.248   6.809  0.0304 -0.1297  0.1396
 1303ERGO    R519854   9.511   8.364   6.814  0.0714 -0.1940  0.1734
 1303ERGO    C119855   9.525   8.204   7.159 -0.0166 -0.2503  0.1516
 1303ERGO    C219856   9.562   8.009   7.519 -0.0136 -0.0929 -0.1745
 1304ERGO   ROH19857   5.989   8.952   6.309  0.3763 -0.0543  0.0012
 1304ERGO    R119858   5.882   8.946   6.570  0.1178  0.1808 -0.0938
 1304ERGO    R219859   5.951   8.752   6.755 -0.3167  0.1446  0.0442
 1304ERGO    R319860   6.012   8.966   6.910 -0.1696  0.1198  0.0217
 1304ERGO    R419861   5.928   8.758   7.099 -0.2587  0.1876  0.0475
 1304ERGO    R519862   5.849   8.961   7.085 -0.1429  0.2295  0.0470
 1304ERGO    C119863   5.972   8.964   7.446 -0.0868  0.1894  0.0283
 1304ERGO    C219864   5.982   8.886   7.746  0.1513  0.1581  0.1761
 1305ERGO   ROH19865  15.672   7.756   5.923  0.3363 -0.0159 -0.1517
 1305ERGO    R119866  15.651   7.879   6.178  0.1275 -0.0689 -0.1393
 1305ERGO    R219867  15.441   7.827   6.352  0.0510 -0.2162 -0.2559
 1305ERGO    R319868  15.643   7.768   6.524 -0.0032 -0.1386 -0.1673
 1305ERGO    R419869  15.413   7.818   6.696 -0.0607 -0.1796 -0.2651
 1305ERGO    R519870  15.607   7.913   6.711 -0.1019 -0.1326 -0.2019
 1305ERGO    C119871  15.585   7.758   7.058 -0.1765 -0.0855 -0.1873
 1305ERGO    C219872  15.592   7.763   7.371 -0.0035 -0.3047 -0.2452
 1306ERGO   ROH19873  16.630  12.160   6.342 -0.3101  0.0973 -0.0781
 1306ERGO    R119874  16.570  12.022   6.582  0.0031  0.0692 -0.0107
 1306ERGO    R219875  16.727  12.042   6.808  0.0636  0.3935 -0.0732
 1306ERGO    R319876  16.492  12.112   6.925 -0.0113  0.0529 -0.0106
 1306ERGO    R419877  16.672  12.053   7.149  0.1196  0.2735 -0.0603
 1306ERGO    R519878  16.475  11.967   7.115  0.2299  0.0035 -0.0255
 1306ERGO    C119879  16.419  12.125   7.458  0.0815 -0.1163  0.0059
 1306ERGO    C219880  16.501  12.138   7.706  0.3362  0.2008 -0.2348
 1307ERGO   ROH19881   2.211  15.957   6.040  0.0000  0.0967 -0.1753
 1307ERGO    R119882   2.250  16.103   6.279 -0.0014  0.0528 -0.1478
 1307ERGO    R219883   2.050  16.135   6.468 -0.0358  0.1084 -0.1940
 1307ERGO    R319884   2.239  16.035   6.636 -0.1176  0.0143 -0.1579
 1307ERGO    R419885   2.040  16.155   6.813  0.0453  0.3723 -0.2048
 1307ERGO    R519886   2.253  16.195   6.813  0.0950  0.1307 -0.2755
 1307ERGO    C119887   2.210  16.072   7.171  0.0158  0.4377 -0.1770
 1307ERGO    C219888   2.208  16.058   7.475  0.1278 -0.1638  0.1581
 1308ERGO   ROH19889   1.077   4.952   5.586 -0.1387 -0.0216  0.0386
 1308ERGO    R119890   1.050   5.044   5.852 -0.1776  0.0568  0.0081
 1308ERGO    R219891   0.822   5.000   6.002 -0.0850 -0.1637  0.0879
 1308ERGO    R319892   0.998   4.893   6.179  0.0988  0.1261  0.0870
 1308ERGO    R419893   0.781   5.003   6.345 -0.0663 -0.1835  0.0901
 1308ERGO    R519894   0.995   5.045   6.365 -0.1231  0.1493  0.0687
 1308ERGO    C119895   0.923   4.904   6.712  0.1172  0.0770  0.0905
 1308ERGO    C219896   0.933   4.942   7.076 -0.1105 -0.1173 -0.4091
 1309ERGO   ROH19897  11.006  10.447   6.414 -0.1691 -0.0536 -0.0292
 1309ERGO    R119898  11.179  10.425   6.636 -0.0749 -0.2222 -0.1169
 1309ERGO    R219899  11.162  10.592   6.856  0.3744 -0.0177 -0.2234
 1309ERGO    R319900  11.145  10.357   6.992 -0.0001  0.1050 -0.0450
 1309ERGO    R419901  11.200  10.559   7.198  0.4567  0.1615 -0.2145
 1309ERGO    R519902  11.312  10.376   7.163  0.1087 -0.0757 -0.1308
 1309ERGO    C119903  11.206  10.320   7.525  0.1531  0.3809 -0.0418
 1309ERGO    C219904  10.998  10.192   7.771 -0.1003  0.0316 -0.0342
 1310ERGO   ROH19905  16.466   9.220   5.917  0.1461 -0.1334  0.0258
 1310ERGO    R119906  16.566   9.252   6.180  0.0055  0.0379  0.0599
 1310ERGO    R219907  16.511   9.475   6.333 -0.2136  0.0636 -0.0521
 1310ERGO    R319908  16.425   9.291   6.513 -0.1725  0.0774 -0.0183
 1310ERGO    R419909  16.548   9.502   6.676 -0.1178  0.0825 -0.0638
 1310ERGO    R519910  16.595   9.289   6.682 -0.1253  0.0802 -0.0650
 1310ERGO    C119911  16.489   9.343   7.044 -0.0229  0.1066 -0.0390
 1310ERGO    C219912  16.455   9.340   7.390  0.1239 -0.1942  0.0299
 1311ERGO   ROH19913  13.148  15.054   6.374 -0.0505  0.0380 -0.0752
 1311ERGO    R119914  13.210  15.179   6.620  0.0385 -0.0266 -0.0638
 1311ERGO    R219915  13.029  15.336   6.758  0.1482  0.0955 -0.0506
 1311ERGO    R319916  13.087  15.166   6.962  0.0246  0.0333 -0.0672
 1311ERGO    R419917  13.005  15.414   7.094  0.1186  0.0467 -0.0418
 1311ERGO    R519918  13.189  15.305   7.128  0.0570 -0.0469 -0.0224
 1311ERGO    C119919  13.045  15.300   7.481 -0.0145 -0.0399 -0.0522
 1311ERGO    C219920  12.957  15.351   7.724  0.1255 -0.0972  0.1239
 1312ERGO   ROH19921  12.227  15.685   6.257 -0.1121 -0.0849  0.0649
 1312ERGO    R119922  12.182  15.816   6.504 -0.0991 -0.0899  0.0666
 1312ERGO    R219923  11.979  15.743   6.678  0.0210 -0.1942  0.1386
 1312ERGO    R319924  12.183  15.725   6.856  0.0877 -0.0460  0.0836
 1312ERGO    R419925  11.944  15.759   7.021  0.0326 -0.4673  0.1573
 1312ERGO    R519926  12.125  15.879   7.029 -0.1050 -0.2198  0.1991
 1312ERGO    C119927  12.116  15.752   7.388  0.1020 -0.4873  0.1167
 1312ERGO    C219928  12.045  15.618   7.741  0.0855  0.2459 -0.2258
 1313ERGO   ROH19929  16.746  16.935   6.152  0.5012 -0.2192 -0.0375
 1313ERGO    R119930  16.793  16.855   6.419  0.1541 -0.1701  0.0436
 1313ERGO    R219931  16.960  16.995   6.589  0.2084 -0.3273  0.1286
 1313ERGO    R319932  16.741  16.996   6.750  0.0601  0.0547 -0.0663
 1313ERGO    R419933  16.968  17.004   6.935 -0.0896 -0.3636  0.1383
 1313ERGO    R519934  16.803  16.861   6.938 -0.3508 -0.0706 -0.0134
 1313ERGO    C119935  16.767  17.010   7.287 -0.4022 -0.0261 -0.0390
 1313ERGO    C219936  16.640  16.928   7.659  0.2593 -0.1419 -0.3322
 1314ERGO   ROH19937   5.400  12.863   6.137 -0.1614  0.1117  0.1380
 1314ERGO    R119938   5.524  12.732   6.355 -0.2413  0.0068  0.1199
 1314ERGO    R219939   5.753  12.830   6.476 -0.1830 -0.1499  0.1298
 1314ERGO    R319940   5.602  12.811   6.701 -0.1908 -0.0876  0.1314
 1314ERGO    R419941   5.876  12.766   6.793 -0.2085 -0.2232  0.1266
 1314ERGO    R519942   5.705  12.637   6.829 -0.2717 -0.1446  0.1228
 1314ERGO    C119943   5.806  12.712   7.188 -0.2307 -0.2074  0.1262
 1314ERGO    C219944   5.882  12.615   7.539 -0.3185  0.2690  0.0353
 1315ERGO   ROH19945  14.584  17.103   6.061  0.1282  0.0510 -0.0930
 1315ERGO    R119946  14.591  16.989   6.321 -0.0323  0.1081 -0.0621
 1315ERGO    R219947  14.817  16.866   6.423 -0.2005 -0.1831 -0.0293
 1315ERGO    R319948  14.781  17.042   6.627  0.0440 -0.0732 -0.0768
 1315ERGO    R419949  14.947  16.830   6.741 -0.0885 -0.1740 -0.0732
 1315ERGO    R519950  14.758  16.904   6.821  0.0113  0.0195 -0.0149
 1315ERGO    C119951  14.988  16.973   7.118  0.2060 -0.0657 -0.1433
 1315ERGO    C219952  15.044  17.027   7.436 -0.1212 -0.0381  0.2467
 1316ERGO   ROH19953   3.200   3.994   6.029 -0.0258 -0.0258 -0.0208
 1316ERGO    R119954   3.109   3.849   6.254 -0.0566 -0.0996 -0.0799
 1316ERGO    R219955   3.255   3.644   6.368 -0.0014 -0.0371 -0.0350
 1316ERGO    R319956   3.224   3.791   6.594 -0.1851 -0.0779 -0.0324
 1316ERGO    R419957   3.239   3.514   6.688  0.1977 -0.0618 -0.0340
 1316ERGO    R519958   3.082   3.658   6.733  0.0038 -0.2730 -0.0221
 1316ERGO    C119959   3.201   3.577   7.087  0.1413 -0.1145 -0.0309
 1316ERGO    C219960   3.263   3.454   7.475  0.3443  0.5580  0.1359
 1317ERGO   ROH19961  15.439  13.023   6.083 -0.1640  0.1431 -0.0202
 1317ERGO    R119962  15.568  12.982   6.332 -0.0976  0.1246 -0.0581
 1317ERGO    R219963  15.645  13.190   6.496 -0.1684  0.1079 -0.0076
 1317ERGO    R319964  15.498  13.057   6.681 -0.0674 -0.0225 -0.0193
 1317ERGO    R419965  15.694  13.209   6.837 -0.0945  0.0120 -0.0121
 1317ERGO    R519966  15.657  12.994   6.849  0.0023 -0.0117 -0.0780
 1317ERGO    C119967  15.585  13.094   7.210  0.0433 -0.1665 -0.0256
 1317ERGO    C219968  15.546  13.157   7.527  0.0916 -0.1474 -0.2681
 1318ERGO   ROH19969  17.765  15.958   6.275 -0.3796  0.2689 -0.0854
 1318ERGO    R119970  17.690  15.865   6.531 -0.3420  0.1126 -0.1307
 1318ERGO    R219971  17.714  15.600   6.605  0.0676  0.1390 -0.1529
 1318ERGO    R319972  17.855  15.705   6.813 -0.1988  0.3537 -0.0744
 1318ERGO    R419973  17.658  15.528   6.939  0.1441 -0.1403 -0.1971
 1318ERGO    R519974  17.692  15.738   6.985 -0.3189 -0.0771 -0.0912
 1318ERGO    C119975  17.758  15.585   7.328 -0.0614 -0.1012 -0.1491
 1318ERGO    C219976  17.988  15.381   7.539  0.1640 -0.4588  0.0100
 1319ERGO   ROH19977   3.273  16.545   6.124 -0.2518 -0.2154 -0.1655
 1319ERGO    R119978   3.246  16.612   6.398 -0.4847 -0.1356 -0.2058
 1319ERGO    R219979   3.050  16.504   6.559 -0.1578 -0.6938 -0.1603
 1319ERGO    R319980   3.261  16.435   6.715  0.0784  0.0796 -0.0999
 1319ERGO    R419981   3.043  16.485   6.904 -0.1290 -0.5435 -0.1503
 1319ERGO    R519982   3.241  16.575   6.908 -0.4077  0.1261 -0.1713
 1319ERGO    C119983   3.237  16.409   7.252  0.1095  0.2699 -0.0878
 1319ERGO    C219984   3.179  16.447   7.596  0.1121  0.2117  0.1411
 1320ERGO   ROH19985  15.053   8.574   5.656  0.0712  0.0529  0.0645
 1320ERGO    R119986  14.876   8.616   5.872 -0.1231 -0.1036 -0.0595
 1320ERGO    R219987  14.732   8.411   5.989  0.1676 -0.2830  0.0002
 1320ERGO    R319988  14.848   8.502   6.217 -0.1056  0.0808  0.0035
 1320ERGO    R419989  14.633   8.325   6.308  0.1543 -0.2368  0.0084
 1320ERGO    R519990  14.665   8.532   6.369 -0.2397 -0.1331 -0.1129
 1320ERGO    C119991  14.685   8.360   6.709 -0.1100  0.1314  0.0162
 1320ERGO    C219992  14.674   8.366   7.009  0.0514  0.2415 -0.3169
 1321ERGO   ROH19993   7.519  15.164   6.374  0.0617  0.1001 -0.1797
 1321ERGO    R119994   7.321  15.261   6.551  0.0792  0.0173 -0.1150
 1321ERGO    R219995   7.168  15.093   6.709  0.2530 -0.0423 -0.0094
 1321ERGO    R319996   7.260  15.251   6.910  0.2421  0.0614 -0.0850
 1321ERGO    R419997   7.010  15.139   7.013  0.1702  0.2076 -0.0876
 1321ERGO    R519998   7.063  15.350   7.004  0.2418  0.1872 -0.2114
 1321ERGO    C119999   7.005  15.314   7.379  0.1119  0.4505 -0.2041
 1321ERGO    C220000   6.879  15.399   7.774  0.3417  0.2199 -0.0079
 1322ERGO   ROH20001  14.001  13.749   6.094  0.4577 -0.1288  0.0249
 1322ERGO    R120002  13.840  13.747   6.327  0.2421  0.0078 -0.1191
 1322ERGO    R220003  13.868  13.557   6.525 -0.0445  0.0309 -0.0531
 1322ERGO    R320004  13.895  13.774   6.686 -0.0696  0.0487 -0.0722
 1322ERGO    R420005  13.838  13.552   6.869  0.1016  0.0335 -0.0393
 1322ERGO    R520006  13.730  13.741   6.857  0.0161 -0.0133 -0.0019
 1322ERGO    C120007  13.846  13.753   7.221  0.1632  0.0517 -0.0492
 1322ERGO    C220008  13.896  13.794   7.504 -0.1609  0.2531  0.2004
 1323ERGO   ROH20009  16.553  11.689   6.259  0.2953  0.1774  0.0215
 1323ERGO    R120010  16.522  11.521   6.485  0.0594  0.0799 -0.0803
 1323ERGO    R220011  16.700  11.522   6.696 -0.0063 -0.2097 -0.0222
 1323ERGO    R320012  16.476  11.565   6.843 -0.0128 -0.0747 -0.0694
 1323ERGO    R420013  16.690  11.538   7.041 -0.0546 -0.1246 -0.0268
 1323ERGO    R520014  16.503  11.426   7.036 -0.1056 -0.0435 -0.0315
 1323ERGO    C120015  16.474  11.588   7.380 -0.0891  0.0516 -0.0739
 1323ERGO    C220016  16.523  11.634   7.702  0.0292  0.3080  0.2997
 1324ERGO   ROH20017   2.479   3.291   5.764 -0.1113 -0.0205  0.0102
 1324ERGO    R120018   2.401   3.346   6.031  0.1352  0.0061  0.0783
 1324ERGO    R220019   2.192   3.215   6.156  0.0388  0.2460  0.1733
 1324ERGO    R320020   2.381   3.161   6.344  0.0948 -0.0604  0.0365
 1324ERGO    R420021   2.130   3.175   6.493  0.1726 -0.0598  0.1651
 1324ERGO    R520022   2.312   3.286   6.535  0.2594 -0.2118  0.1977
 1324ERGO    C120023   2.272   3.101   6.866  0.3031 -0.5257  0.0319
 1324ERGO    C220024   2.309   3.041   7.197  0.0573  0.2564 -0.1185
 1325ERGO   ROH20025  11.085   5.207   5.892 -0.3148  0.1736  0.0889
 1325ERGO    R120026  11.037   5.100   6.150 -0.2251  0.0336  0.0499
 1325ERGO    R220027  11.203   4.912   6.266 -0.1294  0.0343 -0.0683
 1325ERGO    R320028  11.212   5.093   6.469 -0.1562 -0.0518  0.0084
 1325ERGO    R420029  11.162   4.836   6.601 -0.1595 -0.0940 -0.1014
 1325ERGO    R520030  11.044   5.018   6.623 -0.1632 -0.1135 -0.0378
 1325ERGO    C120031  11.146   4.961   6.986 -0.2022 -0.2496 -0.0487
 1325ERGO    C220032  11.206   4.831   7.337 -0.0710 -0.1005 -0.1763
 1326ERGO   ROH20033   6.548  12.095   6.119  0.2028  0.0201 -0.1893
 1326ERGO    R120034   6.521  12.145   6.396  0.3370  0.0103 -0.1749
 1326ERGO    R220035   6.345  12.004   6.556  0.2935  0.1223 -0.1312
 1326ERGO    R320036   6.568  11.957   6.704  0.3103 -0.0552 -0.2090
 1326ERGO    R420037   6.348  11.957   6.898  0.3872  0.3169 -0.1026
 1326ERGO    R520038   6.530  12.076   6.909  0.5401  0.1133 -0.2566
 1326ERGO    C120039   6.559  11.884   7.237  0.4576  0.2636 -0.1590
 1326ERGO    C220040   6.582  11.727   7.494 -0.1938 -0.0443 -0.1907
 1327ERGO   ROH20041  10.394  17.358   5.805  0.1398 -0.2435  0.0741
 1327ERGO    R120042  10.350  17.231   6.054  0.0747 -0.2192  0.0741
 1327ERGO    R220043  10.484  17.305   6.284  0.0456 -0.2284  0.0875
 1327ERGO    R320044  10.232  17.330   6.383  0.0340 -0.1803  0.0500
 1327ERGO    R420045  10.408  17.392   6.610  0.0278 -0.3747  0.1240
 1327ERGO    R520046  10.248  17.244   6.607 -0.0375 -0.3133  0.0105
 1327ERGO    C120047  10.128  17.467   6.893  0.0066 -0.4147  0.1101
 1327ERGO    C220048  10.006  17.565   7.226 -0.3989 -0.1324  0.1345
 1328ERGO   ROH20049   1.746   1.898   6.099  0.0778 -0.1919 -0.1390
 1328ERGO    R120050   1.681   1.836   6.368  0.0322  0.0906 -0.0827
 1328ERGO    R220051   1.815   1.643   6.513 -0.2779 -0.0677 -0.0027
 1328ERGO    R320052   1.850   1.847   6.690  0.1370 -0.0160 -0.1326
 1328ERGO    R420053   1.850   1.604   6.855 -0.1933  0.0660  0.0049
 1328ERGO    R520054   1.725   1.780   6.882  0.1046  0.2974 -0.0374
 1328ERGO    C120055   1.904   1.773   7.219  0.2455  0.1923 -0.1127
 1328ERGO    C220056   1.853   1.760   7.570  0.0700 -0.2059  0.0185
 1329ERGO   ROH20057   8.911   2.948   5.896 -0.1060  0.0042  0.0670
 1329ERGO    R120058   8.997   2.899   6.161 -0.1833 -0.0507  0.0820
 1329ERGO    R220059   9.057   3.103   6.338  0.0239 -0.0895  0.0552
 1329ERGO    R320060   8.877   2.975   6.496 -0.1313  0.1316  0.0616
 1329ERGO    R420061   9.076   3.086   6.682  0.0627 -0.1688  0.0493
 1329ERGO    R520062   9.011   2.878   6.670 -0.2303 -0.0832  0.0240
 1329ERGO    C120063   8.918   2.956   7.032 -0.0603 -0.0074  0.0518
 1329ERGO    C220064   8.847   2.851   7.364 -0.1014 -0.2788  0.2060
 1330ERGO   ROH20065  14.861   5.948   5.996 -0.2375 -0.0629  0.0205
 1330ERGO    R120066  14.792   6.142   6.191 -0.0375  0.0016  0.0286
 1330ERGO    R220067  14.635   6.083   6.411 -0.1012  0.1547  0.0241
 1330ERGO    R320068  14.845   6.188   6.548  0.0083 -0.0684  0.0313
 1330ERGO    R420069  14.645   6.128   6.753 -0.0412  0.0825  0.0321
 1330ERGO    R520070  14.744   6.319   6.720  0.1400 -0.0024  0.0611
 1330ERGO    C120071  14.848   6.252   7.081  0.0966 -0.1691  0.0435
 1330ERGO    C220072  14.774   6.127   7.375 -0.1261 -0.1393 -0.3006
 1331ERGO   ROH20073   8.237   3.449   6.491  0.2945  0.0445  0.1995
 1331ERGO    R120074   8.128   3.539   6.737  0.1276 -0.0057  0.1451
 1331ERGO    R220075   7.856   3.551   6.784  0.0973 -0.0258 -0.0337
 1331ERGO    R320076   7.920   3.400   7.001 -0.0433 -0.0618 -0.0159
 1331ERGO    R420077   7.677   3.545   7.080  0.0106  0.0778 -0.0829
 1331ERGO    R520078   7.866   3.539   7.188 -0.0174 -0.0270 -0.0311
 1331ERGO    C120079   7.633   3.399   7.455 -0.1719  0.1044 -0.0949
 1331ERGO    C220080   7.483   3.607   7.661  0.1078 -0.5057 -0.1392
 1332ERGO   ROH20081  14.888  14.676   6.436 -0.0210 -0.2152  0.0000
 1332ERGO    R120082  15.063  14.540   6.612  0.0216 -0.0889  0.0576
 1332ERGO    R220083  15.215  14.672   6.802 -0.0880  0.0297  0.0703
 1332ERGO    R320084  15.095  14.498   6.972 -0.0284 -0.0109  0.0704
 1332ERGO    R420085  15.319  14.607   7.125 -0.0921  0.0886  0.0829
 1332ERGO    R520086  15.275  14.396   7.092  0.0000  0.0713  0.0924
 1332ERGO    C120087  15.266  14.406   7.473 -0.0385  0.0848  0.0904
 1332ERGO    C220088  15.249  14.588   7.782  0.2290  0.0057 -0.1573
 1333ERGO   ROH20089  14.728  12.184   6.124 -0.1558 -0.1941  0.0158
 1333ERGO    R120090  14.660  12.069   6.374  0.2230 -0.3471  0.0521
 1333ERGO    R220091  14.850  12.011   6.567  0.4256  0.4867  0.1284
 1333ERGO    R320092  14.688  12.163   6.724 -0.2332 -0.0483  0.0190
 1333ERGO    R420093  14.823  11.982   6.910  0.5054  0.5529  0.1421
 1333ERGO    R520094  14.608  12.012   6.891  0.3420 -0.3142  0.0885
 1333ERGO    C120095  14.656  12.108   7.257 -0.0666  0.0893  0.0473
 1333ERGO    C220096  14.694  12.132   7.583  0.3274  0.0557 -0.0468
 1334ERGO   ROH20097   4.506  14.337   5.986 -0.0313 -0.1423 -0.0285
 1334ERGO    R120098   4.384  14.340   6.242  0.0403 -0.1197  0.0050
 1334ERGO    R220099   4.371  14.115   6.403  0.1600 -0.0848  0.0637
 1334ERGO    R320100   4.489  14.279   6.585  0.1581 -0.0006 -0.0095
 1334ERGO    R420101   4.332  14.091   6.746  0.0884  0.1316  0.0732
 1334ERGO    R520102   4.324  14.308   6.756  0.1321  0.1384 -0.0586
 1334ERGO    C120103   4.421  14.231   7.116  0.0448  0.3365  0.0101
 1334ERGO    C220104   4.414  14.235   7.378  0.0579  0.1497 -0.1177
 1335ERGO   ROH20105   3.967   6.121   6.042  0.0020 -0.0916  0.0205
 1335ERGO    R120106   4.037   5.992   6.284 -0.1287 -0.0043  0.1065
 1335ERGO    R220107   4.133   6.130   6.504  0.0039  0.0493  0.0218
 1335ERGO    R320108   3.928   6.005   6.631 -0.1272  0.3315  0.0966
 1335ERGO    R420109   4.097   6.108   6.847  0.0772  0.1075  0.0335
 1335ERGO    R520110   4.030   5.902   6.822 -0.2098  0.1995  0.0654
 1335ERGO    C120111   3.884   5.977   7.166 -0.0032  0.4064  0.1105
 1335ERGO    C220112   3.827   5.992   7.456  0.0905 -0.0357 -0.0242
 1336ERGO   ROH20113   6.512   3.088   5.977 -0.0909 -0.0845 -0.0891
 1336ERGO    R120114   6.488   2.955   6.226  0.0835 -0.0411 -0.0472
 1336ERGO    R220115   6.683   2.967   6.421  0.0973  0.2254 -0.0740
 1336ERGO    R320116   6.476   3.050   6.577  0.0248  0.0486 -0.0734
 1336ERGO    R420117   6.655   2.910   6.761  0.1864  0.2691 -0.0593
 1336ERGO    R520118   6.443   2.872   6.733  0.2208  0.0462 -0.0322
 1336ERGO    C120119   6.445   2.955   7.105  0.1702  0.1286 -0.0500
 1336ERGO    C220120   6.368   2.847   7.474  0.0989 -0.1546 -0.2913
 1337ERGO   ROH20121  16.824  16.436   6.244 -0.1028 -0.0771 -0.1272
 1337ERGO    R120122  16.913  16.462   6.511 -0.0900 -0.1266 -0.1265
 1337ERGO    R220123  16.739  16.505   6.722 -0.0706 -0.0582 -0.1240
 1337ERGO    R320124  16.861  16.285   6.825 -0.1670 -0.1162 -0.1332
 1337ERGO    R420125  16.767  16.434   7.059  0.2395  0.1157 -0.1096
 1337ERGO    R520126  16.970  16.364   7.023  0.1345 -0.1022 -0.3001
 1337ERGO    C120127  16.898  16.186   7.352  0.3293  0.1624 -0.1098
 1337ERGO    C220128  16.941  16.104   7.676 -0.0211 -0.0760 -0.0344
 1338ERGO   ROH20129   5.520   4.331   6.008  0.1110 -0.0920  0.2069
 1338ERGO    R120130   5.595   4.229   6.261  0.0896 -0.1370  0.1955
 1338ERGO    R220131   5.677   4.391   6.469  0.0280 -0.1705  0.2462
 1338ERGO    R320132   5.480   4.262   6.605  0.0299 -0.2369  0.1858
 1338ERGO    R420133   5.672   4.344   6.811  0.0046 -0.2791  0.2310
 1338ERGO    R520134   5.596   4.142   6.778  0.0301 -0.2787  0.1585
 1338ERGO    C120135   5.484   4.196   7.139 -0.0073 -0.4047  0.1655
 1338ERGO    C220136   5.550   4.198   7.475  0.2926  0.0931  0.2140
 1339ERGO   ROH20137   4.051   3.482   6.147 -0.0583  0.1414 -0.1785
 1339ERGO    R120138   4.209   3.487   6.382 -0.0637  0.0290 -0.1716
 1339ERGO    R220139   4.238   3.714   6.537  0.0389 -0.0077 -0.1336
 1339ERGO    R320140   4.154   3.549   6.736 -0.0480 -0.0010 -0.1645
 1339ERGO    R420141   4.224   3.799   6.872 -0.0629 -0.0178 -0.1350
 1339ERGO    R520142   4.298   3.600   6.921 -0.1052 -0.0258 -0.1151
 1339ERGO    C120143   4.137   3.694   7.253 -0.2038 -0.0174 -0.1650
 1339ERGO    C220144   4.054   3.629   7.592 -0.0370 -0.0558 -0.2332
 1340ERGO   ROH20145   4.725   8.880   5.970 -0.3000 -0.1366  0.0345
 1340ERGO    R120146   4.871   8.803   6.200  0.0059  0.0190 -0.1035
 1340ERGO    R220147   4.994   8.985   6.366 -0.1744  0.1640 -0.1337
 1340ERGO    R320148   4.850   8.859   6.559  0.1816 -0.1543 -0.0627
 1340ERGO    R420149   5.057   9.008   6.705 -0.1863  0.4917 -0.1499
 1340ERGO    R520150   5.013   8.795   6.722  0.3943  0.3606 -0.0493
 1340ERGO    C120151   4.958   8.903   7.084  0.1410  0.3839 -0.0928
 1340ERGO    C220152   4.937   8.992   7.461  0.0747 -0.1188 -0.2161
 1341ERGO   ROH20153   9.610   6.731   5.911  0.0851  0.2463  0.1181
 1341ERGO    R120154   9.657   6.799   6.182 -0.2530  0.1814  0.1967
 1341ERGO    R220155   9.455   6.804   6.371 -0.3880 -0.5248  0.0981
 1341ERGO    R320156   9.621   6.636   6.505  0.0205 -0.1718  0.0557
 1341ERGO    R420157   9.470   6.774   6.715 -0.3813 -0.6362  0.0885
 1341ERGO    R520158   9.687   6.760   6.699 -0.3286 -0.0808  0.1226
 1341ERGO    C120159   9.635   6.598   7.041  0.0062 -0.3697  0.0432
 1341ERGO    C220160   9.784   6.561   7.486  0.0901 -0.1497 -0.0295
 1342ERGO   ROH20161  16.528  12.664   6.416 -0.0050 -0.0197 -0.1593
 1342ERGO    R120162  16.491  12.533   6.664  0.0604  0.0543 -0.1090
 1342ERGO    R220163  16.677  12.546   6.869  0.0616  0.2164 -0.1131
 1342ERGO    R320164  16.464  12.631   7.013  0.0227  0.1738 -0.1465
 1342ERGO    R420165  16.647  12.520   7.212 -0.1123 -0.0306 -0.1447
 1342ERGO    R520166  16.438  12.467   7.185 -0.1127  0.0562 -0.2814
 1342ERGO    C120167  16.429  12.585   7.547 -0.2500 -0.2142 -0.1946
 1342ERGO    C220168  16.430  12.678   7.807 -0.2030  0.1935  0.1194
 1343ERGO   ROH20169   3.477  15.572   6.222  0.3100 -0.1562 -0.1056
 1343ERGO    R120170   3.600  15.527   6.473  0.1937 -0.0890 -0.0357
 1343ERGO    R220171   3.495  15.624   6.710  0.0880 -0.0180 -0.1109
 1343ERGO    R320172   3.511  15.363   6.786  0.0453  0.0027 -0.0288
 1343ERGO    R420173   3.487  15.512   7.037  0.1299  0.0897 -0.0726
 1343ERGO    R520174   3.642  15.368   6.987  0.0872  0.0387 -0.0570
 1343ERGO    C120175   3.498  15.203   7.299  0.1142  0.1719  0.0269
 1343ERGO    C220176   3.341  15.158   7.556 -0.1607  0.0918 -0.0732
 1344ERGO   ROH20177  14.707  15.097   6.225 -0.0681  0.0375 -0.0318
 1344ERGO    R120178  14.791  15.121   6.494 -0.1733  0.0969 -0.0038
 1344ERGO    R220179  14.619  15.084   6.708 -0.1643 -0.2911 -0.0570
 1344ERGO    R320180  14.806  14.903   6.786  0.1501  0.0163 -0.0767
 1344ERGO    R420181  14.671  14.981   7.033 -0.0722 -0.3268 -0.0826
 1344ERGO    R520182  14.885  14.986   6.996 -0.0625  0.0822 -0.0197
 1344ERGO    C120183  14.878  14.752   7.296  0.2767 -0.0591 -0.1160
 1344ERGO    C220184  14.820  14.722   7.583 -0.1778  0.0924  0.0442
 1345ERGO   ROH20185   9.669   1.769   5.917  0.0874  0.1261 -0.2188
 1345ERGO    R120186   9.522   1.698   6.148 -0.0774  0.1163 -0.3254
 1345ERGO    R220187   9.611   1.752   6.404 -0.0031 -0.3589 -0.2435
 1345ERGO    R320188   9.368   1.873   6.429  0.2107  0.0690 -0.1336
 1345ERGO    R420189   9.440   1.790   6.702  0.0181 -0.4357 -0.2210
 1345ERGO    R520190   9.255   1.743   6.595 -0.0623  0.0499 -0.3258
 1345ERGO    C120191   9.112   1.926   6.898  0.2312 -0.0787 -0.1047
 1345ERGO    C220192   9.046   1.924   7.271  0.0877  0.2411 -0.2135
 1346ERGO   ROH20193   6.548  14.009   6.326  0.0194  0.0817 -0.0112
 1346ERGO    R120194   6.632  13.928   6.584 -0.0794  0.0253  0.0045
 1346ERGO    R220195   6.638  14.100   6.799  0.0631  0.0430 -0.0071
 1346ERGO    R320196   6.485  13.908   6.916 -0.1313  0.1953 -0.0090
 1346ERGO    R420197   6.616  14.045   7.140  0.1604 -0.0732 -0.0194
 1346ERGO    R520198   6.617  13.830   7.100 -0.1422 -0.0572 -0.1082
 1346ERGO    C120199   6.460  13.833   7.448  0.0346  0.0020 -0.0283
 1346ERGO    C220200   6.399  13.809   7.685 -0.0351  0.1447  0.1362
 1347W        W20201  10.635  15.327   2.925 -0.2468 -0.1436  0.1427
 1348W        W20202   8.995   0.747   3.408 -0.0355 -0.0836  0.1135
 1349W        W20203   5.023   3.480   0.929  0.0562 -0.2920 -0.1833
 1350W        W20204   2.615  12.205   2.106  0.1922  0.0373 -0.2013
 1351W        W20205   4.042   9.359   0.367 -0.0692 -0.0151  0.3816
 1352W        W20206  13.510  15.201  12.669  0.4236  0.2977 -0.0377
 1353W        W20207  12.537  17.364   2.675 -0.1648  0.2846 -0.0920
 1354W        W20208   8.162   4.944   0.000  0.2921  0.0887  0.0063
 1355W        W20209   0.162  17.188   3.720  0.3399  0.0409 -0.0595
 1356W        W20210   0.541   9.886   4.936  0.3942 -0.3596  0.2977
 1357W        W20211  11.724   0.426   2.602  0.0212  0.0797 -0.2088
 1358W        W20212  17.012  13.820   0.032  0.5020 -0.0308 -0.1626
 1359W        W20213   8.452   9.844   2.908  0.0205  0.1345 -0.2692
 1360W        W20214   4.398   9.755  14.042 -0.2163  0.0674 -0.0348
 1361W        W20215   3.569  14.364  14.385 -0.2983 -0.2081 -0.0059
 1362W        W20216   5.178   7.448  15.220 -0.0027  0.0239 -0.0016
 1363W        W20217  11.934   7.050   0.231 -0.1082  0.0667  0.1335
 1364W        W20218  13.978   9.280   0.937  0.0590  0.0881  0.3299
 1365W        W20219   6.971   0.493   3.975 -0.0520 -0.0107  0.1351
 1366W        W20220   4.479  11.416  13.597 -0.3572 -0.0340 -0.0057
 1367W        W20221  11.653  18.002   0.423  0.0096 -0.2955  0.4060
 1368W        W20222   3.751   0.170   4.124  0.1596  0.1640  0.1455
 1369W        W20223   7.509   9.965   1.274  0.0704  0.4092  0.1035
 1370W        W20224   5.588  12.608   4.566 -0.0341 -0.1305  0.1446
 1371W        W20225   2.236  15.241  11.978 -0.3653  0.0603 -0.1018
 1372W        W20226  12.824   4.880   0.557  0.0171  0.1560 -0.0997
 1373W        W20227   4.545   5.277  12.502  0.1665  0.3150 -0.1784
 1374W        W20228  10.794  10.578   1.569 -0.0703 -0.0450  0.1804
 1375W        W20229   9.097   1.007   4.383 -0.4993 -0.0014  0.2002
 1376W        W20230   4.197   6.423  12.277 -0.1714  0.0848  0.2287
 1377W        W20231  13.598  15.942  14.869 -0.1980 -0.0344 -0.1925
 1378W        W20232   7.092   3.477  15.258  0.2504 -0.0224 -0.0877
 1379W        W20233  13.669   4.867  14.028 -0.1086  0.1136  0.0905
 1380W        W20234   5.682   5.795   2.187 -0.0076  0.0914 -0.0886
 1381W        W20235   4.507  11.285  12.534 -0.1858 -0.0847  0.0170
 1382W        W20236  11.997   5.271   2.906 -0.0184  0.0642  0.3081
 1383W        W20237   4.513   2.429   0.958 -0.3338 -0.0127 -0.2266
 1384W        W20238  14.735  10.444   3.658 -0.3169  0.3541  0.3028
 1385W        W20239   4.577   7.993   0.242 -0.0986  0.1661  0.0458
 1386W        W20240   0.731   2.721  14.744  0.2986 -0.1308 -0.1336
 1387W        W20241   6.037  12.241  14.569  0.0606 -0.1787  0.2438
 1388W        W20242  10.632  16.895  14.173  0.4857 -0.2783 -0.0413
 1389W        W20243   8.083  16.630   0.516  0.0107 -0.1041 -0.2596
 1390W        W20244   0.367  11.989  13.695  0.1212 -0.0314 -0.1323
 1391W        W20245   5.311   8.858   0.627  0.0274  0.0528 -0.0825
 1392W        W20246  13.345  15.606  14.591  0.1090 -0.1107  0.0091
 1393W        W20247   0.740  13.575  11.963 -0.0308  0.0845 -0.0309
 1394W        W20248   7.957   0.947  14.822  0.1566  0.2864  0.0997
 1395W        W20249   8.069  13.892  14.763  0.2728  0.1292 -0.1328
 1396W        W20250  12.219   1.667  14.477 -0.0641  0.1749  0.0653
 1397W        W20251  13.924  11.942  13.618  0.2724  0.1707 -0.1668
 1398W        W20252   5.885  10.621  15.849 -0.3007 -0.0338 -0.0182
 1399W        W20253  17.400   9.479   2.057  0.0179 -0.1588  0.1570
 1400W        W20254  13.006   0.315  13.064 -0.0690  0.0845 -0.1315
 1401W        W20255  12.630  16.333  14.520 -0.2503 -0.1512 -0.1705
 1402W        W20256  16.777  13.196   3.662  0.1660  0.0774  0.1877
 1403W        W20257   2.529  14.066   3.664  0.1802 -0.0425 -0.2105
 1404W        W20258  10.195   4.809  15.515 -0.2809  0.1740 -0.2881
 1405W        W20259  11.743   6.096   3.475 -0.1202 -0.2046  0.2130
 1406W        W20260   0.965   2.168   0.090  0.0704 -0.0947  0.1573
 1407W        W20261  10.193   5.075   2.544  0.0334 -0.0008  0.0134
 1408W        W20262   7.632  15.361   5.048 -0.0254  0.0846  0.0716
 1409W        W20263  16.230  15.028  16.133  0.2592 -0.0205  0.0605
 1410W        W20264  16.224   0.964   2.191  0.4222  0.0718  0.0179
 1411W        W20265  15.482  10.468  14.314  0.0778 -0.0833  0.1392
 1412W        W20266  17.086  10.469  14.905  0.0501 -0.0106 -0.2535
 1413W        W20267  15.296  11.545   4.670  0.1013  0.1144 -0.1348
 1414W        W20268  10.563   6.092   3.329  0.0490 -0.2522 -0.0609
 1415W        W20269  16.777  12.723   5.112 -0.0048 -0.0654 -0.1022
 1416W        W20270   9.553  17.587   5.675 -0.2501 -0.1395 -0.2059
 1417W        W20271  17.420  17.830  12.554  0.2781  0.2595 -0.1342
 1418W        W20272   4.330   4.995  12.913 -0.4097  0.0203 -0.3854
 1419W        W20273  12.436   2.249   2.791  0.0035  0.4444  0.0032
 1420W        W20274   8.236  10.592   4.109  0.1551  0.1505  0.0996
 1421W        W20275   5.605   1.786  12.304 -0.2101  0.3269 -0.0671
 1422W        W20276   3.322  16.540   1.036  0.0389  0.0194 -0.0990
 1423W        W20277  10.248   9.278   5.537 -0.0417 -0.2276 -0.0407
 1424W        W20278   6.247   8.685   5.973 -0.0609 -0.1925 -0.2258
 1425W        W20279  10.339   6.451   4.577 -0.2998 -0.0582  0.2010
 1426W        W20280   1.348   7.977  12.591 -0.3492  0.1413 -0.1339
 1427W        W20281   4.544   5.828   0.990  0.2120  0.2145 -0.1608
 1428W        W20282   0.106  17.092   2.680 -0.1407 -0.1893  0.1960
 1429W        W20283   1.659   2.600   3.537 -0.0003 -0.2415 -0.0987
 1430W        W20284   8.635   6.653  10.354 -0.2347  0.2141  0.2478
 1431W        W20285  10.547  14.083   0.375  0.1254 -0.1273 -0.0477
 1432W        W20286   1.359  11.216  14.178  0.3572  0.2433 -0.0284
 1433W        W20287  17.262   2.958  13.475 -0.0668 -0.4760 -0.3135
 1434W        W20288  16.559  16.059  12.798  0.1086 -0.1592 -0.2299
 1435W        W20289   9.050   9.305   1.205  0.2223 -0.1680  0.2224
 1436W        W20290  14.500   4.323  12.132  0.2052  0.0029  0.3385
 1437W        W20291  10.651  10.667  14.475  0.3369  0.1497 -0.4385
 1438W        W20292   5.938   8.701  13.552  0.1216  0.2378  0.0517
 1439W        W20293   7.516   5.872   3.832 -0.0407  0.0486  0.1354
 1440W        W20294   9.523  14.906   4.882 -0.3237  0.1705  0.4870
 1441W        W20295  10.201  13.659  10.939  0.0043 -0.0216  0.1696
 1442W        W20296   8.445   0.953  12.813  0.0871 -0.1038  0.2137
 1443W        W20297  10.522   6.783  15.856  0.2573 -0.1899  0.2155
 1444W        W20298   5.105   7.239  10.510  0.0385  0.0940 -0.2711
 1445W        W20299  17.975  17.939  13.326 -0.0072 -0.2802 -0.1602
 1446W        W20300   4.801   9.089  10.534 -0.0930  0.0940 -0.2623
 1447W        W20301  13.697   9.599   2.316  0.0654 -0.1779 -0.2807
 1448W        W20302   3.460   3.358  11.849  0.0069  0.4731  0.0321
 1449W        W20303  11.318  16.055  14.847  0.0624 -0.1448  0.1789
 1450W        W20304   1.518   3.878   3.098  0.0891 -0.1019 -0.1447
 1451W        W20305   9.820   0.185   0.238 -0.2839 -0.2068  0.0499
 1452W        W20306  16.956   8.761   2.152 -0.2589  0.1089 -0.0339
 1453W        W20307   3.242  15.373   4.615  0.1918  0.1199 -0.3913
 1454W        W20308   2.990  15.734  11.029 -0.0689 -0.0802  0.1372
 1455W        W20309  15.921   9.658   1.827  0.1184  0.1368 -0.0762
 1456W        W20310  17.276   6.129  15.886  0.0399 -0.0745 -0.1602
 1457W        W20311  14.079  14.641   3.337  0.0115 -0.1855 -0.0723
 1458W        W20312   1.548   4.793  11.830 -0.3991  0.0292 -0.2502
 1459W        W20313  16.881   3.066   1.480  0.1461 -0.4369  0.2798
 1460W        W20314  15.163  16.928  14.192 -0.2285  0.0930 -0.0912
 1461W        W20315   8.756   2.601  15.227 -0.3329  0.2337  0.1355
 1462W        W20316  15.656  11.261  16.108  0.0389 -0.1484 -0.0082
 1463W        W20317   5.191   0.502  13.318 -0.0084 -0.0327  0.2204
 1464W        W20318   2.402   8.166   1.912 -0.2477  0.1262 -0.2481
 1465W        W20319   5.798   7.879   4.463 -0.2129  0.1016 -0.1782
 1466W        W20320   5.888   5.203   5.854  0.1586 -0.1681  0.4464
 1467W        W20321  13.990  13.157  14.988  0.1901  0.0822 -0.3539
 1468W        W20322  13.277   8.039  13.623  0.3831  0.1506  0.0036
 1469W        W20323  11.816   3.800  11.800 -0.0361  0.2949 -0.1425
 1470W        W20324  14.121  10.198   4.443  0.0896 -0.1360  0.0862
 1471W        W20325   8.365   0.404  15.373  0.0579 -0.0954  0.1110
 1472W        W20326  17.665  16.004   1.448 -0.0288  0.0595  0.2175
 1473W        W20327  13.137  15.329   3.679  0.4207  0.0984 -0.0299
 1474W        W20328   8.142   2.526   5.446  0.0654  0.0941 -0.0706
 1475W        W20329  14.717   4.595  13.856 -0.0106 -0.0219 -0.1990
 1476W        W20330  10.860  11.389  15.084 -0.0933 -0.0208  0.3220
 1477W        W20331   1.940  10.498   3.798 -0.0309  0.1054 -0.0860
 1478W        W20332   2.448   1.305  13.390  0.0618  0.0467  0.1954
 1479W        W20333  14.249  17.061   0.761 -0.1809  0.3136  0.0765
 1480W        W20334   8.821   3.605   4.699  0.1056  0.1497  0.1842
 1481W        W20335  13.441   7.106  12.671  0.2937 -0.0280 -0.1244
 1482W        W20336   3.614   4.829  15.966  0.1196 -0.2654  0.1412
 1483W        W20337  12.591   1.470   4.367 -0.0069 -0.0308 -0.1406
 1484W        W20338  11.987  12.735   5.746  0.0711  0.1221  0.0455
 1485W        W20339  11.724   8.540   3.493 -0.2481  0.3144  0.1469
 1486W        W20340  12.849  13.508  12.245  0.5752  0.1699 -0.0217
 1487W        W20341   5.529   0.395   0.049 -0.0864  0.0009  0.0148
 1488W        W20342   8.476  17.096  15.465 -0.0880 -0.4146 -0.1664
 1489W        W20343   3.464   2.390   0.878 -0.1088 -0.0944  0.2190
 1490W        W20344   3.232   3.298  12.889 -0.2694  0.1280 -0.0164
 1491W        W20345  12.513   0.621   4.782  0.0296 -0.0686  0.1737
 1492W        W20346   2.748  17.800   1.591 -0.2704 -0.2855 -0.1283
 1493W        W20347  15.944  10.109   2.885 -0.0600 -0.1881  0.0399
 1494W        W20348   7.814  12.018   2.169  0.0547  0.3273 -0.1750
 1495W        W20349  10.289   7.310  14.423  0.0035 -0.0529  0.1282
 1496W        W20350   6.345   4.832   2.115  0.1690  0.1489  0.2131
 1497W        W20351   3.891   1.994   4.619 -0.2349 -0.1865 -0.0669
 1498W        W20352   0.843  14.766   0.425  0.0430 -0.0414  0.2290
 1499W        W20353   0.233  15.131   1.102 -0.0219  0.2716  0.2537
 1500W        W20354  17.482  17.177   1.163  0.1439 -0.0484 -0.0631
 1501W        W20355   5.901   6.283   3.585  0.0704  0.1370  0.5277
 1502W        W20356  13.422   2.042   4.028 -0.2616  0.0995 -0.0998
 1503W        W20357  11.591   1.230  13.223 -0.0176  0.1113  0.1886
 1504W        W20358   4.749   0.536  14.597 -0.0123 -0.3877 -0.1214
 1505W        W20359  11.236  12.303  12.961  0.1807  0.2042 -0.1992
 1506W        W20360   0.717   9.703  12.941 -0.3458 -0.2027  0.0152
 1507W        W20361  18.005  15.072  16.038 -0.2491 -0.0354  0.0858
 1508W        W20362   7.572  10.004  11.884  0.0232  0.1331  0.0731
 1509W        W20363   3.588   1.764   4.292 -0.2116  0.1048 -0.0925
 1510W        W20364  16.151   9.611   5.127 -0.4263  0.0430  0.0267
 1511W        W20365  10.238   3.529   0.528 -0.3412  0.0183 -0.3045
 1512W        W20366  10.981   3.438   2.521  0.1101  0.1400  0.1475
 1513W        W20367   8.103   6.013   5.075 -0.1141 -0.3117  0.0389
 1514W        W20368   9.857   9.088   0.937 -0.2068  0.1026  0.0299
 1515W        W20369   5.323   6.538   1.884 -0.1546  0.1968  0.3426
 1516W        W20370  13.045   5.839  12.863 -0.0224  0.0103 -0.2607
 1517W        W20371  12.922   8.424  15.491  0.0584 -0.4055 -0.1536
 1518W        W20372   9.077  12.454  14.437  0.0470  0.0281  0.0322
 1519W        W20373   8.249   9.997   4.743 -0.0135 -0.1381  0.2241
 1520W        W20374   6.098   5.406  15.310  0.1937 -0.1404  0.0565
 1521W        W20375   6.853   2.555  12.464  0.0043 -0.0881  0.1617
 1522W        W20376  17.252   4.713  15.954  0.1241 -0.0043 -0.0706
 1523W        W20377   3.588   2.231  12.229 -0.1332 -0.0390  0.4067
 1524W        W20378   8.336   8.391  12.234 -0.2049 -0.0036  0.0323
 1525W        W20379  13.701   5.726   4.091  0.0241 -0.1875 -0.0630
 1526W        W20380   6.477   2.437  13.320 -0.2701 -0.4208  0.0627
 1527W        W20381   3.567  16.187  14.654  0.1948  0.0008 -0.1007
 1528W        W20382   9.372   3.461  13.289 -0.1381  0.2372  0.3303
 1529W        W20383   2.305  12.983  15.919  0.2323 -0.3184 -0.3440
 1530W        W20384  14.502   8.460  12.249  0.0535  0.0580  0.3646
 1531W        W20385   9.552  16.800   4.379  0.0498  0.0969  0.2326
 1532W        W20386   1.350   1.600   3.832 -0.0830  0.2974  0.1249
 1533W        W20387  11.443  14.608   0.708  0.0834  0.0270  0.0654
 1534W        W20388  16.125  12.197  12.330 -0.1577  0.0136  0.3745
 1535W        W20389   5.362   3.504   1.284  0.1849 -0.1611  0.1323
 1536W        W20390  16.144  16.657   0.108  0.1266  0.0943  0.0323
 1537W        W20391  13.267  11.135   3.217 -0.2567  0.0947  0.0283
 1538W        W20392   2.145   6.719   3.952 -0.1818 -0.1952  0.0500
 1539W        W20393   3.142   4.228   3.559 -0.0640  0.1338 -0.0967
 1540W        W20394   5.946  13.146  12.455 -0.2713  0.1400  0.1663
 1541W        W20395   6.185   4.367   2.140  0.2324  0.2195  0.0469
 1542W        W20396  14.288   5.832   1.233  0.3554 -0.1863  0.0827
 1543W        W20397  12.104  14.742  15.967  0.1002  0.0734 -0.1643
 1544W        W20398   5.843  10.830   0.518 -0.1175  0.1431 -0.2041
 1545W        W20399   3.154   9.328   0.243 -0.1278 -0.3023  0.1308
 1546W        W20400  13.313  16.108  11.746 -0.2728  0.4499  0.1029
 1547W        W20401  14.567  13.486  12.039 -0.0547  0.0744  0.0059
 1548W        W20402   4.410   0.488   1.663  0.5092 -0.1082  0.4380
 1549W        W20403  17.363   0.025  15.550 -0.0445 -0.3394  0.3467
 1550W        W20404  12.848  16.534   3.564  0.1639 -0.0563 -0.1363
 1551W        W20405  14.166   9.039   4.235  0.0570  0.1733  0.2059
 1552W        W20406  12.714  17.388  14.329 -0.0228 -0.0567  0.1522
 1553W        W20407   1.069   4.051  11.435 -0.1940 -0.1083  0.1260
 1554W        W20408   6.854   8.521  11.755 -0.2327  0.0508  0.2016
 1555W        W20409  10.079  16.263  14.468  0.1309  0.1862  0.2520
 1556W        W20410   5.310   2.737   3.614 -0.0711  0.0800  0.1527
 1557W        W20411  13.378  15.218   1.023 -0.1643  0.0896  0.3029
 1558W        W20412  12.004  15.491  12.045  0.1165 -0.0622 -0.0989
 1559W        W20413   0.032   7.860  10.594  0.4097 -0.0422  0.1751
 1560W        W20414   7.343   7.939   1.651  0.0502  0.0138  0.2185
 1561W        W20415  11.628   3.555   1.197 -0.0556  0.1867 -0.0212
 1562W        W20416  12.326  10.762  11.771 -0.1958  0.0699 -0.1138
 1563W        W20417   6.270   3.590   1.557 -0.1744  0.1431  0.0733
 1564W        W20418   6.912  16.203   2.257 -0.0972 -0.1761 -0.0627
 1565W        W20419  15.459   8.706   1.769  0.0634  0.0970  0.0449
 1566W        W20420  11.535  11.131  14.404 -0.5324 -0.0732  0.3001
 1567W        W20421  11.332  16.554   5.630  0.1574 -0.1149  0.1007
 1568W        W20422  12.058   5.537  11.874  0.2310  0.0033 -0.0989
 1569W        W20423  13.031  16.171   0.270  0.0188  0.1679 -0.0947
 1570W        W20424  17.436  11.109  13.567 -0.0829  0.2159 -0.1090
 1571W        W20425   8.094  11.331   4.942  0.1149 -0.0053 -0.0073
 1572W        W20426   1.361   4.605  13.767  0.0668 -0.1070  0.2528
 1573W        W20427  10.162  17.548  15.106 -0.2426 -0.1466  0.0007
 1574W        W20428   3.914  14.354   1.491  0.3114  0.0554  0.0080
 1575W        W20429   4.629  13.225   1.638 -0.0760  0.0305  0.1368
 1576W        W20430   5.001   3.233   1.395 -0.0341  0.1001 -0.0669
 1577W        W20431  10.236   4.239   1.900  0.4043 -0.0702  0.0309
 1578W        W20432   5.077  14.311   0.288 -0.1470 -0.0739  0.0321
 1579W        W20433   8.338  13.505   6.246  0.3065  0.1723  0.0540
 1580W        W20434   5.942   8.298  16.006 -0.0235  0.4021 -0.3667
 1581W        W20435  14.758  16.370  15.861 -0.0268 -0.2590 -0.0338
 1582W        W20436  11.568  10.242  15.883  0.3513  0.0329 -0.0670
 1583W        W20437  11.068   6.014   3.499  0.2599 -0.2155 -0.1616
 1584W        W20438   7.456   5.058  12.140  0.3646 -0.2731  0.1954
 1585W        W20439  15.388  10.764  12.375 -0.2642 -0.3301 -0.0140
 1586W        W20440   1.193  11.973  14.560 -0.3682  0.2735  0.2097
 1587W        W20441   1.583  14.926  14.355 -0.2138 -0.1124  0.0984
 1588W        W20442   0.527   4.489   4.349 -0.1866 -0.2935  0.0303
 1589W        W20443  17.517   3.232  11.663 -0.2979 -0.2780 -0.1287
 1590W        W20444   6.178  10.371  15.468 -0.0566  0.0822  0.3657
 1591W        W20445   8.971  16.466  14.238 -0.1004  0.0262  0.0876
 1592W        W20446   2.593   3.433  11.794 -0.0020  0.1269 -0.0158
 1593W        W20447  14.028   5.191   0.060  0.2394  0.2327 -0.0437
 1594W        W20448  15.345  10.925  12.854 -0.3853  0.3819 -0.2004
 1595W        W20449  17.722  16.036   2.386  0.0388 -0.1640 -0.1893
 1596W        W20450  11.298  15.630  13.989 -0.0598  0.3015 -0.1290
 1597W        W20451   6.884  13.044   2.141  0.3456  0.0745  0.1696
 1598W        W20452  14.408   6.139   3.379  0.1764 -0.1004  0.0558
 1599W        W20453   1.639  16.441   3.846  0.1513  0.1105 -0.0953
 1600W        W20454   0.796  10.857  15.526  0.1473 -0.1563 -0.1464
 1601W        W20455   1.528   1.486   4.268 -0.2522 -0.0184  0.1028
 1602W        W20456  17.745   5.887   4.246  0.1553 -0.1776  0.0221
 1603W        W20457  17.368  10.168  15.710  0.0417 -0.0990 -0.1662
 1604W        W20458   9.710   8.401  15.520  0.1583  0.0910  0.0391
 1605W        W20459  13.888   1.138  12.253 -0.1851 -0.2687 -0.1994
 1606W        W20460   3.253  15.047  13.059 -0.2195  0.0662  0.2783
 1607W        W20461   4.992   9.906  15.785  0.5047 -0.2460 -0.0198
 1608W        W20462   8.754   6.710  15.823  0.1157 -0.0071 -0.2742
 1609W        W20463   7.505  13.203   3.914 -0.4424  0.1016  0.0116
 1610W        W20464  12.949  16.364  11.931  0.0223 -0.2840 -0.1477
 1611W        W20465   6.701  17.619  16.045 -0.6040 -0.3771 -0.1444
 1612W        W20466   2.711  14.016   0.403  0.1384  0.0972 -0.1609
 1613W        W20467   0.274  16.224   3.262  0.0885  0.1119 -0.1309
 1614W        W20468  13.023  13.921  12.595  0.0685 -0.1263  0.2523
 1615W        W20469   0.184   4.281  15.207 -0.1600 -0.2709  0.0282
 1616W        W20470   4.233   7.021   2.247  0.0812 -0.1670 -0.2698
 1617W        W20471  14.925   9.221  15.692  0.4244  0.2773 -0.0704
 1618W        W20472   4.570   9.544  11.881  0.1362 -0.2100  0.1539
 1619W        W20473   4.594   5.721   0.453 -0.2233  0.2659  0.0528
 1620W        W20474   2.000   8.101  11.599 -0.2804  0.2229 -0.0648
 1621W        W20475   0.112   7.295  14.351 -0.0902 -0.0424  0.0648
 1622W        W20476   0.672   2.612  13.768 -0.1379  0.2757  0.0544
 1623W        W20477   8.081  16.281   3.555 -0.2055 -0.1008  0.0381
 1624W        W20478  10.525   4.280   4.085  0.0966 -0.0473  0.2030
 1625W        W20479  17.233  17.119   0.661 -0.5178 -0.2162  0.0841
 1626W        W20480  17.038  16.602   4.964 -0.1379  0.1556 -0.1958
 1627W        W20481   9.062  16.105   4.230  0.0631  0.1022  0.2084
 1628W        W20482  15.677  13.382   3.947 -0.0589 -0.1857 -0.2186
 1629W        W20483   1.144  11.943  11.782  0.1556  0.0259 -0.1787
 1630W        W20484  15.965   5.018   1.519  0.4187  0.2628 -0.1242
 1631W        W20485   3.092  17.408  12.391 -0.1202  0.1247  0.1291
 1632W        W20486  15.096  14.344   5.147  0.1296 -0.1209 -0.1580
 1633W        W20487  14.335  15.908   2.394 -0.0944  0.1130  0.0472
 1634W        W20488  12.265   6.832  15.588 -0.2352  0.0066  0.1529
 1635W        W20489   8.899   5.505  13.383  0.1306  0.1094  0.2633
 1636W        W20490   7.466  13.791  14.793  0.0604  0.2597 -0.0568
 1637W        W20491  16.184  13.259   3.100 -0.0449 -0.2833  0.2901
 1638W        W20492  10.221  13.808  14.393  0.2262  0.1573 -0.2433
 1639W        W20493  17.602  13.641   3.733 -0.0884  0.0349 -0.1337
 1640W        W20494   9.796  11.823  15.406  0.2616 -0.0485  0.0596
 1641W        W20495  13.857   9.450  14.604  0.1873 -0.1012  0.0555
 1642W        W20496  16.107   1.846  12.328  0.0607 -0.0907  0.2934
 1643W        W20497   4.995  16.316  12.549 -0.0586  0.1858  0.0798
 1644W        W20498   9.943   3.893  14.452 -0.0921 -0.2232 -0.2614
 1645W        W20499  17.132   2.805  12.662 -0.3706  0.2757 -0.2321
 1646W        W20500  12.521   9.121  14.174  0.2995 -0.2901  0.0760
 1647W        W20501  10.028  12.730   3.040 -0.0307  0.0997  0.0941
 1648W        W20502   3.393   3.948  13.399  0.0404  0.0122 -0.1083
 1649W        W20503  17.797   6.195   2.453  0.3252  0.2104  0.2461
 1650W        W20504  16.463   2.142   2.763  0.2702  0.3498  0.0607
 1651W        W20505   1.847  13.747  13.884  0.2091  0.3062  0.2762
 1652W        W20506   2.892  17.996  15.889  0.0914 -0.0006 -0.0819
 1653W        W20507   6.574   8.549   0.289 -0.1197  0.0745 -0.0677
 1654W        W20508   0.989  16.364  13.412  0.4031  0.1892  0.0058
 1655W        W20509  10.643   7.008  14.992  0.1128  0.0848 -0.0924
 1656W        W20510  13.874   3.424   5.296 -0.0355  0.0364  0.0095
 1657W        W20511   6.495   2.661   4.683  0.1002  0.0063 -0.2763
 1658W        W20512   8.146  15.545  15.828  0.0498  0.1188  0.0958
 1659W        W20513   2.792  13.994   4.352  0.0700 -0.0132  0.0873
 1660W        W20514   0.446   2.518   3.258  0.0547  0.0024 -0.2360
 1661W        W20515   0.989   7.236   1.971 -0.0578 -0.0083 -0.0810
 1662W        W20516   0.985  13.071   0.651  0.0700 -0.2901  0.3151
 1663W        W20517   4.228   2.065   0.792  0.1542  0.0873 -0.1039
 1664W        W20518   1.614  12.647  11.764 -0.2394  0.1525 -0.2187
 1665W        W20519  10.611  15.570   0.187 -0.1950 -0.3064  0.0772
 1666W        W20520   3.033  16.300   3.688  0.1246  0.1757 -0.0946
 1667W        W20521  12.174   8.697   3.676 -0.0639 -0.1221  0.0893
 1668W        W20522  10.214  17.709   2.055 -0.3005  0.0883  0.0407
 1669W        W20523   1.393  17.328   0.663  0.2110 -0.0641  0.1932
 1670W        W20524  17.036  10.216   1.406 -0.1823  0.1374 -0.0764
 1671W        W20525  14.554   9.631  11.246 -0.4781  0.1652 -0.2474
 1672W        W20526   3.893   4.894   0.922  0.0469 -0.3931 -0.3399
 1673W        W20527   5.113  15.462   1.387 -0.0018 -0.1090 -0.1948
 1674W        W20528   6.109   9.089  15.381 -0.1686  0.0339  0.1268
 1675W        W20529  12.290   9.218   3.935  0.2811  0.1117 -0.0325
 1676W        W20530  12.342   1.948   5.019  0.3762 -0.1306 -0.0612
 1677W        W20531   8.558  16.093  15.078  0.3174 -0.1553  0.0719
 1678W        W20532  10.989  12.003   2.428  0.0182  0.0587 -0.3162
 1679W        W20533  17.973  10.631  14.631 -0.0547 -0.4706  0.2356
 1680W        W20534  14.477   2.122   3.648  0.2226  0.0437 -0.0155
 1681W        W20535   2.256   3.108   3.895  0.0325 -0.2851 -0.1342
 1682W        W20536   4.854  10.485   1.268 -0.0762 -0.0891 -0.2770
 1683W        W20537   6.298   6.766   1.038  0.2462 -0.1878  0.2333
 1684W        W20538  11.279  14.563  14.615 -0.1338 -0.0053  0.0624
 1685W        W20539  12.294   3.241   0.868 -0.0524 -0.2015  0.0049
 1686W        W20540   6.696   2.090   5.239  0.0624  0.4061 -0.2196
 1687W        W20541  14.813  11.865  14.205  0.0842 -0.0998  0.1937
 1688W        W20542  16.289   0.367  14.669  0.4965  0.0534  0.2491
 1689W        W20543   6.530   5.129   2.489  0.3745  0.0295  0.1127
 1690W        W20544  14.127   9.881  14.562 -0.0836  0.1401 -0.1730
 1691W        W20545  11.189  17.791   3.030 -0.2455 -0.0565  0.0101
 1692W        W20546   0.204   7.125   2.588  0.1456 -0.2221 -0.1112
 1693W        W20547   7.972   1.735   3.526 -0.1497 -0.2287  0.1521
 1694W        W20548   2.624   7.928  14.081  0.1709  0.1192  0.0736
 1695W        W20549  16.813   5.232   1.862 -0.0615  0.0687  0.2310
 1696W        W20550   4.630   9.520   4.552  0.1022 -0.0171 -0.2014
 1697W        W20551   3.726   5.575   0.990 -0.3497  0.0284  0.1695
 1698W        W20552   4.995  12.553  11.040  0.0851 -0.0175 -0.2318
 1699W        W20553  15.406  13.988   5.318 -0.2409  0.1268  0.0029
 1700W        W20554  17.073   2.017   4.355 -0.1796 -0.1781 -0.3127
 1701W        W20555  10.482  11.682  11.776  0.0181 -0.2983  0.0057
 1702W        W20556   6.009   4.690   0.203 -0.0540 -0.0576  0.1978
 1703W        W20557  13.872   0.561  11.570 -0.3333 -0.0305 -0.1686
 1704W        W20558  15.933  17.103  16.177  0.2301 -0.0392 -0.4140
 1705W        W20559   7.761   5.682   2.921 -0.1424  0.3397 -0.2697
 1706W        W20560   6.016   8.401   0.348  0.2320 -0.1413 -0.0329
 1707W        W20561  16.929  13.225  15.937 -0.1249 -0.1856  0.0149
 1708W        W20562   9.877  12.429   4.714 -0.2439 -0.1479  0.1617
 1709W        W20563  15.864  15.607   2.361 -0.0132 -0.3088 -0.0739
 1710W        W20564   4.281  11.572  14.464  0.2677 -0.1896 -0.1777
 1711W        W20565  11.360  12.335  13.943 -0.0319  0.0933  0.0384
 1712W        W20566   1.865  14.830  11.892 -0.2253  0.0535 -0.1749
 1713W        W20567   9.556  13.139   3.169  0.0692 -0.0292  0.0216
 1714W        W20568   9.377   8.453   3.292 -0.2348 -0.0138 -0.2899
 1715W        W20569   4.329   9.717  11.510  0.0488 -0.1879  0.0062
 1716W        W20570   0.219   1.856  14.796  0.0865  0.0793  0.1393
 1717W        W20571   3.646   1.056   2.107  0.0876  0.2960 -0.1437
 1718W        W20572   5.000  12.191   0.983 -0.1825  0.1084 -0.1310
 1719W        W20573  11.803  16.402  14.794  0.0601 -0.1726  0.2616
 1720W        W20574  15.777   7.039  15.159  0.0629 -0.0307  0.2008
 1721W        W20575   2.336   1.047  15.875  0.3102 -0.0473 -0.2065
 1722W        W20576   1.191  15.340  15.306  0.2987  0.0793 -0.1359
 1723W        W20577   4.962   7.623  13.911  0.0873 -0.0354  0.1432
 1724W        W20578   5.660  17.860  15.708  0.2236 -0.0692  0.2301
 1725W        W20579  11.757   2.695  13.903 -0.0495 -0.0495 -0.1082
 1726W        W20580  13.333  13.170   0.103  0.2034 -0.1296 -0.0036
 1727W        W20581   9.632   0.336  15.567 -0.0748  0.0278  0.0345
 1728W        W20582  10.781   5.296  12.363  0.1559 -0.3873  0.1682
 1729W        W20583   9.288  16.080   3.345 -0.4823  0.2269  0.1615
 1730W        W20584   2.480  11.948  14.666  0.2143  0.0187 -0.0669
 1731W        W20585   7.275   9.332  12.127 -0.2709  0.1116 -0.0282
 1732W        W20586  13.768   4.355  14.515  0.1535  0.1425  0.0960
 1733W        W20587   5.692  11.101   4.037  0.0290 -0.0439  0.3135
 1734W        W20588   1.873   4.509   1.359 -0.0503  0.0621  0.0071
 1735W        W20589  12.723   6.015  13.911  0.0543  0.0268 -0.1017
 1736W        W20590   7.186   3.860   3.024  0.1729  0.4313  0.0138
 1737W        W20591  10.534   4.319   4.788  0.0347 -0.1282  0.3348
 1738W        W20592  14.757  14.483   1.361  0.3636 -0.4692 -0.0301
 1739W        W20593   2.145  12.222  11.856  0.5261 -0.2309 -0.0662
 1740W        W20594   3.815   7.190  14.742 -0.1677  0.1616 -0.1965
 1741W        W20595   2.903  12.394  13.228  0.0815 -0.2327 -0.3679
 1742W        W20596  16.346   2.692  14.293 -0.2749 -0.0507  0.1010
 1743W        W20597   9.559   7.172  12.063  0.4005 -0.2295 -0.1095
 1744W        W20598   3.173  14.011   0.153  0.0600  0.0329 -0.3378
 1745W        W20599   3.405  17.685   4.344 -0.1594 -0.2074  0.0965
 1746W        W20600   6.341  10.737   4.587 -0.2638 -0.2254 -0.0774
 1747W        W20601   6.024   2.543  12.152 -0.3754 -0.1484  0.2428
 1748W        W20602   3.489  11.774   4.695  0.0199 -0.1579  0.3442
 1749W        W20603   9.425   7.399   4.282 -0.1637 -0.2490  0.1483
 1750W        W20604   0.065   8.359   5.173 -0.0913  0.2697  0.0932
 1751W        W20605  18.007   7.294  15.975  0.0240 -0.0995  0.0879
 1752W        W20606   1.200  14.211  16.082  0.1423  0.1019 -0.3242
 1753W        W20607  12.173   2.486  12.679  0.0424 -0.1334  0.0139
 1754W        W20608  17.733  10.253   2.593  0.0744 -0.0706  0.1567
 1755W        W20609   6.279   7.530   1.657  0.0019 -0.0444  0.1653
 1756W        W20610  14.804  15.797   3.321  0.3706  0.1190  0.0731
 1757W        W20611   0.527  15.810   1.310  0.0665  0.3782  0.0237
 1758W        W20612  15.693   6.310  13.148  0.1519 -0.0188  0.0893
 1759W        W20613  10.515   1.779  14.765 -0.1004 -0.1065  0.1919
 1760W        W20614   9.485  13.165   3.695  0.0717  0.0041 -0.1422
 1761W        W20615   1.111   7.701   2.195  0.1912  0.2314 -0.1585
 1762W        W20616   1.128  15.501   5.202  0.1255 -0.2401 -0.0234
 1763W        W20617  14.699   0.678  12.649  0.0471  0.1867  0.2155
 1764W        W20618   0.432  17.685  16.199 -0.1368 -0.1081 -0.0968
 1765W        W20619   8.728  13.037  15.181 -0.1496  0.0348 -0.1278
 1766W        W20620  14.028  12.190  15.958 -0.1047 -0.0633  0.0458
 1767W        W20621  14.451  14.038   1.512 -0.0381 -0.1313 -0.0560
 1768W        W20622   9.765  15.548   0.193  0.0742 -0.0075 -0.0055
 1769W        W20623   6.078  12.201  15.850 -0.1911 -0.0838  0.0836
 1770W        W20624  11.933  10.122   2.818 -0.0231  0.0584 -0.0619
 1771W        W20625   3.458   8.729  15.329  0.0269 -0.2549  0.1965
 1772W        W20626   4.424  17.944   1.491  0.0344  0.0690  0.3264
 1773W        W20627  11.237  17.344   0.977 -0.1117 -0.0329 -0.1845
 1774W        W20628  14.798   5.191   5.458  0.1089 -0.2634  0.2270
 1775W        W20629   9.165   1.908   5.994  0.1639  0.0909  0.0613
 1776W        W20630  17.177   0.366   3.508 -0.1771 -0.1075 -0.1489
 1777W        W20631  12.376  16.877   0.433  0.1144 -0.2036  0.0027
 1778W        W20632   0.714  12.000  14.484  0.2295  0.3205  0.1020
 1779W        W20633  10.252   3.985  13.435  0.2184  0.1450 -0.0011
 1780W        W20634  11.964  10.307   5.555  0.1643  0.1803 -0.2041
 1781W        W20635   6.185   9.184   3.180  0.0391 -0.1064 -0.0578
 1782W        W20636  10.513  12.905   4.358  0.0970 -0.2731  0.1441
 1783W        W20637   1.987   3.127  15.349  0.2239  0.2191  0.0249
 1784W        W20638   6.661   3.091  13.870 -0.4086  0.3392  0.2040
 1785W        W20639  12.093   0.078  14.977  0.2313 -0.1798 -0.0766
 1786W        W20640  13.799   5.987   1.441 -0.2891  0.0990 -0.0092
 1787W        W20641   1.191   5.846   1.167  0.1781  0.5174 -0.1631
 1788W        W20642  14.379  14.742  12.677 -0.1434 -0.2188 -0.1439
 1789W        W20643   5.983  11.532   5.702 -0.4101  0.1183  0.0169
 1790W        W20644   5.264  12.039   0.568  0.0193 -0.0205 -0.1593
 1791W        W20645  14.679  16.073   4.159 -0.0720 -0.1650 -0.0744
 1792W        W20646  11.139   3.900   2.226  0.1108 -0.2009  0.0239
 1793W        W20647   0.245   1.584  12.722 -0.1761  0.1310 -0.2183
 1794W        W20648   3.149   2.247   3.723 -0.0727 -0.1225 -0.0781
 1795W        W20649   2.108  10.940   1.686  0.0232 -0.0051  0.0464
 1796W        W20650  16.663  15.867  15.965 -0.1324  0.2684  0.0272
 1797W        W20651  17.885  14.624   2.298 -0.2764 -0.2898 -0.1300
 1798W        W20652   1.313   6.659  12.319  0.0499  0.0790  0.0604
 1799W        W20653   5.579   4.717   4.673  0.2125  0.0856 -0.0788
 1800W        W20654  11.455  14.500   0.200  0.2466  0.4141 -0.0956
 1801W        W20655   4.029  12.486  12.643 -0.1350  0.1391 -0.1120
 1802W        W20656  17.487   6.404  13.400  0.1696  0.0836  0.0987
 1803W        W20657   8.001  10.873   5.041 -0.0835  0.0762  0.1054
 1804W        W20658   3.011  11.337  13.527  0.1439 -0.2941  0.0532
 1805W        W20659   3.257  10.758  11.844  0.1245  0.2439 -0.0853
 1806W        W20660  15.503  13.722   4.342  0.0440 -0.1853  0.2411
 1807W        W20661  12.152  13.380   1.423 -0.2501  0.2831 -0.1772
 1808W        W20662   9.615   3.554  14.585 -0.0297  0.0171  0.0565
 1809W        W20663  11.115   9.958   2.220  0.2575  0.0640  0.0551
 1810W        W20664   1.762   9.814   1.120  0.0119 -0.1228 -0.2801
 1811W        W20665  10.692  14.544   4.059  0.0076  0.1125 -0.1930
 1812W        W20666   9.142  11.055  12.332 -0.1904  0.0639  0.1172
 1813W        W20667  14.113   8.461  15.177  0.1160 -0.0268 -0.0880
 1814W        W20668   5.785  13.695   5.212 -0.1389  0.0158  0.2060
 1815W        W20669  14.481   7.994  12.275  0.2099 -0.3079  0.0562
 1816W        W20670  11.529   5.654  13.823  0.0903 -0.1527  0.0685
 1817W        W20671  17.432  11.501  13.074  0.1186 -0.3924  0.1501
 1818W        W20672   9.637   0.570   5.801 -0.2459 -0.0766  0.0881
 1819W        W20673   3.587  12.034  15.545  0.1008  0.2121 -0.2314
 1820W        W20674  15.521  16.910   2.551  0.1503  0.0137  0.0865
 1821W        W20675  16.299  14.986  11.283 -0.2529 -0.0514  0.0255
 1822W        W20676  13.381   5.864  15.576 -0.0791  0.1397 -0.1699
 1823W        W20677  12.088   3.086  15.392  0.0723  0.0858  0.0349
 1824W        W20678  13.534   8.244  14.634  0.1929 -0.0807  0.2665
 1825W        W20679   7.997  11.719   3.031  0.0557 -0.2685 -0.3585
 1826W        W20680   5.857  14.863  15.619  0.2290  0.0708 -0.1125
 1827W        W20681   1.584   0.965   4.385  0.1369  0.1376  0.1379
 1828W        W20682   6.716   0.262   3.147 -0.2553 -0.2507 -0.0321
 1829W        W20683  15.225   2.189   2.964 -0.0491 -0.0406 -0.1991
 1830W        W20684   8.219   0.506   4.074  0.2021 -0.0234  0.1736
 1831W        W20685   2.039  13.258   1.381 -0.2149  0.0663 -0.4939
 1832W        W20686  10.734   4.595   0.367  0.1189  0.2089 -0.1884
 1833W        W20687   5.742  16.056   1.737 -0.4080  0.2001 -0.0845
 1834W        W20688   2.343  16.753  13.308 -0.0145  0.2240  0.1811
 1835W        W20689   2.631   6.954   4.027 -0.0823  0.1437  0.0181
 1836W        W20690   4.354  11.046   0.117 -0.1017  0.0543  0.0119
 1837W        W20691  10.047   9.474   1.209 -0.1823 -0.0128  0.1440
 1838W        W20692   2.767   0.492  12.751  0.1005 -0.0734  0.3837
 1839W        W20693   0.167  14.603  12.056  0.0462 -0.0333 -0.0927
 1840W        W20694   2.367   9.591  11.477  0.1406 -0.2092  0.0613
 1841W        W20695   2.657   9.647  14.633 -0.0238  0.2145 -0.0617
 1842W        W20696   4.452  13.724   0.431  0.1989 -0.0814 -0.3078
 1843W        W20697   0.713   8.836  13.217  0.1318  0.0916  0.2675
 1844W        W20698  10.662   1.386   1.719  0.2055 -0.3774  0.1054
 1845W        W20699   3.298   5.183   3.763 -0.2685 -0.2749 -0.4355
 1846W        W20700   1.909   9.537   3.401 -0.2786  0.3177  0.0640
 1847W        W20701  12.583  10.476  12.811  0.1472 -0.0543 -0.0507
 1848W        W20702  15.494   6.076  14.674  0.2213  0.2356  0.0326
 1849W        W20703  10.782   1.967   3.605 -0.0359 -0.0476  0.1935
 1850W        W20704  12.179  15.231   4.975 -0.2436 -0.0743  0.2379
 1851W        W20705   5.622   3.826  14.280 -0.1047 -0.1867  0.0892
 1852W        W20706   8.703  12.426  14.921 -0.0926 -0.2941  0.2717
 1853W        W20707   6.934   4.717   4.320 -0.2191 -0.2768 -0.2841
 1854W        W20708  14.069   2.990  11.897 -0.0703 -0.0203  0.1087
 1855W        W20709   2.839  12.915   2.508  0.0355  0.0795 -0.2179
 1856W        W20710   7.679  10.393   2.742  0.0646 -0.3312 -0.1950
 1857W        W20711  16.023  15.806   3.361 -0.1189 -0.3884 -0.0533
 1858W        W20712   3.248  11.612   0.640  0.1606  0.3927  0.0604
 1859W        W20713   6.269   1.674  15.406  0.0797  0.2899  0.1292
 1860W        W20714   1.714   3.536  15.300 -0.1618  0.1131  0.0421
 1861W        W20715   9.504  11.045  13.630  0.0881 -0.1275  0.2379
 1862W        W20716  18.034   5.785   1.654 -0.0445 -0.2294 -0.0826
 1863W        W20717   4.157   5.968   2.028 -0.0999 -0.0044 -0.1405
 1864W        W20718  15.695   0.175   3.060  0.1326  0.0285  0.1461
 1865W        W20719  13.282   9.139  14.133  0.1363  0.2186 -0.1092
 1866W        W20720  11.059   4.056  13.867  0.1199  0.1434  0.0980
 1867W        W20721   1.241   8.426  13.958  0.0755  0.0702 -0.0466
 1868W        W20722  15.053   7.768  13.789 -0.0199  0.1111  0.2393
 1869W        W20723   9.428   1.166   1.975 -0.0546 -0.0030  0.0223
 1870W        W20724   2.980   5.331   0.269  0.1060 -0.1093 -0.0532
 1871W        W20725  14.702  13.274  15.477  0.0690  0.1550 -0.2313
 1872W        W20726   7.631   1.617  12.989  0.2454 -0.0344 -0.2367
 1873W        W20727  16.481   7.862  12.675  0.2339 -0.0901  0.2310
 1874W        W20728  15.893   7.471  14.810 -0.0482  0.0163 -0.2237
 1875W        W20729  15.020   8.170   2.898 -0.1574  0.1706  0.1659
 1876W        W20730  17.916   3.454   4.458  0.3000 -0.0088 -0.2005
 1877W        W20731   6.094   0.174  15.867 -0.0586  0.1249 -0.2444
 1878W        W20732   8.877  11.694   3.332  0.2343  0.2072  0.1287
 1879W        W20733   3.311   6.182   3.377  0.1257 -0.1514 -0.1844
 1880W        W20734   2.608   4.001   4.647 -0.2959  0.1527 -0.1292
 1881W        W20735  10.310   3.635   2.078 -0.1886 -0.1523 -0.3988
 1882W        W20736  14.306  10.925   1.818 -0.2086 -0.0368 -0.0418
 1883W        W20737   3.659   5.117   2.246  0.2267  0.0407  0.0873
 1884W        W20738  16.358  12.658  15.794 -0.1871  0.0315 -0.2415
 1885W        W20739   3.891  15.757   0.209 -0.3098 -0.1831  0.1954
 1886W        W20740  16.306  10.027   1.983  0.1047  0.4100 -0.3743
 1887W        W20741   1.494  12.418   4.921  0.1355 -0.2894 -0.0014
 1888W        W20742   9.997   1.145  14.500 -0.2111 -0.1738  0.0282
 1889W        W20743   7.397  11.186  14.317 -0.3667 -0.0588  0.0328
 1890W        W20744   8.641  15.476   1.273 -0.0571  0.1739  0.2749
 1891W        W20745  14.144  11.926   2.161 -0.0942 -0.1998 -0.6984
 1892W        W20746   2.290  14.710  12.042  0.0183  0.1924  0.0916
 1893W        W20747  10.833   4.251  15.106 -0.0920  0.1435  0.2490
 1894W        W20748  10.699  14.527   4.637 -0.2262 -0.1862  0.4021
 1895W        W20749  10.823   3.181  11.975 -0.1627  0.0438  0.1796
 1896W        W20750   8.030  12.424  15.476 -0.1811  0.1475  0.0607
 1897W        W20751   1.291   6.811   2.265  0.1049  0.1785 -0.1404
 1898W        W20752  16.347  11.088  15.023 -0.1801 -0.1768 -0.2679
 1899W        W20753  16.867   9.502  11.857  0.1454 -0.2772 -0.0687
 1900W        W20754   2.851  15.855   1.490  0.1212 -0.0006 -0.0417
 1901W        W20755   8.439   9.897   1.354 -0.2020 -0.1773  0.3281
 1902W        W20756   2.100   0.819   1.334 -0.2958 -0.0378 -0.0540
 1903W        W20757   6.988   4.496   0.496  0.2015 -0.0520 -0.2922
 1904W        W20758  12.134  12.681   1.429 -0.1136 -0.0383 -0.2707
 1905W        W20759   6.931   8.893   1.607  0.0220 -0.0945  0.2442
 1906W        W20760  11.561   9.332  14.440  0.3144 -0.0944  0.1567
 1907W        W20761  13.800  14.151  13.288  0.0624 -0.4155 -0.0744
 1908W        W20762  14.412  10.626   5.864 -0.2331  0.1086 -0.3532
 1909W        W20763  16.258  13.179   1.646 -0.1820 -0.1068 -0.1978
 1910W        W20764  16.575   5.387  12.524 -0.0957  0.0534  0.0111
 1911W        W20765   3.130   2.417  14.079  0.4357  0.1355 -0.2296
 1912W        W20766  17.312  12.977   2.081 -0.1581  0.0340  0.5626
 1913W        W20767   5.782   4.784   3.531 -0.1892  0.3893 -0.0536
 1914W        W20768  12.961  11.063  11.724 -0.0122  0.2813 -0.1321
 1915W        W20769   2.878   8.688  11.611 -0.0564  0.1023  0.0638
 1916W        W20770  14.886  16.332  11.954  0.0857 -0.2405 -0.1198
 1917W        W20771  17.479  11.523   4.788 -0.3560 -0.1078 -0.2660
 1918W        W20772   3.455   7.215   2.394 -0.0769  0.0874 -0.0875
 1919W        W20773   1.098  15.761  12.273 -0.1041 -0.2677  0.2484
 1920W        W20774  11.018  11.678  12.365 -0.1864  0.1414  0.1421
 1921W        W20775  13.632   9.154   0.129 -0.1383 -0.0044 -0.0237
 1922W        W20776  13.691   4.957  15.289  0.1643  0.1442  0.3149
 1923W        W20777  15.966   7.409   4.182  0.1908 -0.1590 -0.1787
 1924W        W20778   5.377   2.988  14.346  0.1021  0.1443 -0.3414
 1925W        W20779  11.926  10.070   3.934  0.1496 -0.0919  0.1723
 1926W        W20780  10.057   7.901  12.543  0.1176 -0.2782 -0.0303
 1927W        W20781   1.754  16.135   0.885  0.1126  0.0457  0.1509
 1928W        W20782  12.528  12.416  13.550  0.2628  0.1710 -0.2783
 1929W        W20783   3.726  16.463   2.941 -0.1668  0.1722  0.0857
 1930W        W20784  13.696   6.841   1.342 -0.2374  0.1445  0.1731
 1931W        W20785  12.153  17.304   0.658  0.2127 -0.1314  0.3806
 1932W        W20786  13.021   3.028  16.039 -0.1926  0.1526  0.0241
 1933W        W20787  17.348   2.927   1.386  0.0541 -0.1043  0.1336
 1934W        W20788  11.903  16.305   2.068 -0.2136 -0.1375  0.0026
 1935W        W20789   0.282  14.617   1.127 -0.1110  0.3546  0.1641
 1936W        W20790   7.176   0.814  12.608 -0.3053  0.1456 -0.0290
 1937W        W20791  12.218   1.611  11.525  0.0313  0.0447  0.0757
 1938W        W20792   8.631   3.276   3.956  0.1312 -0.0689 -0.1635
 1939W        W20793  13.410   4.257  13.503 -0.1962  0.1004 -0.0153
 1940W        W20794   1.644   5.638   1.318  0.2125 -0.0747  0.1127
 1941W        W20795  12.152   7.808  14.082  0.2102  0.1572  0.1618
 1942W        W20796   6.684   4.651  12.958 -0.3528 -0.1273  0.0542
 1943W        W20797   5.765  14.341  14.356  0.1141  0.0060 -0.1607
 1944W        W20798   6.036   4.757   5.062  0.0109  0.0962 -0.1204
 1945W        W20799  15.446  10.396  12.695 -0.3083 -0.1774 -0.1113
 1946W        W20800   5.176   7.669   1.011  0.0264  0.1069 -0.4782
 1947W        W20801  13.124   1.761   3.170 -0.0175  0.2534  0.0640
 1948W        W20802   7.058   3.963   3.774  0.1025  0.1180  0.3362
 1949W        W20803   3.915  10.068   3.042  0.5518 -0.3234 -0.0484
 1950W        W20804   2.721  11.716   1.972  0.0155 -0.1772 -0.0692
 1951W        W20805   2.738  10.358   2.495 -0.0241  0.0272  0.0718
 1952W        W20806  16.262  17.730  13.690 -0.0665  0.0981 -0.0104
 1953W        W20807  14.940   0.949   4.328  0.3763  0.0190  0.0504
 1954W        W20808   7.786  14.713  11.782  0.2064 -0.0017  0.0376
 1955W        W20809   5.620   3.032   3.936  0.0721  0.2628  0.0302
 1956W        W20810   1.094  16.588  14.249  0.0313 -0.1085 -0.1169
 1957W        W20811  15.166  15.365   3.250  0.2358 -0.0322 -0.0390
 1958W        W20812  13.848  14.717   2.036  0.2087  0.0372  0.0402
 1959W        W20813   5.960   9.641   4.415 -0.0140 -0.0105 -0.2450
 1960W        W20814   2.428  11.178  12.842 -0.0384  0.0424 -0.0282
 1961W        W20815  11.285  17.003   3.627  0.2882 -0.1534 -0.0923
 1962W        W20816   6.200  12.017   1.182 -0.0692 -0.2709  0.0917
 1963W        W20817  14.242   1.443  12.270  0.0640 -0.0487  0.0669
 1964W        W20818   9.037   2.619   0.347 -0.1746 -0.2448 -0.1881
 1965W        W20819   5.857   6.465  13.115 -0.1375 -0.1334  0.0938
 1966W        W20820  14.566   1.546   3.321 -0.0224 -0.2124  0.0462
 1967W        W20821   5.890   1.412  13.647  0.0674 -0.0999  0.2420
 1968W        W20822  17.344   8.774  12.327  0.1234 -0.1857 -0.1361
 1969W        W20823   8.016  14.025   4.539 -0.0904 -0.0147  0.1539
 1970W        W20824   4.418   7.873  14.204  0.0180 -0.0150 -0.1960
 1971W        W20825   1.173   8.016  12.086  0.2450  0.1051  0.1869
 1972W        W20826   4.722   8.199  11.751 -0.0917  0.2260  0.2157
 1973W        W20827   3.200   3.470   3.785 -0.1178  0.0034 -0.0608
 1974W        W20828  11.141  12.765   1.898 -0.1309  0.1660 -0.1120
 1975W        W20829   6.237  11.636  13.075 -0.0319  0.0441 -0.0565
 1976W        W20830  17.815   6.426  12.098 -0.1881 -0.0623  0.1648
 1977W        W20831  14.548  14.607   2.582 -0.2637 -0.1256  0.0268
 1978W        W20832   6.976   3.422  11.874  0.0644 -0.1701  0.0933
 1979W        W20833   2.554   8.723   0.251 -0.0471  0.0664 -0.0276
 1980W        W20834  13.527   4.256   3.689  0.2105 -0.1305 -0.0141
 1981W        W20835  13.988   0.585  14.885  0.1368  0.0252  0.0220
 1982W        W20836   3.782   7.501   2.143 -0.0574  0.0085 -0.0540
 1983W        W20837   1.963  12.353   3.349  0.3292 -0.1803  0.1425
 1984W        W20838   0.428  16.254   4.092  0.0112 -0.0197 -0.0971
 1985W        W20839   2.301  13.682   1.816 -0.0792  0.0601  0.1754
 1986W        W20840  14.338  14.866   5.533  0.0525  0.2544  0.4651
 1987W        W20841   4.375   4.808   0.797  0.1698  0.3165  0.3347
 1988W        W20842   6.403  11.194  13.214  0.2079 -0.6406 -0.2470
 1989W        W20843   8.962  17.112   4.358 -0.0132  0.1613 -0.2613
 1990W        W20844   2.493  12.867   2.889  0.1152 -0.0305 -0.0494
 1991W        W20845   5.770   0.482   4.481 -0.0552  0.1048 -0.0704
 1992W        W20846   6.703   1.848   0.694 -0.1267 -0.1517  0.2300
 1993W        W20847   2.921  15.410   0.174 -0.3037 -0.3224 -0.1108
 1994W        W20848  14.087   9.756   4.846 -0.0426  0.0656  0.0395
 1995W        W20849  14.198  12.304   2.559 -0.0826  0.0897  0.1345
 1996W        W20850  16.081   3.597  14.425 -0.0625 -0.2497  0.3035
 1997W        W20851  15.255   0.880   2.682  0.0154 -0.0742  0.0802
 1998W        W20852   2.891   3.427  14.128  0.1148 -0.0746  0.0129
 1999W        W20853   4.401   3.534  15.065  0.0907 -0.1262 -0.1424
 2000W        W20854   9.022  12.063  15.733 -0.2416 -0.1806 -0.2377
 2001W        W20855  14.918   2.298   1.883  0.0928  0.0048 -0.1964
 2002W        W20856   9.022  14.736  15.000  0.1701  0.0542 -0.0880
 2003W        W20857  12.490   1.831   1.243  0.0517  0.0238 -0.1351
 2004W        W20858  11.944   2.443   4.177 -0.0040 -0.1849 -0.0642
 2005W        W20859  14.818  17.391  14.884 -0.2584  0.1369  0.2311
 2006W        W20860  13.685  10.528  16.062 -0.3551 -0.1323  0.0760
 2007W        W20861  10.256   4.667  15.045  0.0400 -0.0003 -0.1207
 2008W        W20862   9.888  16.172  16.203  0.2505  0.0229  0.0648
 2009W        W20863  17.509   4.200   2.828  0.2958 -0.1310  0.0596
 2010W        W20864  12.981  15.942   2.391  0.0941 -0.1498  0.0421
 2011W        W20865   1.166  17.104   4.126  0.0959  0.0951  0.0287
 2012W        W20866   8.063  15.489   1.994 -0.1643  0.1609 -0.0098
 2013W        W20867   1.493  12.730  13.284  0.2031 -0.1570 -0.0120
 2014W        W20868   2.093   2.665   2.651  0.0097  0.2822 -0.1265
 2015W        W20869  12.600   9.236  13.404 -0.1809  0.0077 -0.1702
 2016W        W20870  13.022   6.193   3.487 -0.0144  0.0886 -0.2619
 2017W        W20871   7.638  16.114   1.117 -0.1883 -0.3001 -0.1180
 2018W        W20872   7.206  14.096  14.468  0.0835  0.0117  0.0297
 2019W        W20873  12.875  10.767   2.345  0.0525  0.1977  0.3590
 2020W        W20874   4.110  16.399  14.695 -0.1335 -0.2599  0.2797
 2021W        W20875  12.513  15.298  15.044  0.1794  0.0076 -0.1070
 2022W        W20876  14.845   2.622  12.314  0.0798  0.0336  0.0468
 2023W        W20877   0.017   9.321  10.462 -0.1049 -0.0399  0.1537
 2024W        W20878   0.305   5.023   3.310  0.0497 -0.0975  0.0687
 2025W        W20879   8.510  14.183  11.666  0.1591  0.1775 -0.0864
 2026W        W20880   1.512   7.781   0.230 -0.0091  0.0558 -0.1316
 2027W        W20881  16.718   3.963  13.242  0.0789  0.1853  0.0106
 2028W        W20882   4.601  15.992  13.442  0.2126  0.1723  0.2234
 2029W        W20883   8.322  14.503   0.981 -0.1766 -0.1478  0.2080
 2030W        W20884  14.966  15.473   2.787 -0.0032  0.0550 -0.4009
 2031W        W20885   4.105   1.928   3.581 -0.1196 -0.1556 -0.2062
 2032W        W20886   6.976  15.110  13.224 -0.1129 -0.0954  0.0389
 2033W        W20887   4.847  12.677   0.957  0.0396  0.1192  0.0012
 2034W        W20888   6.330  14.727  12.557 -0.0871 -0.2329 -0.0469
 2035W        W20889  16.028   2.750   0.982 -0.2977 -0.2644 -0.1091
 2036W        W20890  17.262   2.339  14.545  0.0881 -0.1869 -0.2052
 2037W        W20891   1.601   4.607  15.160 -0.0409  0.2963  0.2163
 2038W        W20892   2.387  17.076   2.861  0.0728 -0.0899  0.0625
 2039W        W20893   3.574  14.325   0.012  0.0004 -0.2455 -0.0240
 2040W        W20894  11.334  11.698   0.995  0.0048 -0.3937  0.4066
 2041W        W20895  10.886  11.595   1.848  0.2494  0.3045  0.3818
 2042W        W20896  15.407   9.575  12.899  0.1410  0.0371  0.1702
 2043W        W20897  13.433  11.427   2.555 -0.0906 -0.3213 -0.0075
 2044W        W20898   8.405   7.670   0.373  0.3589 -0.1291 -0.0680
 2045W        W20899  10.685   6.260   4.157  0.1915 -0.2601  0.2816
 2046W        W20900  15.040   9.053   0.096 -0.0634 -0.0042  0.2453
 2047W        W20901   7.594  11.100   4.825  0.1819  0.0861 -0.1817
 2048W        W20902   8.414   2.761   5.040  0.1455  0.0393 -0.1695
 2049W        W20903  11.883  16.227  13.407  0.1485  0.3905 -0.2519
 2050W        W20904   1.273  14.514   0.305 -0.1497 -0.1040 -0.0057
 2051W        W20905  13.744  14.890  15.594  0.0577  0.2022 -0.1051
 2052W        W20906   3.394   3.415  13.425 -0.0813  0.2839  0.0233
 2053W        W20907   7.010   1.883  15.406 -0.0829  0.0333 -0.0984
 2054W        W20908   3.523   1.797  15.786 -0.0231 -0.1246  0.1073
 2055W        W20909   9.819   8.928   1.481 -0.0243  0.1866  0.0408
 2056W        W20910  17.148  15.852   1.279 -0.2110 -0.1559 -0.1452
 2057W        W20911  15.043  10.091   3.907 -0.0104  0.2859 -0.0279
 2058W        W20912   0.966   4.796  15.177 -0.3423 -0.1909 -0.0633
 2059W        W20913   7.632   4.555  14.840 -0.0926 -0.1636  0.0408
 2060W        W20914  15.457  10.560  11.614  0.0935  0.0956  0.2711
 2061W        W20915   7.629  11.336   1.542  0.1226 -0.0674 -0.1199
 2062W        W20916   8.897   3.868  13.267  0.2644  0.1150  0.1590
 2063W        W20917   6.930   6.708  14.576  0.0606 -0.0251  0.1012
 2064W        W20918  17.212   9.754  14.993 -0.0256 -0.1330  0.1743
 2065W        W20919  16.084   1.995   4.278 -0.0899 -0.0230 -0.5262
 2066W        W20920  15.574  10.660   2.287 -0.0901 -0.2384 -0.2232
 2067W        W20921   9.268   2.879   0.680  0.1139 -0.4297  0.1171
 2068W        W20922   5.173  14.216  12.943  0.1630  0.0476 -0.1293
 2069W        W20923   6.208   0.274  14.201  0.1720  0.3840  0.1160
 2070W        W20924   9.693   1.543   4.106 -0.1368 -0.0876 -0.2562
 2071W        W20925  10.831  12.256   4.984  0.0465  0.3550 -0.0535
 2072W        W20926   2.832   8.325  13.682 -0.0146  0.4078 -0.2146
 2073W        W20927  17.186  10.280  13.901 -0.0084 -0.0337  0.2330
 2074W        W20928   5.661  17.158   1.625 -0.2954 -0.0350 -0.0690
 2075W        W20929   4.348  13.792   3.020 -0.0084  0.1203  0.0260
 2076W        W20930  15.650   3.798  13.224  0.0370  0.3030  0.1605
 2077W        W20931   9.116   9.532   0.756  0.0101  0.1695 -0.1240
 2078W        W20932   1.200  17.656   4.884 -0.0230 -0.2419  0.2429
 2079W        W20933   9.750   6.612  12.846  0.1866  0.0487 -0.1841
 2080W        W20934  13.335   5.364   5.521  0.1098  0.0127  0.1650
 2081W        W20935   6.751  17.939   2.476 -0.0215  0.3123  0.1671
 2082W        W20936   6.866  10.593   3.775 -0.2083 -0.1690  0.4630
 2083W        W20937  15.840   3.030  14.998  0.0503  0.0363 -0.0469
 2084W        W20938   2.397  15.472   0.049  0.1585  0.1437  0.1771
 2085W        W20939   6.140   9.868  15.444  0.0715 -0.1540 -0.4533
 2086W        W20940  10.996  10.883  11.483  0.0091  0.2539  0.2891
 2087W        W20941   2.856  14.361  15.545  0.1134 -0.0498  0.1277
 2088W        W20942   9.335  11.896   0.536  0.0045 -0.0594 -0.3430
 2089W        W20943  12.140  15.123   0.246  0.2028  0.4193 -0.1506
 2090W        W20944   2.371  12.560  14.579 -0.0821 -0.2490 -0.1749
 2091W        W20945  17.482   0.375   4.747 -0.1184  0.0932  0.4009
 2092W        W20946   1.717  16.221   0.036 -0.1693 -0.1686 -0.0224
 2093W        W20947   4.776   5.359   0.877  0.2108 -0.3967  0.1539
 2094W        W20948   1.144   6.143  14.837  0.1450 -0.0144 -0.3376
 2095W        W20949   6.672   4.425  11.763 -0.4223 -0.3699 -0.1469
 2096W        W20950   6.357   8.379  11.726  0.0349 -0.1617  0.0363
 2097W        W20951  15.320   2.212  13.735 -0.0776  0.0199  0.2365
 2098W        W20952  16.473  16.109   2.083  0.0388 -0.1099 -0.1194
 2099W        W20953   4.053   6.317  11.009  0.0472 -0.1157  0.2817
 2100W        W20954   8.429   7.815  11.592 -0.2102  0.0298  0.1607
 2101W        W20955   7.041   5.438  15.583  0.2028  0.1913  0.0056
 2102W        W20956   3.285  15.491   3.079  0.0206  0.0278 -0.0509
 2103W        W20957  13.653   3.885  13.195  0.1409  0.2559  0.3755
 2104W        W20958   5.539   7.165  14.099  0.0452  0.0100  0.3997
 2105W        W20959   5.275  17.668   1.851  0.0376 -0.0819 -0.0500
 2106W        W20960  17.805  15.441   3.093  0.1083 -0.0836  0.1537
 2107W        W20961   5.380  14.834  15.833  0.2026 -0.1686 -0.0532
 2108W        W20962   2.203  15.795   1.366 -0.1553 -0.0351 -0.0869
 2109W        W20963  12.581   3.624   2.057 -0.1085 -0.0695  0.0978
 2110W        W20964  15.817  15.984   1.452  0.3005 -0.3512 -0.3214
 2111W        W20965  13.858  16.571  10.725 -0.1663  0.0253 -0.0459
 2112W        W20966  12.853   5.171  15.558  0.1995 -0.2986 -0.2951
 2113W        W20967  16.528   8.254  14.219 -0.3617  0.2939 -0.2011
 2114W        W20968   0.414   6.601  13.792 -0.1952  0.0406 -0.0700
 2115W        W20969  10.634  15.668   3.399 -0.1979  0.2517 -0.0098
 2116W        W20970   9.410   2.327  15.190 -0.1671 -0.0518  0.3809
 2117W        W20971   8.832   8.803   4.518 -0.0741  0.1228 -0.0222
 2118W        W20972   3.925   6.109   0.335  0.0365 -0.3578  0.1244
 2119W        W20973   4.859  17.012   3.729  0.1858  0.1724 -0.0797
 2120W        W20974  10.220  17.427   3.935  0.0347  0.0015  0.1723
 2121W        W20975  16.909   4.821   3.833  0.0886  0.0258  0.0928
 2122W        W20976   7.735   2.704   0.165  0.0186  0.1688  0.2933
 2123W        W20977   8.096   1.146  15.692 -0.2345  0.0893  0.0633
 2124W        W20978  11.534   1.227  14.126 -0.1843 -0.2301 -0.1854
 2125W        W20979   3.970   8.991  16.020  0.3960  0.0416  0.1889
 2126W        W20980   7.296   3.942   0.869 -0.1544  0.1205  0.2152
 2127W        W20981   4.417   6.198  11.382 -0.1579  0.0894  0.3172
 2128W        W20982   1.923   8.158  15.797 -0.0629  0.0762 -0.1116
 2129W        W20983   3.682   8.131   3.791  0.1590 -0.1726  0.0983
 2130W        W20984  13.329   8.073   1.591  0.0155 -0.0596  0.0550
 2131W        W20985   6.641   1.059   1.843  0.1855  0.2446  0.0011
 2132W        W20986   0.604   9.499   3.489  0.0350 -0.0199  0.3495
 2133W        W20987  10.854   4.726  14.712 -0.0440 -0.1564  0.2617
 2134W        W20988   7.650  15.053  14.156 -0.2853  0.1747 -0.4001
 2135W        W20989   3.719  12.547   2.562 -0.0580 -0.0166 -0.0414
 2136W        W20990  11.704   5.428  14.763 -0.0710 -0.2197  0.0892
 2137W        W20991   9.164  14.483  13.504 -0.0715 -0.2526 -0.3420
 2138W        W20992   1.550   9.364   3.104 -0.1276  0.1167  0.2023
 2139W        W20993   6.700   7.723  14.393 -0.1412 -0.2010 -0.7084
 2140W        W20994  15.806  16.261  13.097 -0.1305 -0.1459 -0.0194
 2141W        W20995  17.770   3.625  14.854  0.0088  0.0629  0.0085
 2142W        W20996  17.430   5.472   0.863 -0.2160 -0.1077 -0.1460
 2143W        W20997  14.079   2.720  14.854 -0.0588 -0.0956 -0.3359
 2144W        W20998  17.822   9.875   0.903  0.3373  0.0585 -0.0626
 2145W        W20999  16.111  10.045   4.332 -0.1922 -0.2481 -0.0604
 2146W        W21000   2.832   9.015  14.126  0.1864 -0.0173  0.0464
 2147W        W21001  14.626  12.086   2.203 -0.2004 -0.1701 -0.0350
 2148W        W21002   3.356  15.740   0.210 -0.0020  0.2332  0.0406
 2149W        W21003   6.653  13.740  12.133  0.1781  0.1141 -0.0448
 2150W        W21004  17.772  10.302   4.448  0.1422 -0.5136  0.2718
 2151W        W21005   0.079   1.416   4.276 -0.0632 -0.0080  0.0035
 2152W        W21006  15.926  10.841  13.487  0.0272  0.0525 -0.1744
 2153W        W21007  10.248  13.961  15.202  0.1563 -0.1203  0.2115
 2154W        W21008   8.657   4.673  12.905  0.1075 -0.0781  0.0365
 2155W        W21009  11.960   9.241   1.504 -0.0560  0.2645 -0.0554
 2156W        W21010   1.714  13.217   3.456 -0.0701  0.1117  0.2306
 2157W        W21011  11.463   3.901   1.857  0.0278 -0.0564  0.0689
 2158W        W21012   6.418  14.807  14.279  0.2560 -0.2834  0.1027
 2159W        W21013   5.549   0.387  15.039  0.1272 -0.1091 -0.5279
 2160W        W21014   5.394  13.986   0.118  0.0495 -0.1387 -0.0229
 2161W        W21015   2.517   8.238   3.459 -0.3298  0.0287  0.1546
 2162W        W21016  17.909   9.948   4.092 -0.3017  0.0408 -0.2701
 2163W        W21017   3.994   4.003   2.265  0.0240 -0.1040  0.0131
 2164W        W21018  14.537   6.939   2.993 -0.1151 -0.0483  0.1532
 2165W        W21019  14.040  12.004  12.589 -0.0358 -0.0936 -0.2042
 2166W        W21020   0.187   9.678   3.840 -0.2342  0.2090  0.1144
 2167W        W21021   8.763  16.988   0.653 -0.0314 -0.0213 -0.0126
 2168W        W21022   0.321  17.481   1.461  0.2366 -0.1732  0.1300
 2169W        W21023  10.511  13.542  14.056 -0.1787  0.0260  0.0409
 2170W        W21024   7.246  16.805   4.012 -0.2842  0.0324  0.1929
 2171W        W21025  12.812  17.177  12.497 -0.1954  0.0801 -0.0041
 2172W        W21026  11.037   8.906   4.189  0.2075  0.3219  0.0798
 2173W        W21027  17.125  11.618   2.368 -0.1434  0.2425 -0.2542
 2174W        W21028   1.210   8.026  14.299  0.0732  0.3312  0.0479
 2175W        W21029   4.901   0.953  15.281  0.3819  0.2022  0.0914
 2176W        W21030   7.160   1.997  14.852 -0.1754 -0.3008  0.0119
 2177W        W21031   0.189   3.872  14.453  0.4043 -0.0081 -0.0512
 2178W        W21032   8.948  17.463  13.145 -0.0570 -0.0995  0.0805
 2179W        W21033   9.520  12.575   2.153 -0.0071 -0.0938  0.1119
 2180W        W21034   3.810  12.921  15.953 -0.1597  0.3201 -0.0164
 2181W        W21035   9.748   5.022  13.341 -0.2671  0.3180  0.1988
 2182W        W21036   2.116   9.726  12.279  0.1439 -0.0192  0.1027
 2183W        W21037  12.549   4.602  13.700  0.1590 -0.1567 -0.2927
 2184W        W21038   3.076   2.748   1.020 -0.2392  0.4897 -0.0749
 2185W        W21039  13.547   3.911   4.462 -0.1046 -0.1648  0.3864
 2186W        W21040   6.861   2.447   0.371 -0.1864  0.0408  0.0174
 2187W        W21041   1.793   2.681   0.955  0.0143  0.0566 -0.2870
 2188W        W21042   8.500   0.033  15.676 -0.0469 -0.3908  0.1771
 2189W        W21043  12.538  13.419   3.275 -0.1225  0.3228 -0.2156
 2190W        W21044  12.669  12.099   0.936  0.0126 -0.0985 -0.1904
 2191W        W21045   5.785   5.354  10.530 -0.3897  0.0186  0.0922
 2192W        W21046  15.828  16.898   1.780  0.2555  0.2161  0.0434
 2193W        W21047  10.077   8.930   3.383 -0.0199 -0.1846 -0.0794
 2194W        W21048  11.444   3.537  14.227  0.2140  0.3827  0.0228
 2195W        W21049  10.480   1.740  16.127  0.4025  0.2670 -0.0990
 2196W        W21050  12.030  17.760  12.262 -0.0476 -0.0734 -0.0531
 2197W        W21051   4.973   2.015   3.415  0.2970  0.1109  0.1925
 2198W        W21052  14.117   5.430  15.883 -0.0331 -0.1083 -0.1693
 2199W        W21053  15.360  11.272  12.437 -0.1501 -0.1397  0.1445
 2200W        W21054   0.955  15.775   4.391  0.0236 -0.0518 -0.0672
 2201W        W21055   8.434   1.364   2.741 -0.1395  0.2374  0.2292
 2202W        W21056  16.321  10.439   5.075  0.1530  0.2456 -0.2318
 2203W        W21057   4.326  11.203   1.577  0.0844  0.0412 -0.2962
 2204W        W21058   6.810  10.002  15.822  0.1992  0.2156 -0.0762
 2205W        W21059   0.407  13.788  10.957  0.1442 -0.3724 -0.0623
 2206W        W21060  17.615  10.770   1.050  0.1349  0.3398  0.1373
 2207W        W21061   0.670   1.755  14.533 -0.2818 -0.1700  0.2971
 2208W        W21062   3.760   3.321   2.804 -0.0103  0.0477 -0.0395
 2209W        W21063  15.681   0.472   4.063 -0.1060  0.1281 -0.0152
 2210W        W21064  17.711  17.339   2.770 -0.0053  0.0709 -0.0080
 2211W        W21065   1.105   3.352   1.299  0.2489 -0.0233  0.1308
 2212W        W21066  12.568  13.563  14.372  0.1888 -0.0904  0.2349
 2213W        W21067   2.048  17.420   6.074 -0.2528  0.0924  0.1070
 2214W        W21068  17.494   1.445  14.876  0.0270 -0.1179 -0.0980
 2215W        W21069  14.175   3.392  16.157  0.0624  0.3118  0.0164
 2216W        W21070  13.836  13.131   5.704 -0.0385 -0.3541  0.0103
 2217W        W21071  14.694   8.418   1.451 -0.0242 -0.3118  0.1216
 2218W        W21072   3.425  10.513  16.076 -0.0267 -0.0940  0.2193
 2219W        W21073   6.434   0.032   2.828 -0.0615 -0.0731 -0.2411
 2220W        W21074   6.992   9.278  15.129  0.0177 -0.2106  0.0874
 2221W        W21075  14.444   2.252  15.552  0.0552  0.2183  0.0622
 2222W        W21076  11.344   1.562  10.063 -0.1374 -0.0270  0.0125
 2223W        W21077  12.945  11.246   2.816 -0.0160  0.1690  0.2003
 2224W        W21078   2.790  10.011   0.247 -0.2441  0.0204 -0.2142
 2225W        W21079  13.550   8.093   0.322  0.3233  0.4376 -0.1319
 2226W        W21080  10.466  16.594  14.644  0.1280 -0.2863 -0.1286
 2227W        W21081   1.023   0.722   2.947  0.0391  0.0823  0.3099
 2228W        W21082   5.051   9.308   2.542  0.0638 -0.2329 -0.2177
 2229W        W21083   6.559   2.752   3.494  0.0446 -0.0356 -0.1438
 2230W        W21084  13.467  14.141   3.938  0.3722 -0.4032  0.0886
 2231W        W21085   1.377   2.066  14.383  0.0412 -0.3191  0.2158
 2232W        W21086  10.634  17.954  15.061 -0.0661 -0.2191  0.3124
 2233W        W21087   1.320   1.310   0.327 -0.0357  0.0340 -0.1700
 2234W        W21088   6.342  14.870  14.853 -0.0444 -0.1911  0.0764
 2235W        W21089  15.140   2.360   2.356  0.1565 -0.1178 -0.2194
 2236W        W21090   3.720  17.420   0.869 -0.1825 -0.1492 -0.1862
 2237W        W21091  11.024   9.853  15.507 -0.0891 -0.0082 -0.0841
 2238W        W21092   2.284  16.422  15.118 -0.0094 -0.0062  0.2491
 2239W        W21093  12.462  13.321   0.785  0.0257  0.1541 -0.0248
 2240W        W21094   5.775   0.963   2.090 -0.1995 -0.0047  0.1942
 2241W        W21095  10.284  15.992   4.823 -0.2683  0.2316 -0.1275
 2242W        W21096  12.709   6.180  11.647  0.3792 -0.1523  0.0712
 2243W        W21097  12.019  16.064   2.966  0.0570  0.0080 -0.1336
 2244W        W21098  17.778  16.865   3.089  0.4018 -0.0662 -0.0763
 2245W        W21099   2.147   7.117  13.763 -0.3246 -0.0041  0.0302
 2246W        W21100   4.869  13.682   1.822  0.3418 -0.1418 -0.0278
 2247W        W21101   3.883   1.515   2.143  0.1731 -0.0371 -0.1345
 2248W        W21102   4.938   9.325  15.178  0.1938 -0.2359  0.2467
 2249W        W21103   1.612   9.709  14.196 -0.1909 -0.2246  0.3788
 2250W        W21104  17.269   7.217  11.151  0.1722  0.1386 -0.3147
 2251W        W21105   2.364  12.459  13.346 -0.1566 -0.1202 -0.0822
 2252W        W21106   8.518   4.021  12.397  0.3291  0.0908 -0.0135
 2253W        W21107   4.060  14.348  11.795  0.3841 -0.0482  0.0441
 2254W        W21108  16.484   1.954  15.539  0.1473 -0.0374 -0.2649
 2255W        W21109   3.460   0.464  15.627  0.2542 -0.1377  0.0307
 2256W        W21110   5.595  16.626  11.616 -0.0848 -0.0351 -0.1179
 2257W        W21111   7.716   4.251   4.559  0.0229  0.1368 -0.2397
 2258W        W21112   8.984   4.403  14.626  0.2355  0.2850  0.0411
 2259W        W21113   1.549  13.096  12.897  0.0943  0.1700 -0.0949
 2260W        W21114   3.050   7.997   4.462  0.0600 -0.1093  0.0738
 2261W        W21115   7.910  15.974   6.184  0.1404  0.0218  0.3126
 2262W        W21116  16.331  10.903  16.148 -0.1315 -0.0239 -0.1243
 2263W        W21117   5.899   9.431  15.700  0.0418 -0.1891  0.0018
 2264W        W21118   3.227   9.430  14.697  0.0996  0.1614  0.1870
 2265W        W21119   5.212  17.776   4.358  0.1192 -0.1358 -0.0983
 2266W        W21120   7.388   1.555  14.621 -0.3597 -0.2513 -0.0626
 2267W        W21121   4.438   8.012   2.733 -0.2732  0.1533  0.0182
 2268W        W21122   0.093   2.981  15.425  0.2482 -0.2362 -0.0264
 2269W        W21123  16.006  16.793  13.954 -0.0596 -0.0852  0.0200
 2270W        W21124   4.634  17.353   0.207  0.2432 -0.2420 -0.0248
 2271W        W21125  14.645   7.112  13.478 -0.0861  0.1301  0.0488
 2272W        W21126  11.680   0.439   4.648  0.1375 -0.0220  0.1326
 2273W        W21127   0.857   0.911  13.989  0.1188 -0.2276  0.2628
 2274W        W21128  11.166  12.157   0.597  0.2299  0.0446  0.0708
 2275W        W21129   6.521   3.079   1.630 -0.0191 -0.0775  0.0473
 2276W        W21130  10.119   8.792   2.927 -0.2491  0.0946 -0.0563
 2277W        W21131   5.757   1.590   3.958  0.0951 -0.1811 -0.0118
 2278W        W21132  15.264  12.205   0.873 -0.1302  0.0629  0.1126
 2279W        W21133   7.311   2.009   1.938  0.1645  0.2257 -0.0280
 2280W        W21134  12.936   5.290   3.511 -0.0343  0.0868  0.0352
 2281W        W21135  16.739   4.057   4.194  0.0080 -0.1944  0.0817
 2282W        W21136  16.861  10.964  11.527  0.0994 -0.2259 -0.1685
 2283W        W21137   7.576  17.135  15.215  0.1212  0.3491 -0.1545
 2284W        W21138   8.614  17.561  15.659 -0.2254 -0.0105 -0.0345
 2285W        W21139   2.980   3.975  14.897 -0.2220 -0.0739 -0.0428
 2286W        W21140   7.212   9.474   5.748  0.2571 -0.2972 -0.1765
 2287W        W21141   9.000  12.414   1.359  0.0593 -0.0397  0.1090
 2288W        W21142  16.034   7.920  12.938 -0.1867 -0.3193  0.1639
 2289W        W21143  12.121  10.310  11.679 -0.2062 -0.0297  0.2995
 2290W        W21144  11.023  12.770  13.126 -0.1044  0.1809 -0.1093
 2291W        W21145   5.770  10.916  13.995  0.1429 -0.0427 -0.0133
 2292W        W21146   8.836   3.907  11.980 -0.0858  0.2767 -0.2718
 2293W        W21147   4.671  11.928  14.165  0.2544 -0.1750  0.0210
 2294W        W21148   4.595  13.444  14.656  0.0045  0.1867 -0.1331
 2295W        W21149   9.085  14.404  12.787  0.1108  0.0886  0.1245
 2296W        W21150  16.500   9.993  15.609  0.2326  0.0523 -0.2048
 2297W        W21151   1.059   9.664  14.269 -0.0069  0.1451 -0.0064
 2298W        W21152  12.999   1.074  13.950 -0.3281  0.0758 -0.2686
 2299W        W21153   7.095   6.447   3.151  0.2734 -0.0269 -0.0070
 2300W        W21154  10.356  16.778  12.989 -0.0184  0.2592 -0.0026
 2301W        W21155  11.165  14.720   1.635  0.3064  0.0981  0.3943
 2302W        W21156   0.963   7.433  11.789 -0.1066  0.0842 -0.1379
 2303W        W21157   6.108  14.880   0.710  0.0715  0.2341  0.0978
 2304W        W21158   2.278   8.958   3.020  0.1315 -0.0043 -0.1202
 2305W        W21159  17.403   8.838   0.044  0.0982 -0.0432  0.0074
 2306W        W21160   1.433  10.273   3.568  0.0246 -0.2584 -0.0657
 2307W        W21161  12.577   9.861   0.582  0.1004 -0.1271  0.1682
 2308W        W21162   7.632   1.915   3.195  0.5304 -0.0664  0.0490
 2309W        W21163   6.740   9.637   3.060 -0.1420 -0.1370 -0.0814
 2310W        W21164   9.066   2.631  13.735 -0.0638 -0.0088 -0.0221
 2311W        W21165   7.388   0.124   1.774 -0.2074 -0.0749 -0.0892
 2312W        W21166   3.362  13.330  14.441 -0.0288  0.1551 -0.0100
 2313W        W21167   7.114  12.674   2.410  0.0063  0.0026  0.1167
 2314W        W21168   2.246  16.437  13.733 -0.1682 -0.0683  0.2160
 2315W        W21169  14.696   1.076   2.446 -0.0788  0.0410 -0.2241
 2316W        W21170   6.681   3.233  11.003  0.1179 -0.1839 -0.3117
 2317W        W21171   0.582  12.157  13.233  0.1446  0.2452 -0.0598
 2318W        W21172  15.251  15.445  15.969 -0.0402  0.3122 -0.0444
 2319W        W21173   1.746  12.744   0.550 -0.2073  0.0814 -0.1441
 2320W        W21174  10.851   4.085   5.741  0.0298  0.2191 -0.0016
 2321W        W21175   9.050  13.561   4.401 -0.1149 -0.1242  0.1473
 2322W        W21176   6.653   6.535   0.751  0.0853 -0.1546 -0.1705
 2323W        W21177  13.051   9.672   3.370  0.1559 -0.3184 -0.2161
 2324W        W21178   4.489  17.785   4.001  0.1569 -0.0228  0.0892
 2325W        W21179  12.884  14.675   2.055  0.0389  0.0303  0.2041
 2326W        W21180   7.161   9.343   3.221 -0.0270 -0.2646  0.1188
 2327W        W21181   6.216  16.623   3.318 -0.2284 -0.0195 -0.2925
 2328W        W21182   6.374   9.591  11.309 -0.2300 -0.1344 -0.1411
 2329W        W21183   1.737   8.355  14.232  0.3378 -0.4634 -0.0272
 2330W        W21184  11.269   5.801  14.249 -0.0271 -0.0344 -0.0503
 2331W        W21185  10.458  11.232  15.423  0.0777  0.0598  0.0193
 2332W        W21186   5.179   6.276  16.100 -0.3080  0.3007  0.1095
 2333W        W21187   4.296  13.898   3.617  0.1373 -0.3087  0.2446
 2334W        W21188   9.359  15.178  11.470 -0.1114 -0.0480 -0.0454
 2335W        W21189   5.927   6.671  11.695 -0.1930 -0.1226  0.0915
 2336W        W21190   1.533  10.366   4.625  0.0358 -0.0697  0.1036
 2337W        W21191   1.424  10.067  15.914  0.2361  0.0119 -0.0361
 2338W        W21192   5.491  13.153   3.666  0.0337 -0.1555  0.2442
 2339W        W21193  14.065   3.246   1.319  0.1553  0.0426 -0.0461
 2340W        W21194   2.616   4.458  12.337  0.1528  0.0392 -0.2661
 2341W        W21195   7.507   9.720  13.518  0.2405  0.0187  0.0407
 2342W        W21196   0.368   5.492  13.323  0.0497  0.0177  0.1289
 2343W        W21197  14.531  15.766   5.115  0.3292 -0.3291 -0.0872
 2344W        W21198  17.980  13.005   1.333 -0.5478  0.0827 -0.0144
 2345W        W21199   7.147   7.165  11.681  0.0053 -0.0554 -0.0740
 2346W        W21200   2.195   6.032  12.108  0.0351 -0.2310  0.0889
 2347W        W21201  12.176  16.931   3.961  0.2001 -0.0644 -0.0814
 2348W        W21202   4.633  16.452   1.663  0.1105  0.0714  0.0437
 2349W        W21203  16.904   1.076   0.248  0.3956 -0.3667 -0.0673
 2350W        W21204  10.284   7.854   1.571  0.1015  0.0051 -0.1552
 2351W        W21205  13.159  13.193  13.757 -0.0499 -0.0065 -0.0502
 2352W        W21206   6.294   1.941  12.629  0.0963 -0.1249  0.1289
 2353W        W21207  14.963  12.601  12.399 -0.0110 -0.0056 -0.0632
 2354W        W21208  10.752   2.866  14.829 -0.2297 -0.0785 -0.2215
 2355W        W21209  10.174  15.214   0.058  0.0680  0.0157  0.1291
 2356W        W21210   5.056   6.777  13.713 -0.0554  0.1012 -0.0653
 2357W        W21211   6.418  13.964   0.360  0.0648  0.0040 -0.0568
 2358W        W21212  14.966   2.589   1.049 -0.2282 -0.0535 -0.0828
 2359W        W21213  14.235   1.992   4.402 -0.1451  0.0750  0.0472
 2360W        W21214   5.429  10.206  12.801 -0.3287  0.2847 -0.0739
 2361W        W21215  15.747   8.090   3.635  0.2681  0.2320 -0.1182
 2362W        W21216  16.941  11.332   3.233 -0.3240  0.3559 -0.0843
 2363W        W21217  15.678   4.494  15.908  0.0038 -0.0557  0.2163
 2364W        W21218  11.546   2.131  16.154  0.1335 -0.1569 -0.2024
 2365W        W21219   3.422  14.113  12.471  0.1816  0.1382  0.1704
 2366W        W21220   3.028  10.546   4.003  0.1700  0.0452 -0.0008
 2367W        W21221  10.678  10.836  12.673  0.3379  0.2112 -0.2132
 2368W        W21222   8.971   5.750  15.321  0.2016  0.1036 -0.3782
 2369W        W21223   4.138   4.295   3.629 -0.3437  0.1687  0.1553
 2370W        W21224  15.083   4.892  14.868 -0.2190  0.1559 -0.0623
 2371W        W21225  12.018   2.761   2.105 -0.2099 -0.0047 -0.0858
 2372W        W21226   1.826   3.427   0.511 -0.1869  0.0074 -0.0083
 2373W        W21227   6.752  16.385   0.294 -0.0021  0.1011 -0.1522
 2374W        W21228  13.372  16.620   0.438 -0.0637  0.0216 -0.0177
 2375W        W21229   5.300  16.402  13.268  0.1135 -0.1788 -0.2431
 2376W        W21230  16.920  11.479   1.445 -0.0997  0.0798  0.1647
 2377W        W21231  14.967  11.770  12.165 -0.1523 -0.0988  0.2084
 2378W        W21232   5.243  15.505   5.381  0.2412 -0.1454 -0.2137
 2379W        W21233  16.167  12.816  12.952  0.0472  0.1767  0.0112
 2380W        W21234   0.267   8.649   1.471 -0.3005  0.0818  0.2095
 2381W        W21235   7.792  16.420   0.180 -0.0428  0.3462  0.1895
 2382W        W21236   9.243  12.248   1.809  0.0156  0.0279 -0.0384
 2383W        W21237   1.151  15.380   2.398  0.1065 -0.2409  0.1009
 2384W        W21238  13.059  15.598  15.538  0.2814 -0.3659  0.1529
 2385W        W21239  11.155  13.535  15.540 -0.1335  0.0598 -0.2193
 2386W        W21240   9.303   4.429  12.145 -0.0196  0.2384  0.2923
 2387W        W21241  10.783  13.893  15.874  0.1396  0.3306 -0.1371
 2388W        W21242   3.377  16.014  15.592  0.1324 -0.1518 -0.5100
 2389W        W21243   3.328  11.933  15.079 -0.1535 -0.2034 -0.1594
 2390W        W21244   9.585   7.726  11.653 -0.0205 -0.2522  0.1874
 2391W        W21245  11.411  16.366  11.904 -0.0862 -0.0255 -0.0381
 2392W        W21246  13.688   2.087   0.617 -0.3086  0.1672 -0.0740
 2393W        W21247   5.750   3.755  15.598 -0.0848  0.2444  0.1429
 2394W        W21248   0.509   7.017  11.073 -0.2325 -0.1160 -0.0145
 2395W        W21249  17.447   8.557  13.810 -0.0643 -0.3938 -0.2693
 2396W        W21250   6.188   7.730  13.010  0.1206 -0.1880  0.3013
 2397W        W21251  15.543   8.927   2.845  0.0385 -0.0215 -0.0650
 2398W        W21252  12.128  11.899  15.953 -0.0588 -0.0399 -0.0789
 2399W        W21253   7.007  12.111  11.460 -0.1052 -0.0596 -0.0562
 2400W        W21254  11.991   5.483  13.930 -0.2370  0.0898  0.1343
 2401W        W21255  15.371  13.091   4.225  0.3815 -0.1261  0.0192
 2402W        W21256   6.918   6.606   4.054  0.0552 -0.2256 -0.2351
 2403W        W21257   9.436   1.633   4.987  0.2333  0.1670 -0.0280
 2404W        W21258  16.455  14.939  12.597  0.1174 -0.0448 -0.0992
 2405W        W21259   5.161   3.082  12.314 -0.0646  0.3236 -0.0153
 2406W        W21260  12.279  11.547  12.966  0.0253  0.0485 -0.1237
 2407W        W21261  12.176   0.217   2.082  0.1329  0.3489  0.1887
 2408W        W21262   8.310  11.315   0.273 -0.0542  0.0283 -0.0356
 2409W        W21263   1.038   5.415  10.891  0.0659  0.0198 -0.2937
 2410W        W21264   1.713  16.453   0.531 -0.0610  0.0877 -0.0174
 2411W        W21265  10.581   5.990   4.530  0.4048 -0.0563 -0.1099
 2412W        W21266   6.927   3.751   4.226 -0.2061 -0.1206  0.0843
 2413W        W21267  11.094   7.276  14.970 -0.1388  0.0878 -0.1216
 2414W        W21268  10.938   4.202   3.012  0.0623  0.1789  0.0915
 2415W        W21269   7.045   8.144   5.161 -0.1980 -0.0409  0.0004
 2416W        W21270  13.621   7.794   1.297 -0.0248 -0.1709 -0.2449
 2417W        W21271   5.041  11.818   2.884  0.1277  0.1258 -0.0700
 2418W        W21272   4.098  14.312   4.511 -0.0471 -0.2609  0.1962
 2419W        W21273  14.922  16.540   0.919  0.0862 -0.0721 -0.0590
 2420W        W21274  14.008  11.265  15.124 -0.0027 -0.1375 -0.2180
 2421W        W21275  14.071   2.336   4.753 -0.1007 -0.0951 -0.2082
 2422W        W21276  14.760   4.336  13.296 -0.0739  0.0891 -0.0149
 2423W        W21277   1.140   7.538  12.255  0.1593 -0.0104 -0.1894
 2424W        W21278   0.016   1.500   1.785 -0.0855 -0.0245  0.0349
 2425W        W21279   6.195   7.254   3.795 -0.0763  0.0140  0.1737
 2426W        W21280  11.074   6.861  14.062 -0.0004  0.1831  0.1814
 2427W        W21281   6.822  15.040  11.589 -0.0477  0.0055  0.0722
 2428W        W21282   9.689   9.329  15.420 -0.2115 -0.3664  0.0185
 2429W        W21283   1.584   9.635  12.481  0.0408  0.0004 -0.2236
 2430W        W21284  10.647  12.971   1.319 -0.3116  0.0900  0.1463
 2431W        W21285   1.477  17.739  14.756  0.2558 -0.0645  0.0618
 2432W        W21286  12.375   8.923   4.298  0.2516  0.0672 -0.4407
 2433W        W21287   3.635   0.847  12.470  0.0618  0.0607  0.1605
 2434W        W21288   8.509   1.543   1.111 -0.0574  0.2666 -0.0341
 2435W        W21289   3.586   5.348   4.202  0.1711 -0.3497 -0.1062
 2436W        W21290  15.040  11.036  15.270 -0.0580 -0.2200  0.0784
 2437W        W21291  14.842   3.368  14.744  0.2377 -0.2928 -0.0832
 2438W        W21292  17.088   4.005  13.605 -0.1992 -0.0723 -0.1108
 2439W        W21293   5.382   0.646   2.237 -0.0524 -0.1388 -0.0386
 2440W        W21294   0.047  12.013   0.908 -0.1645 -0.3549  0.3150
 2441W        W21295   9.678   8.081   1.409 -0.1646  0.1162 -0.0078
 2442W        W21296  11.539  12.959   0.424  0.4305 -0.0113 -0.1155
 2443W        W21297  17.662  12.689  12.967  0.0446 -0.1336  0.0338
 2444W        W21298   2.295   4.085   1.472 -0.0110  0.0966  0.2600
 2445W        W21299  12.643   6.447  15.512  0.1549 -0.2463 -0.1349
 2446W        W21300  16.071  14.175   1.705  0.0143  0.3467  0.2685
 2447W        W21301  10.723   0.485   5.243  0.1059 -0.0486  0.0151
 2448W        W21302  11.320   2.135   1.740  0.1900  0.4304  0.4002
 2449W        W21303   8.258  16.356  14.451 -0.2183 -0.0871 -0.2995
 2450W        W21304   0.708  13.374   5.002  0.1474  0.4590  0.0560
 2451W        W21305  10.089   4.289   1.421  0.2133 -0.2291  0.1424
 2452W        W21306   6.337   9.051   0.410 -0.1419  0.0229 -0.4818
 2453W        W21307  10.289  16.270   2.417  0.0447 -0.1165 -0.0204
 2454W        W21308   3.487   6.482  12.971  0.0383  0.1818  0.0626
 2455W        W21309  17.142  12.651   0.514 -0.2095 -0.0015  0.1803
 2456W        W21310   9.811  13.110  11.510  0.2816 -0.1366 -0.1452
 2457W        W21311   5.285   8.996  14.949 -0.2231 -0.0495  0.1112
 2458W        W21312  11.697  11.220  11.767 -0.3385 -0.1818  0.2911
 2459W        W21313  12.893   9.204   4.079 -0.1563 -0.3803  0.3655
 2460W        W21314   8.410   4.341  13.794  0.1156  0.0408 -0.0094
 2461W        W21315  14.458  10.665  13.473  0.0572 -0.1095  0.2754
 2462W        W21316  16.602   2.114  12.273  0.0836  0.0398 -0.0111
 2463W        W21317  16.615   0.093   1.509  0.2094  0.1229  0.3180
 2464W        W21318  17.812  12.519   2.978 -0.0767  0.0690 -0.0537
 2465W        W21319   0.232  12.792  15.824  0.0084 -0.3105  0.1687
 2466W        W21320  10.974  15.360   0.544 -0.0714 -0.0790  0.4514
 2467W        W21321   2.811   6.764  12.453  0.2275  0.0150 -0.0193
 2468W        W21322  10.933   5.030   0.520  0.0431 -0.0888  0.1007
 2469W        W21323  17.877  14.226   2.019 -0.0417 -0.1756  0.0212
 2470W        W21324  12.503   1.079   3.552 -0.1951  0.1577 -0.3031
 2471W        W21325   5.806  15.749   0.994 -0.2705  0.0630 -0.2631
 2472W        W21326   3.023  10.828  13.717 -0.0896 -0.2063  0.0379
 2473W        W21327   9.276  16.346   2.925  0.0916 -0.1874 -0.2926
 2474W        W21328  13.237  12.610  11.963 -0.1866  0.1284 -0.0454
 2475W        W21329  13.603   7.079   2.876  0.0813  0.4490  0.1639
 2476W        W21330   3.680   1.612   3.244 -0.0728 -0.1518 -0.0523
 2477W        W21331   8.928  16.122  13.843 -0.1397  0.0014 -0.1146
 2478W        W21332  14.374   6.952   1.625  0.1687  0.1301 -0.2570
 2479W        W21333   9.920   9.175   4.242  0.1147  0.0480  0.0347
 2480W        W21334  11.508   8.470   0.893  0.2071  0.1211 -0.0957
 2481W        W21335  17.169   6.850   3.269  0.2055  0.0647  0.0080
 2482W        W21336   7.715   0.791  14.366 -0.0480  0.1988  0.1525
 2483W        W21337   2.974   4.735   4.528  0.0363  0.1903  0.0605
 2484W        W21338  13.507   6.374  11.211  0.2059  0.1464 -0.1590
 2485W        W21339   5.074   7.158  13.987  0.0205 -0.0726  0.0990
 2486W        W21340  11.615  12.937   3.694 -0.1509 -0.1271  0.1221
 2487W        W21341  13.340   7.490   2.574  0.1294  0.0063 -0.0578
 2488W        W21342  17.911  10.849   4.402  0.0353  0.2063 -0.0889
 2489W        W21343  17.326  15.694   2.970  0.0577 -0.3190 -0.0859
 2490W        W21344  13.928   6.811  15.063  0.1415  0.2668  0.2159
 2491W        W21345   6.805   7.353   2.555 -0.4004 -0.0197 -0.0417
 2492W        W21346  17.650  17.207  15.475  0.3154  0.0341  0.0457
 2493W        W21347  16.458  11.075   0.915  0.0469  0.2253  0.1048
 2494W        W21348  17.527   2.699  14.854 -0.2069 -0.0897 -0.1290
 2495W        W21349  13.303  14.530  10.803  0.1058 -0.0738 -0.1713
 2496W        W21350  16.664  13.942  14.539 -0.1141 -0.0123 -0.0169
 2497W        W21351  11.492  13.086  15.817 -0.1446 -0.2249 -0.0608
 2498W        W21352  14.070   5.660  12.470  0.2128  0.0221  0.2974
 2499W        W21353   5.401   1.737   3.564  0.2789  0.1065 -0.1900
 2500W        W21354   3.135  11.133  14.996  0.0673 -0.2509 -0.0987
 2501W        W21355  16.156  14.363  12.135  0.0352  0.2716  0.1113
 2502W        W21356  15.019  17.274  13.807  0.0313  0.2703  0.1653
 2503W        W21357  15.286   7.767   4.408 -0.1432 -0.1380 -0.2611
 2504W        W21358   6.638  15.900  14.462 -0.0696 -0.0114  0.1963
 2505W        W21359  11.383   2.982  12.970 -0.0853  0.1509 -0.2347
 2506W        W21360   0.723  15.610  15.395  0.1407  0.1229 -0.1579
 2507W        W21361  13.766   4.693  11.435 -0.3098 -0.2346 -0.1090
 2508W        W21362  17.715   0.756  12.644  0.0443  0.0774  0.0033
 2509W        W21363   7.045   9.772  14.426 -0.2696  0.0735 -0.0822
 2510W        W21364   9.418   4.641   1.867 -0.4586  0.1369 -0.1343
 2511W        W21365   2.282   0.087   3.872  0.1795  0.0705  0.0358
 2512W        W21366   1.954   9.595   4.116 -0.0608  0.2812 -0.0984
 2513W        W21367   0.406   0.466  15.198 -0.0449  0.0930 -0.1372
 2514W        W21368   0.219  16.795   4.078 -0.1882 -0.1044 -0.0075
 2515W        W21369  12.447   7.224  15.848  0.1178  0.0997  0.1683
 2516W        W21370  13.525  11.286  14.158  0.0165  0.2806 -0.2165
 2517W        W21371   3.754  17.413  11.081 -0.2737 -0.1542 -0.1034
 2518W        W21372   7.723  15.901   1.563  0.0984 -0.1043 -0.0269
 2519W        W21373  10.531  17.327  13.867 -0.1633 -0.2379 -0.0665
 2520W        W21374   7.711  17.452   3.258 -0.0379  0.0488  0.3041
 2521W        W21375   2.145   4.175  12.118  0.1786  0.2293 -0.1149
 2522W        W21376  14.317  15.817   3.214  0.0283 -0.0521 -0.0648
 2523W        W21377   6.055  11.330  15.237  0.0207 -0.1089  0.2446
 2524W        W21378  16.156   8.886  12.221  0.1189  0.0322 -0.1584
 2525W        W21379   4.273  16.021  11.982 -0.1546 -0.4314  0.4518
 2526W        W21380   6.401  13.016   2.081 -0.1507 -0.2896 -0.0552
 2527W        W21381  16.106   1.735  15.280 -0.0653  0.0504 -0.1210
 2528W        W21382  14.861  15.808  12.100 -0.0612 -0.1560 -0.0355
 2529W        W21383   1.524   8.813  11.989  0.0301 -0.2572  0.1927
 2530W        W21384  10.245  16.027   2.815  0.0182 -0.0370 -0.2370
 2531W        W21385  10.165  13.263  11.831  0.3798  0.1064  0.0761
 2532W        W21386   8.868  12.502  12.170 -0.1013 -0.2832  0.0874
 2533W        W21387   8.512   8.722  15.962  0.1978 -0.0652  0.3071
 2534W        W21388  12.600   0.894   1.545 -0.1993  0.2102 -0.1326
 2535W        W21389   0.798  12.386  12.587 -0.0327 -0.1309  0.0137
 2536W        W21390  14.849  14.694  12.838 -0.1931  0.1721 -0.1130
 2537W        W21391  15.513  14.527  14.691  0.1199  0.0226 -0.4115
 2538W        W21392   7.230  17.876   4.449 -0.0225  0.0219  0.3202
 2539W        W21393   3.640   8.859  14.076 -0.2472 -0.1491 -0.4356
 2540W        W21394   9.682   7.105  16.187 -0.1571  0.1550 -0.1180
 2541W        W21395  14.694  12.916  10.692  0.0725  0.0767 -0.1796
 2542W        W21396   7.431   2.476   4.650 -0.3743  0.0113 -0.1366
 2543W        W21397  14.100   8.551   1.968  0.1197  0.4439 -0.0389
 2544W        W21398  16.596  10.494  14.710  0.2623 -0.0283 -0.1612
 2545W        W21399   3.618  17.172   3.448  0.1171  0.1426 -0.1747
 2546W        W21400   7.638  14.870   2.582  0.1192  0.2777  0.1594
 2547W        W21401  12.401   4.895   2.776 -0.1596  0.0614  0.1144
 2548W        W21402   4.778  14.552  15.212 -0.0245 -0.2830  0.2343
 2549W        W21403   7.515  12.391  15.425 -0.0343  0.1320 -0.1890
 2550W        W21404   8.119   7.297  12.129 -0.3266  0.2434 -0.4262
 2551W        W21405  12.672  11.314  15.460 -0.0002  0.1106  0.2942
 2552W        W21406   4.459  11.907   0.586  0.0438 -0.1572 -0.0640
 2553W        W21407   1.561   9.722   1.931 -0.1240  0.0345 -0.3861
 2554W        W21408  15.858  17.784   2.922  0.0845  0.0556 -0.0015
 2555W        W21409   4.832   6.900  12.513 -0.0218 -0.0738  0.1238
 2556W        W21410   3.910  15.652   2.130 -0.2599  0.0158 -0.2814
 2557W        W21411   9.234  17.144  13.750  0.0349  0.1354  0.1516
 2558W        W21412   3.606  17.332   3.920  0.2052  0.3371 -0.1228
 2559W        W21413  11.920  14.731  11.492  0.1448  0.0704  0.0521
 2560W        W21414  12.489  10.137   4.340  0.1456  0.3482  0.0834
 2561W        W21415   2.496   5.100  14.140  0.2860 -0.3479  0.4790
 2562W        W21416   6.682   4.603   3.178 -0.1786  0.4856  0.0939
 2563W        W21417  12.274   0.641   1.207  0.2229  0.0145 -0.0222
 2564W        W21418   4.616   0.310  11.054  0.1577 -0.2692 -0.1881
 2565W        W21419  11.032   5.260  12.869  0.3639 -0.0074  0.1504
 2566W        W21420  17.027  17.091   2.599  0.1227 -0.0794  0.2872
 2567W        W21421   7.747   7.637  15.901 -0.0770  0.1684  0.2451
 2568W        W21422   4.002   4.267  14.735 -0.0441 -0.0875 -0.3089
 2569W        W21423  10.443  11.258   4.152  0.1672  0.1337  0.1145
 2570W        W21424   9.906  14.638  13.017  0.1782 -0.3420  0.2431
 2571W        W21425  14.297  12.048  14.358 -0.2231  0.1234 -0.0866
 2572W        W21426   1.291   1.865   4.212 -0.0125 -0.1857 -0.1646
 2573W        W21427   0.707   6.076   2.289  0.4112 -0.0627 -0.0795
 2574W        W21428   0.465   2.350  13.277 -0.1217 -0.0470  0.1850
 2575W        W21429   3.949  12.128   1.349  0.3428 -0.0036  0.0454
 2576W        W21430  11.460  13.505  12.360  0.3673 -0.1528 -0.0122
 2577W        W21431  13.831  14.075   2.701 -0.0484  0.2062  0.0159
 2578W        W21432  10.084   7.979  11.883  0.1102  0.3812 -0.2219
 2579W        W21433   1.097  17.400   0.279 -0.2224  0.3297  0.0968
 2580W        W21434  13.675  13.190   3.859  0.1021  0.2671  0.0529
 2581W        W21435   0.109   7.720  10.118  0.1512 -0.0322  0.0398
 2582W        W21436   4.410  16.059   3.275  0.4360 -0.0547 -0.0554
 2583W        W21437  16.989   8.426  14.110  0.3497 -0.0844 -0.1522
 2584W        W21438  13.941   3.136   3.487  0.1449 -0.3099 -0.2280
 2585W        W21439   1.409   6.913  13.544 -0.1093  0.4608  0.1494
 2586W        W21440  10.991   8.141  15.307 -0.3772 -0.0939  0.0295
 2587W        W21441  14.032   5.602  13.438  0.3726  0.0319 -0.0237
 2588W        W21442   5.968  12.274  12.213 -0.2965  0.1548 -0.0409
 2589W        W21443   8.833   6.238  13.293  0.1446 -0.0534  0.3044
 2590W        W21444   2.623   9.964   3.702  0.0020 -0.2179 -0.0306
 2591W        W21445  10.990   2.257   3.254 -0.0967 -0.1506  0.1052
 2592W        W21446  17.674  17.973   1.067  0.2288  0.0105  0.1078
 2593W        W21447  11.098   6.115  12.308 -0.0215  0.2399  0.1287
 2594W        W21448  14.192   5.708   2.114 -0.2387  0.2540  0.2011
 2595W        W21449   6.639  15.770   3.699  0.2429  0.1542 -0.0982
 2596W        W21450  17.592   9.849   2.319 -0.1003 -0.0152  0.1698
 2597W        W21451  11.465  11.575  14.584  0.1314 -0.0129 -0.2224
 2598W        W21452   8.238  16.555   1.760  0.1915  0.1392 -0.2458
 2599W        W21453  13.858  15.771   1.917 -0.0759  0.0275  0.1068
 2600W        W21454   4.598   4.376   3.704  0.0194 -0.2222  0.0254
 2601W        W21455   1.851  11.327  11.531 -0.2640 -0.0186 -0.1726
 2602W        W21456   1.822   5.120   2.785 -0.1442  0.0051  0.0005
 2603W        W21457  15.829   7.361  12.451 -0.1491  0.2181  0.1001
 2604W        W21458   4.208  16.168  13.211  0.0257  0.1476  0.2511
 2605W        W21459   4.688  16.597   5.033 -0.1281  0.2770  0.0802
 2606W        W21460   3.000   6.202  14.914 -0.1581  0.1518 -0.0262
 2607W        W21461   5.115  13.434  10.606  0.0582  0.0100 -0.1804
 2608W        W21462  17.347   7.250   3.464 -0.1491 -0.0871  0.1697
 2609W        W21463  11.983  14.940   4.429  0.0064 -0.2962 -0.4285
 2610W        W21464   6.380  17.716   3.333 -0.2051  0.1123 -0.1015
 2611W        W21465  12.798   8.384   1.931  0.0437 -0.3505 -0.4742
 2612W        W21466   9.277  10.594  12.490 -0.1306  0.1324 -0.1257
 2613W        W21467   9.224   1.843   2.786 -0.1581  0.2629 -0.3949
 2614W        W21468   6.491  17.327   0.241 -0.1420 -0.1558  0.1117
 2615W        W21469   4.162   1.338  13.794 -0.0043  0.1318 -0.1504
 2616W        W21470  17.934   4.119  14.832 -0.2007  0.1187  0.0934
 2617W        W21471   3.109  11.761  11.680  0.3974  0.3344 -0.0801
 2618W        W21472   0.047   0.440  12.445  0.1162 -0.0504 -0.0797
 2619W        W21473   0.072   1.194   1.386 -0.0421 -0.1290 -0.0866
 2620W        W21474  14.885  11.964   2.874  0.2513  0.0045  0.1592
 2621W        W21475   9.654   1.948  14.881  0.1113  0.1021 -0.0692
 2622W        W21476  13.131  15.047  15.873  0.0642 -0.2739  0.2594
 2623W        W21477   8.605   8.051   2.505  0.3419 -0.1616  0.0025
 2624W        W21478  15.051   1.358   0.322 -0.0652  0.2687  0.1721
 2625W        W21479   4.259  12.172  12.938 -0.0702  0.2771  0.0292
 2626W        W21480  18.021   1.903   2.918 -0.0484  0.0339 -0.0373
 2627W        W21481  15.464  10.803   2.864 -0.0639  0.1305  0.0099
 2628W        W21482   5.945   7.858  13.861 -0.0139 -0.1171 -0.1491
 2629W        W21483   9.728  10.526  12.396 -0.3122 -0.1295 -0.0599
 2630W        W21484  10.296  15.087  13.643 -0.3174  0.1344 -0.0823
 2631W        W21485  11.829   2.477   0.158  0.0784 -0.1671  0.3923
 2632W        W21486  17.942   4.009  11.652 -0.2470 -0.1132 -0.2224
 2633W        W21487  12.496  16.482  15.357 -0.2196  0.0663 -0.0744
 2634W        W21488   1.852  13.228  13.963  0.2706  0.0873  0.0362
 2635W        W21489  10.591  10.032   0.636 -0.4497  0.1003  0.1985
 2636W        W21490  13.059  13.392   3.065 -0.0755 -0.2237  0.3968
 2637W        W21491   1.642  15.543   0.699  0.0716  0.1942  0.2591
 2638W        W21492   3.955  11.009  13.358 -0.2441 -0.2900  0.1587
 2639W        W21493   5.675  16.158  13.699 -0.1698 -0.1537 -0.1060
 2640W        W21494  11.222  18.025   4.170  0.1873 -0.0791 -0.0289
 2641W        W21495   1.008  13.627   0.741 -0.3382  0.0415  0.0689
 2642W        W21496  11.578   8.947  13.511  0.2438 -0.4755 -0.1312
 2643W        W21497  14.070   8.761   0.211 -0.0421 -0.0212 -0.1232
 2644W        W21498   2.524   8.171   2.496 -0.1785 -0.1702  0.0034
 2645W        W21499   8.373   4.293  12.820  0.2908  0.1346  0.0886
 2646W        W21500   4.721  15.687   0.210  0.1641  0.2011 -0.0331
 2647W        W21501   4.910   0.061   6.239  0.1465 -0.2389 -0.0460
 2648W        W21502   3.345   4.524   2.055 -0.1332  0.0947  0.2599
 2649W        W21503  17.128  16.389   1.247  0.1324 -0.0903 -0.3357
 2650W        W21504   6.081   1.040  15.780  0.0704 -0.0577  0.0836
 2651W        W21505   4.733   7.052   2.377  0.1277 -0.0441  0.0732
 2652W        W21506   5.057  15.844   4.495  0.0569 -0.1010  0.0535
 2653W        W21507  10.079   1.926   1.228 -0.1707 -0.2303 -0.0879
 2654W        W21508   1.126  11.461  13.728  0.0629  0.0694 -0.0359
 2655W        W21509  10.886  13.186   5.276  0.0913  0.0471  0.0257
 2656W        W21510  10.972   2.251  11.766  0.0722 -0.0396 -0.0652
 2657W        W21511   1.296   2.389   4.362  0.0309  0.0028 -0.1581
 2658W        W21512   7.505  11.887   2.741  0.2162 -0.0403 -0.0206
 2659W        W21513   2.306  10.617  15.195  0.0684 -0.0363  0.0737
 2660W        W21514   6.611   0.423   2.443 -0.2208  0.1523  0.0345
 2661W        W21515  12.597  13.142  14.993  0.0236  0.2668 -0.0115
 2662W        W21516  14.401  17.549   1.901 -0.0998 -0.1110  0.0395
 2663W        W21517  17.705   1.169  14.333 -0.0385  0.1589 -0.1852
 2664W        W21518  11.906  14.864   0.837  0.0546  0.1356 -0.1314
 2665W        W21519   1.382  14.337   5.089 -0.1316  0.2525  0.0151
 2666W        W21520  10.022  16.192   0.590 -0.0222 -0.1427  0.2048
 2667W        W21521   1.508   4.598   1.760 -0.0872  0.2029  0.0178
 2668W        W21522   3.407   8.100   3.047  0.3040  0.1379  0.0649
 2669W        W21523  17.881  13.903   2.481 -0.0742  0.1383 -0.0482
 2670W        W21524   2.242  10.083   4.072  0.3662 -0.1344  0.2184
 2671W        W21525   0.274   4.631   0.157 -0.2687 -0.2132 -0.0920
 2672W        W21526  10.829  16.189   4.135  0.1789  0.0032 -0.0797
 2673W        W21527   1.210  14.982   2.183  0.3948 -0.0939  0.3504
 2674W        W21528  11.376  12.989   5.202 -0.2630 -0.0083 -0.0229
 2675W        W21529   8.710  16.147   1.023 -0.2423  0.1750  0.2582
 2676W        W21530   6.575  16.092  12.099  0.0667 -0.2431  0.0916
 2677W        W21531  11.625   8.722   2.290 -0.5224  0.1366 -0.1595
 2678W        W21532   2.420   7.450  13.407  0.3367 -0.2566 -0.2918
 2679W        W21533   5.035   3.210  10.755 -0.1950 -0.2092  0.0271
 2680W        W21534  16.194  11.379  14.475 -0.0414  0.1066 -0.1901
 2681W        W21535  10.328  10.840   4.427  0.1191 -0.3673  0.1779
 2682W        W21536   5.786   3.152  14.098 -0.1097  0.0617 -0.0083
 2683W        W21537   4.353  11.687   3.411  0.2837 -0.1625 -0.2912
 2684W        W21538   4.820  16.481  13.767 -0.0605  0.1217 -0.1473
 2685W        W21539   8.420   1.941   0.777  0.2424 -0.1135  0.3152
 2686W        W21540   5.791   7.270  14.688  0.0173 -0.1295 -0.0331
 2687W        W21541   1.613  15.682   2.535 -0.2472 -0.0436  0.1681
 2688W        W21542  17.259   7.371  12.178 -0.1094 -0.2748 -0.1524
 2689W        W21543  12.517  13.461   1.889  0.0877  0.0973  0.1268
 2690W        W21544   8.918  12.680   0.910 -0.1360  0.1573 -0.0558
 2691W        W21545   7.817   3.142  14.472 -0.1224  0.0524 -0.0226
 2692W        W21546   9.933  17.197  12.874 -0.4124  0.2654 -0.0673
 2693W        W21547   2.933   1.767   0.761  0.2774 -0.0270  0.0798
 2694W        W21548   0.682   1.385  14.213 -0.0162  0.0036  0.2613
 2695W        W21549   8.040  14.631   2.941  0.2178 -0.0268  0.3131
 2696W        W21550   0.391  11.334  16.081  0.0482 -0.1062 -0.0012
 2697W        W21551   4.171  14.337  15.576 -0.0478  0.0379  0.2874
 2698W        W21552  11.825  10.685   4.803  0.1141  0.0345  0.3677
 2699W        W21553   7.249  16.087  11.541 -0.1845 -0.2567 -0.3327
 2700W        W21554   2.569   8.411  13.184  0.2169 -0.1329 -0.0421
 2701W        W21555   4.028   9.947   1.571  0.1017  0.0330 -0.0304
 2702W        W21556  12.789   8.807   2.740  0.0266 -0.2018 -0.4801
 2703W        W21557  16.331   8.761  12.669  0.3054 -0.0092 -0.0046
 2704W        W21558  17.149   5.863  14.639 -0.1513  0.0905 -0.2472
 2705W        W21559  16.093   9.548  13.545  0.0204 -0.0135 -0.1009
 2706W        W21560   1.098  17.904   4.424 -0.1216  0.0961  0.3495
 2707W        W21561   9.401  15.505  13.982  0.0027 -0.0532 -0.1318
 2708W        W21562  12.632  11.350   4.805  0.0670 -0.2585  0.0255
 2709W        W21563   6.270  13.280   1.125 -0.0524 -0.0366  0.0746
 2710W        W21564   0.916   7.048  14.378 -0.1502 -0.1015 -0.0383
 2711W        W21565  14.997  12.353  15.395  0.0939 -0.2004 -0.0445
 2712W        W21566  13.433   2.294   2.541  0.1853  0.0956  0.0779
 2713W        W21567   5.408   0.214   1.511 -0.1956 -0.1125 -0.0558
 2714W        W21568  18.026   2.780   2.261  0.0373 -0.2041 -0.1101
 2715W        W21569  11.685   9.723  14.103  0.1284 -0.2686  0.1517
 2716W        W21570  13.920   2.097  14.737 -0.1014  0.2317  0.0248
 2717W        W21571   2.184   7.064  13.070 -0.0006 -0.0606  0.1077
 2718W        W21572   3.119  12.342  12.782 -0.1483  0.0290  0.1521
 2719W        W21573   2.094   3.779  15.022  0.1035 -0.2041 -0.4496
 2720W        W21574   3.887   5.027  13.204 -0.1153  0.0418 -0.0042
 2721W        W21575   6.963  13.183  12.056 -0.3804 -0.1658  0.0649
 2722W        W21576  11.528  16.378  10.836 -0.0999 -0.0235 -0.1550
 2723W        W21577  12.267  17.840  13.584  0.2353  0.0357 -0.0891
 2724W        W21578  16.858  11.229  10.964 -0.0916  0.0669  0.0363
 2725W        W21579  13.838  17.431  15.432 -0.0893 -0.0645 -0.0331
 2726W        W21580   7.264   4.885   0.234 -0.0905  0.1156  0.1809
 2727W        W21581   2.048   5.007   0.551 -0.1671 -0.3102 -0.0890
 2728W        W21582  14.250  17.759  13.296  0.0734  0.0279  0.0676
 2729W        W21583   5.006   1.858   1.691  0.2204 -0.1383 -0.0372
 2730W        W21584  11.008  15.308  14.269  0.0332 -0.2953  0.1455
 2731W        W21585   1.417  11.673  11.415 -0.2239  0.1984  0.2273
 2732W        W21586  13.453   5.773   0.226 -0.0026  0.1371 -0.2387
 2733W        W21587   6.642  11.267   0.832 -0.1959  0.0906  0.1988
 2734W        W21588   6.674  14.301   4.844  0.4253  0.0630 -0.0375
 2735W        W21589   4.721   2.189   5.675 -0.3571 -0.1515  0.3047
 2736W        W21590   0.507  13.163   4.256  0.2162  0.0649  0.2809
 2737W        W21591   9.798  12.836   1.273 -0.1108 -0.2022 -0.1606
 2738W        W21592  12.450  15.958  12.657  0.1111  0.2734  0.1321
 2739W        W21593  13.981   0.480   1.963  0.0380 -0.0476  0.0234
 2740W        W21594   8.338  10.449   5.136 -0.0574  0.0044  0.0505
 2741W        W21595   2.524  15.133  14.147  0.2240 -0.2146 -0.0884
 2742W        W21596   5.456   4.070   1.185  0.4092 -0.0185 -0.0188
 2743W        W21597   9.024   5.490   2.926 -0.2224  0.0368  0.2363
 2744W        W21598  11.657  15.262  13.986 -0.3445 -0.0158 -0.0726
 2745W        W21599  17.247  12.586   5.310  0.1896 -0.1610  0.1223
 2746W        W21600   1.174   9.454   1.543 -0.0222 -0.0349 -0.0405
 2747W        W21601   7.580   7.573   4.539  0.0686 -0.1449 -0.0206
 2748W        W21602  10.462   5.030  14.709 -0.0012  0.0841 -0.2072
 2749W        W21603   4.581   2.349  12.292  0.2733  0.0312  0.1004
 2750W        W21604   3.560  13.137   3.514 -0.0099  0.1018 -0.0291
 2751W        W21605   9.338  11.998  13.360  0.0036 -0.0882  0.2165
 2752W        W21606   2.680   0.510  14.716  0.0295 -0.0282  0.1061
 2753W        W21607  10.729   5.698  12.075 -0.1856  0.3250 -0.1655
 2754W        W21608  10.691  16.845   0.853  0.0855  0.0442 -0.0265
 2755W        W21609   9.380  13.531  15.540  0.0936  0.0229  0.1842
 2756W        W21610  11.215   7.594  11.187  0.0084  0.1587 -0.1677
 2757W        W21611  10.965   4.040   1.677 -0.0494 -0.0481 -0.0933
 2758W        W21612   7.578   0.388  14.028  0.0346  0.0428 -0.0896
 2759W        W21613   6.477   0.292  13.248 -0.0094 -0.0846  0.2453
 2760W        W21614   5.120   6.810   3.628  0.1546  0.1737  0.1651
 2761W        W21615   2.324   7.642   1.788 -0.0315  0.2661 -0.2869
 2762W        W21616  11.202  11.189   0.814  0.0034 -0.0525  0.0863
 2763W        W21617   4.929   2.436   3.799  0.2731  0.0502 -0.1064
 2764W        W21618  10.528   3.820  10.366 -0.0898  0.0080 -0.1229
 2765W        W21619  13.258   7.948   2.753  0.0982  0.3818 -0.2337
 2766W        W21620   9.294  11.053  11.612 -0.1550  0.0946  0.2004
 2767W        W21621   9.332   4.269   1.024  0.1759 -0.2177  0.0466
 2768W        W21622   7.461  13.419   4.754 -0.2660 -0.1979 -0.1841
 2769W        W21623   6.067  15.802  14.903 -0.0806  0.1047 -0.0274
 2770W        W21624   8.848  17.068  11.800 -0.1122 -0.3512 -0.0026
 2771W        W21625  16.135  14.501  15.417  0.0716 -0.0663 -0.0046
 2772W        W21626  12.795   9.735   4.465  0.0716  0.1018  0.1186
 2773W        W21627  17.668   9.036   2.003  0.0567  0.0657 -0.1786
 2774W        W21628  10.615  13.771   3.475 -0.0161  0.2936  0.0575
 2775W        W21629   9.759   3.908  12.807 -0.0716 -0.1230 -0.1249
 2776W        W21630  10.644  15.002  12.115  0.0311  0.0787 -0.1632
 2777W        W21631   9.979   8.155  13.690 -0.0001  0.2964 -0.1645
 2778W        W21632   3.162   0.312   2.263 -0.1938 -0.0907  0.3026
 2779W        W21633  11.631  17.147   4.680  0.0052  0.1169  0.0740
 2780W        W21634   2.237  17.186  12.556  0.1540  0.0523  0.0559
 2781W        W21635   5.951  12.921   2.882 -0.3483 -0.0487 -0.2351
 2782W        W21636   0.950  10.509   0.150  0.1018  0.3209  0.0324
 2783W        W21637  13.491  12.876  12.775 -0.2106 -0.2237 -0.0468
 2784W        W21638   3.525  10.785  12.940 -0.1630  0.1502 -0.0973
 2785W        W21639   0.064  11.416  12.422 -0.3633  0.2496 -0.0151
 2786W        W21640  12.289  16.862  15.211  0.3467 -0.0228  0.2041
 2787W        W21641   7.122   4.825  13.465 -0.0427 -0.1349 -0.1187
 2788W        W21642   2.739   9.860   2.406  0.0471 -0.0253 -0.1007
 2789W        W21643  15.669   0.103  12.604  0.0997 -0.0357 -0.0722
 2790W        W21644   5.166   0.846  14.785 -0.0703 -0.0406 -0.0485
 2791W        W21645  14.157   1.845   2.259 -0.0722 -0.2615  0.0662
 2792W        W21646  11.841  11.744  13.098 -0.1097  0.2145 -0.1498
 2793W        W21647  18.025   2.470   1.329 -0.0030  0.0771  0.1483
 2794W        W21648  17.853   4.620  14.935  0.3938 -0.2148 -0.0566
 2795W        W21649  14.726  13.666   1.806  0.0129  0.1962  0.1017
 2796W        W21650   0.141  16.655  12.089  0.0707  0.1270  0.1127
 2797W        W21651  11.266   3.653  11.712 -0.2880 -0.0852 -0.1411
 2798W        W21652   3.594   8.889   1.690 -0.2194  0.2796 -0.1912
 2799W        W21653  17.201   9.698  12.715 -0.0452  0.3617 -0.0708
 2800W        W21654   6.032  11.017   0.106  0.0720 -0.1044 -0.1410
 2801W        W21655  16.064   6.266   3.534 -0.0251  0.1866 -0.1079
 2802W        W21656  15.853  14.577   4.590  0.0825  0.2236  0.0628
 2803W        W21657  12.719   6.664   3.611  0.0582 -0.3210  0.2284
 2804W        W21658  15.100   5.160  16.100  0.3184  0.0005 -0.2779
 2805W        W21659   6.461  11.722   2.740 -0.0072 -0.0574  0.1692
 2806W        W21660  17.381   1.714   1.308  0.3401  0.0575 -0.0560
 2807W        W21661   3.572   4.523   1.100  0.1642  0.2550  0.2500
 2808W        W21662   0.050  11.755   1.820  0.0970 -0.0213 -0.2012
 2809W        W21663   7.889  11.866  14.038  0.0278 -0.1216  0.2079
 2810W        W21664   5.402  13.803  14.393 -0.3158  0.1084 -0.2241
 2811W        W21665   9.244   2.697  15.530  0.0603  0.2052  0.0895
 2812W        W21666  11.479   3.744   3.472 -0.0259 -0.1115 -0.2820
 2813W        W21667   5.732   7.815   2.845  0.4290 -0.1406  0.0856
 2814W        W21668   4.642   7.257  16.055 -0.1926 -0.3029  0.1095
 2815W        W21669   3.320   0.841   1.112  0.0579  0.0075  0.4944
 2816W        W21670   2.290   7.966   5.556  0.1256 -0.0460  0.0408
 2817W        W21671  16.000   3.307   0.283  0.1216  0.0384  0.0683
 2818W        W21672   9.967  14.930  15.362  0.1262 -0.0157  0.1249
 2819W        W21673  15.452  12.669   2.554 -0.1065 -0.0486  0.1060
 2820W        W21674  13.954  15.053  10.886 -0.1172  0.0620 -0.0286
 2821W        W21675  13.488   1.810  12.740 -0.3053  0.2025  0.1661
 2822W        W21676   4.255   0.524   0.684  0.1287 -0.1046 -0.1231
 2823W        W21677   5.520  10.617   1.452 -0.1725 -0.1779  0.2718
 2824W        W21678   7.877   4.445  12.210  0.2265 -0.0677  0.0640
 2825W        W21679   3.536   1.050  14.235  0.3401  0.1749  0.2380
 2826W        W21680   8.907   1.770  13.167 -0.1256  0.4464 -0.2099
 2827W        W21681   4.508   5.236  11.514  0.0314  0.1787  0.4302
 2828W        W21682  17.380  17.928  10.944 -0.1101 -0.0598 -0.1195
 2829W        W21683   1.004   7.635   3.899 -0.2611 -0.2399 -0.1361
 2830W        W21684   4.024  11.677   1.720 -0.1681  0.0839 -0.3879
 2831W        W21685  15.183  16.729  11.578 -0.1232 -0.3378  0.0943
 2832W        W21686   2.599  11.172   4.529 -0.1255 -0.2528  0.0612
 2833W        W21687  11.777   5.161  12.275 -0.0884  0.0742 -0.2572
 2834W        W21688   0.481   5.660   3.728 -0.1416 -0.0600  0.1932
 2835W        W21689  16.037   7.048   1.983 -0.1912  0.2227 -0.2130
 2836W        W21690   1.426   8.851   4.681 -0.1821  0.0658 -0.0222
 2837W        W21691   6.268   7.565   0.711 -0.1527 -0.2136  0.2256
 2838W        W21692   7.918   0.694  13.607  0.2228  0.1602 -0.4615
 2839W        W21693  10.383   7.324  13.951  0.1624 -0.1092  0.1321
 2840W        W21694   3.513  13.296   3.030 -0.1947  0.2513  0.1390
 2841W        W21695  13.901  15.020  16.035  0.0235  0.1509  0.0531
 2842W        W21696  16.480  13.794  14.984 -0.0760 -0.3254 -0.2481
 2843W        W21697  11.001  16.594  14.185  0.0316  0.1418 -0.2855
 2844W        W21698   4.704   4.806  15.723 -0.1586 -0.0276 -0.4004
 2845W        W21699   6.576   8.759   1.174  0.1517  0.1834  0.1535
 2846W        W21700  16.298   7.934   2.934  0.1171  0.1573 -0.0721
 2847W        W21701   2.501  11.531  15.610 -0.1688 -0.1043  0.0654
 2848W        W21702  13.367   8.854  13.257 -0.0532  0.0279  0.0084
 2849W        W21703   4.514  12.463  11.187  0.1839 -0.2402  0.1060
 2850W        W21704  13.508   5.499  15.070  0.2175  0.1969 -0.2152
 2851W        W21705   0.197   4.588  13.947  0.0552  0.1567 -0.2571
 2852W        W21706  13.571  10.942   4.124 -0.0512  0.0097  0.0152
 2853W        W21707  14.526  10.556   1.008  0.1671  0.0346 -0.0943
 2854W        W21708  11.595   0.445   0.503 -0.1541  0.0602  0.3333
 2855W        W21709  10.289   8.709  11.725  0.1352 -0.2166  0.0624
 2856W        W21710   3.515   0.483   0.137  0.3097  0.3457 -0.3369
 2857W        W21711   3.025  14.561   0.004 -0.1285 -0.0804 -0.0608
 2858W        W21712  13.202   1.645   3.711 -0.1596 -0.1208 -0.1290
 2859W        W21713   2.051   0.233   5.979  0.1261 -0.1030  0.4969
 2860W        W21714   7.845   5.071  15.858 -0.1083  0.2403  0.0934
 2861W        W21715   1.788  14.965  12.949 -0.2328  0.1801  0.0888
 2862W        W21716   7.102   8.890   2.358  0.0596 -0.0492  0.0298
 2863W        W21717  11.461   8.107   2.284  0.0940 -0.1426 -0.0235
 2864W        W21718  13.325  10.896   2.193 -0.3796  0.0343  0.0706
 2865W        W21719  11.201  13.896   0.361 -0.0979 -0.2163  0.0219
 2866W        W21720  12.876   6.184   4.279  0.1589  0.1229 -0.2434
 2867W        W21721  14.016  13.740   5.021 -0.2841 -0.1656  0.0701
 2868W        W21722   7.279   0.423  12.790  0.0548 -0.1363 -0.1531
 2869W        W21723  12.639   5.316  14.602 -0.0686  0.0734 -0.1350
 2870W        W21724   7.678  12.515   2.407  0.0690  0.0233 -0.2652
 2871W        W21725  15.383  13.880   4.838  0.2052  0.2021 -0.0472
 2872W        W21726  16.719  11.848   2.392  0.1182 -0.0216  0.3675
 2873W        W21727   9.517  13.670  13.679  0.1863 -0.1355  0.4289
 2874W        W21728   5.420   4.183   2.616 -0.0823  0.1526 -0.2104
 2875W        W21729   5.278   7.680   4.533 -0.2169  0.2994 -0.3611
 2876W        W21730   3.436   9.122  16.125 -0.2314 -0.0962 -0.0496
 2877W        W21731  13.213  11.920  12.949  0.0555  0.0533 -0.0384
 2878W        W21732   8.706  16.083  14.492 -0.0789 -0.0543 -0.0310
 2879W        W21733   3.965  16.145   3.408 -0.0558 -0.1463  0.0119
 2880W        W21734   6.045  14.482   3.749  0.0045  0.0624 -0.1102
 2881W        W21735  12.767   0.755  13.161  0.1873  0.0756 -0.1405
 2882W        W21736  13.451  16.409   1.841 -0.0490  0.0622  0.3413
 2883W        W21737   9.472   5.057   3.538  0.0203 -0.2215  0.3031
 2884W        W21738  15.011  10.248  11.815 -0.1462  0.0291  0.0411
 2885W        W21739   3.822   3.367  13.822 -0.3163 -0.2271  0.3044
 2886W        W21740   5.635  15.251   0.349  0.2853 -0.2723  0.0861
 2887W        W21741   7.115  16.990   3.215  0.2108 -0.1048  0.2489
 2888W        W21742   2.749  10.065   2.900 -0.0688  0.1361 -0.0795
 2889W        W21743   3.274   1.557  14.944  0.1101 -0.2813  0.0045
 2890W        W21744  16.320  14.442  15.896 -0.1486  0.0471  0.3415
 2891W        W21745   5.366   8.304  16.016  0.0821 -0.1183 -0.0185
 2892W        W21746   0.668  15.482  15.913  0.2762 -0.1258  0.3135
 2893W        W21747  15.547  12.445   3.020 -0.0631  0.0192  0.0117
 2894W        W21748  11.574  12.123   3.284  0.1511  0.0799  0.2823
 2895W        W21749  11.940   8.352  12.225 -0.1002  0.0524 -0.4648
 2896W        W21750  12.834  17.793   4.494 -0.2353  0.1319  0.1864
 2897W        W21751   9.485   4.009  11.375 -0.4143 -0.2556  0.3074
 2898W        W21752   3.310   1.170  12.615 -0.0672 -0.1329 -0.0430
 2899W        W21753  10.206   4.090  12.440 -0.3581  0.1148 -0.4443
 2900W        W21754  14.258   3.449  11.889  0.0502 -0.0303 -0.2219
 2901W        W21755  11.549  10.519   3.094  0.1722  0.1639 -0.1840
 2902W        W21756   4.065   3.863   0.453 -0.1679  0.0987 -0.1640
 2903W        W21757  17.351   6.793  13.063  0.1507  0.0431 -0.0628
 2904W        W21758   1.803   8.495   4.593 -0.1443  0.2931 -0.1213
 2905W        W21759   9.808   6.885   1.563 -0.3822  0.0392  0.2803
 2906W        W21760   7.712  15.842  15.081  0.0252 -0.0364 -0.1131
 2907W        W21761  12.315   6.768  14.206 -0.0098  0.0696  0.3192
 2908W        W21762   4.177   2.820  13.943 -0.0940  0.2547  0.2760
 2909W        W21763  13.223  11.490   3.990  0.0876  0.0817 -0.5156
 2910W        W21764  15.542   5.459  14.704 -0.0575  0.0466  0.0633
 2911W        W21765   9.953  13.265  13.754  0.1616  0.0721  0.0153
 2912W        W21766  13.104  16.114  14.667 -0.1359  0.0834  0.1742
 2913W        W21767  12.828  16.147   3.185 -0.2800 -0.1008 -0.0825
 2914W        W21768   5.395   2.655  11.516 -0.2289 -0.0702 -0.2332
 2915W        W21769   8.420   9.568   3.338 -0.1784  0.1685 -0.0007
 2916W        W21770  12.878   7.883  13.297  0.0314 -0.1696 -0.1513
 2917W        W21771  16.774  16.664   0.079 -0.1892 -0.0178 -0.1355
 2918W        W21772   7.289  13.357   2.180 -0.1943  0.0117  0.0165
 2919W        W21773  12.861   3.711  15.552  0.0173 -0.0672  0.3313
 2920W        W21774   4.344   3.616  13.740  0.0265  0.1810  0.1041
 2921W        W21775   6.878   4.827  14.387  0.4240 -0.1536 -0.0858
 2922W        W21776   7.712  14.621   6.122  0.0056  0.0429  0.4691
 2923W        W21777  10.872   2.405  15.540 -0.0137 -0.3218 -0.1790
 2924W        W21778  11.493  14.355   2.534  0.2550  0.1290  0.1811
 2925W        W21779  14.554   7.404  14.776 -0.0831  0.3449 -0.4756
 2926W        W21780   6.116  11.219  12.783 -0.0468 -0.2624 -0.0802
 2927W        W21781   6.960   6.877   0.523  0.1427  0.1123  0.1085
 2928W        W21782  16.343   4.702   1.186 -0.2084 -0.3941 -0.0279
 2929W        W21783  13.772   8.129  11.563  0.0686  0.1890 -0.0710
 2930W        W21784   0.976   3.013   3.777  0.1337  0.4279 -0.1780
 2931W        W21785   5.833  15.817   0.479  0.0975 -0.0431  0.2512
 2932W        W21786   5.444   0.138   4.872 -0.2911  0.0745 -0.1296
 2933W        W21787   5.934  14.466  15.906 -0.1118  0.2855 -0.1119
 2934W        W21788   7.014  12.556   4.462 -0.1735  0.1723 -0.0293
 2935W        W21789  12.505   0.923   0.229 -0.2786 -0.2090 -0.0658
 2936W        W21790  17.393   1.554  14.327  0.1299 -0.3481 -0.2529
 2937W        W21791  14.402   5.016  12.623  0.1066  0.0551 -0.3286
 2938W        W21792   6.386   0.982   4.419 -0.3011  0.1755  0.1345
 2939W        W21793  11.471   5.359   2.917 -0.1518  0.0948 -0.1781
 2940W        W21794   8.389  12.448  13.015  0.1209  0.2916 -0.1096
 2941W        W21795   3.240   2.483  12.503  0.2468  0.0877 -0.0614
 2942W        W21796  15.928   0.673  14.729  0.1394 -0.0530  0.2783
 2943W        W21797   6.800  11.479   1.322  0.2041  0.0524  0.0890
 2944W        W21798   4.907   7.823   3.507 -0.0282  0.3309  0.0376
 2945W        W21799  13.837   3.456   4.429 -0.2312  0.0284 -0.0184
 2946W        W21800  10.654   6.340   0.070  0.0198 -0.0640  0.3420
 2947W        W21801  13.986   2.201  11.452 -0.1635  0.2092 -0.0742
 2948W        W21802   3.988   9.336   3.364 -0.0840  0.2170  0.0814
 2949W        W21803   3.133   8.805   3.374 -0.1977 -0.1351 -0.2363
 2950W        W21804  15.646   6.518  14.309  0.2852 -0.1197  0.0897
 2951W        W21805  14.707   6.021  13.405 -0.2199  0.2244 -0.1487
 2952W        W21806   0.297   2.498  15.344  0.2095  0.4393 -0.0411
 2953W        W21807  13.383  14.592  13.802  0.1003 -0.2161  0.0305
 2954W        W21808   0.957   6.336   3.110  0.1920 -0.0153 -0.1195
 2955W        W21809  14.567   7.255  14.313  0.1982 -0.1874 -0.0948
 2956W        W21810   9.011   2.401   1.140 -0.0009  0.3048  0.0015
 2957W        W21811   8.757   9.893   1.997 -0.2426 -0.2430  0.0608
 2958W        W21812  12.077  11.373   0.468 -0.0622  0.0834  0.0636
 2959W        W21813   5.191  14.383  15.659 -0.2798 -0.1167  0.4367
 2960W        W21814   8.973  13.031   3.825  0.0210  0.1830 -0.0216
 2961W        W21815   9.483  15.929   0.876 -0.0952  0.1785  0.0561
 2962W        W21816  12.991   0.172  13.996 -0.1483  0.1739 -0.1182
 2963W        W21817  11.290   6.162   4.497 -0.0252 -0.2524 -0.0848
 2964W        W21818  13.832  16.863  14.119  0.0090  0.1707 -0.0967
 2965W        W21819   9.559  11.829  12.503 -0.0709 -0.1125 -0.0227
 2966W        W21820   5.691   0.955  12.915 -0.1875 -0.1958  0.2448
 2967W        W21821   0.106  13.379   4.882 -0.0958  0.1208  0.1251
 2968W        W21822   2.729   4.139   1.002 -0.2181 -0.2384  0.0081
 2969W        W21823  10.544   9.583  14.749 -0.0331 -0.0518  0.1832
 2970W        W21824   6.067  17.261   2.544  0.0280 -0.2101  0.3362
 2971W        W21825  17.988  16.110   0.724  0.0905 -0.0630  0.2027
 2972W        W21826  15.928  17.328   3.177  0.1199  0.0862  0.0273
 2973W        W21827   6.974   3.887   2.242 -0.1072  0.0325 -0.3964
 2974W        W21828  13.351   8.425   0.660 -0.1187 -0.2216  0.2294
 2975W        W21829   6.000   2.189   0.163 -0.1316  0.0775 -0.3557
 2976W        W21830  15.006  14.663  15.565 -0.3335  0.1041  0.2371
 2977W        W21831  12.745  10.425   2.828 -0.0253 -0.3739 -0.1386
 2978W        W21832  10.777   2.802  13.759 -0.1587 -0.0734 -0.1028
 2979W        W21833  11.585  11.974   4.303 -0.1420  0.0849 -0.0476
 2980W        W21834   9.252   9.196   0.292  0.1683  0.0708  0.0253
 2981W        W21835   4.035  12.102  13.388  0.2151 -0.0307  0.1983
 2982W        W21836   8.586  14.600  14.768  0.1728 -0.2044  0.1596
 2983W        W21837  12.348  12.079  12.681 -0.0958 -0.1334  0.0921
 2984W        W21838  14.088  13.637   4.489 -0.0259  0.0288  0.3123
 2985W        W21839   3.136   1.163  14.580  0.0513 -0.0202  0.0387
 2986W        W21840  17.116  16.264   4.166  0.1798 -0.2183  0.2005
 2987W        W21841  15.671  12.960  13.444 -0.1204 -0.0410 -0.0535
 2988W        W21842  11.054   9.916  12.488  0.1542 -0.0470 -0.0713
 2989W        W21843   6.693   8.395   4.344  0.0319  0.3305  0.3525
 2990W        W21844  13.711  15.212  11.651 -0.2774 -0.1623  0.0017
 2991W        W21845   3.459   3.197   0.150 -0.1183  0.1470  0.0196
 2992W        W21846  11.821   2.727  13.355 -0.0641  0.3635 -0.1865
 2993W        W21847   3.832  11.168  11.654 -0.3628 -0.2375 -0.0806
 2994W        W21848  12.179   9.678   1.099 -0.1214  0.2339  0.1046
 2995W        W21849  11.789   5.038   1.664 -0.2090 -0.1388 -0.1591
 2996W        W21850   0.980  15.212   3.158  0.1100  0.1515 -0.2519
 2997W        W21851   0.795   6.730  11.974  0.1050  0.3190  0.0521
 2998W        W21852  15.876  10.118   2.293  0.0568  0.0313  0.0071
 2999W        W21853  15.495  10.396  15.163 -0.1130  0.1804  0.1152
 3000W        W21854   2.756   9.385  12.037  0.2306  0.1238 -0.1315
 3001W        W21855  16.724   0.977   1.222 -0.0829  0.0213  0.2899
 3002W        W21856   8.668   4.268   0.984  0.3539 -0.0358 -0.0220
 3003W        W21857   2.410   7.557  16.160 -0.3921 -0.1141  0.2078
 3004W        W21858  11.385   4.910  13.247 -0.0252 -0.0911  0.1215
 3005W        W21859  17.435   8.625   2.262 -0.0988 -0.0897  0.2306
 3006W        W21860  11.302  13.258   0.058 -0.1304  0.4081  0.1961
 3007W        W21861   8.260   7.063  12.712 -0.2083 -0.1373 -0.0873
 3008W        W21862  16.229   5.786  15.631  0.0455 -0.0343 -0.0262
 3009W        W21863   3.392   3.525  15.486 -0.0007  0.1575  0.1933
 3010W        W21864  12.004  13.041   1.088  0.1215  0.0252  0.0721
 3011W        W21865   7.572   3.726  14.224 -0.0841  0.0106  0.0141
 3012W        W21866   7.736   2.319   0.488 -0.2209  0.0648  0.4250
 3013W        W21867   6.734  11.792   2.120  0.1131 -0.0598 -0.0721
 3014W        W21868  10.804  18.028   0.063 -0.0408  0.2086 -0.0598
 3015W        W21869   2.948   3.622  13.226  0.0195  0.1683 -0.1840
 3016W        W21870   6.465   9.894  16.209 -0.0948 -0.0240 -0.0009
 3017W        W21871  13.441   4.317   1.728  0.0915  0.0602  0.0229
 3018W        W21872   7.054  12.245  15.781  0.0038  0.0151 -0.0369
 3019W        W21873  12.295   3.442   0.306  0.2313  0.1150  0.0120
 3020W        W21874  15.910   6.602  15.430  0.2605 -0.2401  0.2573
 3021W        W21875  15.241  17.915  14.488  0.2032 -0.0181 -0.1512
 3022W        W21876   9.805   9.179   0.374  0.2636  0.0735 -0.1005
 3023W        W21877   4.013  17.158  13.089  0.2268  0.0702 -0.2850
 3024W        W21878   9.054  14.936   4.648  0.0836  0.1470  0.1074
 3025W        W21879  11.980   2.921   3.549  0.0070  0.1208  0.1677
 3026W        W21880   5.546  13.836   4.335  0.2166  0.3706 -0.0147
 3027W        W21881  15.314   3.393   0.548  0.2428  0.0164 -0.0583
 3028W        W21882   3.104   7.765  15.567 -0.1380  0.0336 -0.1674
 3029W        W21883   6.409   6.771  14.553  0.2229 -0.1349  0.4266
 3030W        W21884   3.347  11.776   2.819  0.1378  0.0858 -0.0968
 3031W        W21885  11.587   3.423  11.346  0.2669  0.2201 -0.2497
 3032W        W21886   4.530   5.187   0.413 -0.1828 -0.2976 -0.2624
 3033W        W21887  17.187  10.477  11.072  0.1318 -0.0846 -0.1014
 3034W        W21888   1.307   2.319  12.708 -0.2066  0.1085 -0.1694
 3035W        W21889   2.162   5.063  11.223  0.1077 -0.0579  0.1447
 3036W        W21890  17.926   4.364  12.172 -0.0137  0.2406 -0.2792
 3037W        W21891  10.981   8.422   2.379 -0.0719 -0.0307 -0.4902
 3038W        W21892  10.071   0.766  14.220 -0.0007 -0.1939  0.3277
 3039W        W21893  13.338  16.256   3.128 -0.0832 -0.2629  0.1362
 3040W        W21894   0.700  16.672  13.037 -0.0065  0.3119 -0.2494
 3041W        W21895   8.435   6.648   3.826 -0.2501 -0.2477 -0.1160
 3042W        W21896   6.271  13.597   4.040 -0.0039 -0.1004 -0.0234
 3043W        W21897   7.302  10.945  14.720 -0.2621 -0.1040 -0.0564
 3044W        W21898   7.159   7.765   4.856 -0.2150 -0.0897  0.2381
 3045W        W21899   9.106  12.076  13.798  0.1641 -0.0216 -0.2248
 3046W        W21900   3.869   8.886   2.100 -0.3226  0.0632  0.0367
 3047W        W21901  12.064   6.003  13.261 -0.0919 -0.2196 -0.0805
 3048W        W21902   5.763  14.570   1.424  0.0120  0.0506 -0.0294
 3049W        W21903   9.984   0.107  12.654 -0.0437  0.2960  0.0418
 3050W        W21904  18.034   9.446  13.258 -0.0459  0.0246 -0.1952
 3051W        W21905   2.686  11.827  11.395 -0.1278  0.1333 -0.1936
 3052W        W21906  16.714  14.904  13.007  0.0170 -0.3727  0.0465
 3053W        W21907  10.072  17.577  15.625 -0.2284 -0.0610  0.0095
 3054W        W21908  16.672   0.629   1.582 -0.0365  0.0932  0.1931
 3055W        W21909   0.092   1.989  13.400 -0.1326 -0.1058 -0.0075
 3056W        W21910  13.218  10.378   0.521 -0.0886 -0.3250  0.2206
 3057W        W21911   0.301   2.661  16.101 -0.1918 -0.1430  0.0017
 3058W        W21912  14.481   7.653   0.846  0.1600 -0.0820 -0.1071
 3059W        W21913  15.867   1.843   1.209 -0.1754  0.0072  0.1466
 3060W        W21914  14.581  13.023   2.182  0.0585 -0.0731 -0.2216
 3061W        W21915   7.067   8.371  13.651  0.3142  0.0108 -0.1535
 3062W        W21916  15.287   0.921   0.593  0.1265 -0.1375 -0.1363
 3063W        W21917  13.509  11.604  15.267  0.0592 -0.2296 -0.3047
 3064W        W21918   0.892   6.195   0.446  0.1907 -0.4027 -0.3625
 3065W        W21919   1.994  15.224  14.717  0.2771  0.0572 -0.1392
 3066W        W21920  10.717   5.432  15.927  0.4050  0.1279 -0.0723
 3067W        W21921   0.571  17.260  11.172 -0.1374 -0.0915  0.0268
 3068W        W21922  16.210   7.446   2.763 -0.1526 -0.0862 -0.0820
 3069W        W21923  12.822  13.424   4.276  0.0027 -0.0149 -0.0712
 3070W        W21924   7.052  10.283  15.502 -0.1910  0.1251  0.1811
 3071W        W21925  13.946  15.765  14.489  0.1631  0.1692  0.0990
 3072W        W21926   2.432  15.861   2.805 -0.1505 -0.0254 -0.3534
 3073W        W21927  13.870   8.373  16.151  0.0917 -0.2288  0.1498
 3074W        W21928   2.152   8.029   0.969 -0.2395  0.4305  0.1696
 3075W        W21929  10.620  17.717  12.271  0.1910 -0.0011  0.0218
 3076W        W21930  15.859  11.625   2.808 -0.0543 -0.0934 -0.2348
 3077W        W21931   0.608   5.310   2.838  0.0242 -0.0839 -0.0811
 3078W        W21932  10.063   0.314   5.698 -0.1327 -0.1629 -0.2651
 3079W        W21933   6.188  14.229  12.140 -0.0870  0.0663 -0.0361
 3080W        W21934  16.812   4.301   3.143  0.2700  0.0917  0.0768
 3081W        W21935   5.693   9.285   4.147  0.0240  0.1403 -0.0303
 3082W        W21936   1.157   7.767  13.091 -0.0086 -0.0109 -0.1250
 3083W        W21937   9.951   4.557   1.009  0.0005  0.2390  0.0946
 3084W        W21938  12.964   8.310   4.010  0.1678  0.4608 -0.3443
 3085W        W21939   5.734  14.284  13.772  0.0122  0.0991  0.0822
 3086W        W21940   7.872  12.076   4.521 -0.0845  0.0283 -0.0055
 3087W        W21941  17.323   6.839  11.505 -0.1358  0.5303  0.1858
 3088W        W21942   7.987  15.400  11.118  0.0427 -0.0957 -0.1176
 3089W        W21943   2.195   6.208  11.152  0.1971  0.1098  0.2102
 3090W        W21944   4.601  14.190  13.643 -0.1652 -0.0885  0.0351
 3091W        W21945   2.357  12.179   3.599 -0.2705  0.2146 -0.2213
 3092W        W21946   6.598  15.725  14.931 -0.3690 -0.2227  0.0910
 3093W        W21947  12.465   9.350  14.639  0.2623 -0.1460  0.0103
 3094W        W21948  13.470   9.517   1.612 -0.1868  0.0054 -0.5057
 3095W        W21949  13.144   6.639  12.866  0.0659  0.0248  0.3629
 3096W        W21950   6.746  12.720  12.118  0.0251  0.2612 -0.2501
 3097W        W21951   7.960  17.459   4.081  0.0116 -0.0372  0.2509
 3098W        W21952  16.621   2.025   3.468  0.0295  0.0398  0.1068
 3099W        W21953  16.514   6.079   3.529  0.0627 -0.0461  0.1078
 3100W        W21954   2.397   8.396  15.718  0.0164  0.1022 -0.2951
 3101W        W21955   1.174   6.664   0.650 -0.0929  0.1293  0.1288
 3102W        W21956   1.985   8.774  15.833 -0.0358  0.0105 -0.1323
 3103W        W21957  17.978   2.165  14.344 -0.0815  0.1099  0.1026
 3104W        W21958  17.257   7.092   0.149 -0.1574 -0.0806  0.0355
 3105W        W21959   4.816   6.581  13.349 -0.0619  0.1787  0.2619
 3106W        W21960  10.328   5.370   0.016 -0.2738 -0.0883  0.1196
 3107W        W21961   3.241  13.788  14.144  0.0364 -0.1575 -0.0225
 3108W        W21962  12.130  14.294   1.713  0.3571 -0.2761  0.0284
 3109W        W21963  12.152   7.287  15.410  0.1266  0.0838 -0.2060
 3110W        W21964   0.058   8.501   0.818  0.0645  0.0044 -0.0877
 3111W        W21965  13.713  12.804  11.445  0.3494 -0.1405  0.2833
 3112W        W21966   0.924   2.190   4.620  0.1354  0.2426 -0.1471
 3113W        W21967   1.554  15.221  13.712  0.1923  0.2101  0.1196
 3114W        W21968   3.552  12.772  14.169  0.0280  0.2819  0.2463
 3115W        W21969   9.382   4.380   0.289 -0.1263  0.1216  0.0338
 3116W        W21970  12.770   1.688  15.443  0.0728 -0.1527 -0.1076
 3117W        W21971  11.191   9.637  14.043 -0.0373  0.0614  0.1374
 3118W        W21972   3.854   7.286  15.350 -0.2915 -0.0183  0.3713
 3119W        W21973   9.645  11.753  13.003  0.1571  0.1107 -0.2794
 3120W        W21974  16.614   8.949  11.730  0.2821  0.3982  0.1488
 3121W        W21975   6.789  13.644   1.337  0.0419 -0.2091  0.0513
 3122W        W21976   2.597  11.381   1.079  0.1077  0.1402  0.0499
 3123W        W21977  10.713   2.342  10.464  0.1638  0.2583 -0.1727
 3124W        W21978   4.806   5.757   2.209 -0.2811  0.0771 -0.1293
 3125W        W21979   2.952   2.137  11.889  0.1884 -0.1922 -0.0359
 3126W        W21980   0.052  17.056   5.658 -0.2329 -0.0782 -0.0698
 3127W        W21981  16.867  17.310  13.157  0.1512  0.1411  0.2536
 3128W        W21982   7.706  12.527   1.067  0.0525 -0.3319 -0.3324
 3129W        W21983   9.600  16.144  11.739  0.0202  0.0038 -0.1760
 3130W        W21984  14.850   4.187   0.759 -0.1577  0.3207  0.0367
 3131W        W21985   8.656  13.641   4.039  0.0498  0.1844  0.1314
 3132W        W21986  11.063   4.491   5.471  0.0293 -0.1443  0.0271
 3133W        W21987   0.494  15.944   3.606  0.0082  0.1532  0.0088
 3134W        W21988   1.508   1.117   3.939  0.1261  0.0409  0.0876
 3135W        W21989   9.539  15.403  13.012  0.0408 -0.1370  0.0940
 3136W        W21990  17.542   3.191   3.744 -0.0723 -0.0699 -0.0698
 3137W        W21991   5.775   8.412  11.857  0.1997 -0.1673 -0.0728
 3138W        W21992  12.668   9.144  10.750 -0.4597 -0.0027  0.0562
 3139W        W21993  15.634   1.875  15.441 -0.0793  0.0381  0.1936
 3140W        W21994  17.140   0.645  11.646  0.0469  0.1912  0.2106
 3141W        W21995   7.842  13.764  13.779  0.2820  0.1111  0.1460
 3142W        W21996  15.565  14.246   1.795 -0.2350  0.1103 -0.1840
 3143W        W21997  10.886   1.974  12.304  0.0435 -0.2994 -0.2052
 3144W        W21998   1.798  11.040  13.497 -0.2391  0.1695 -0.2097
 3145W        W21999   8.405  10.100   3.851  0.0568  0.2446 -0.4113
 3146W        W22000   8.167  12.352  14.064  0.0355  0.0576 -0.0576
 3147W        W22001   9.149  16.077  13.347 -0.3258  0.1922  0.1174
 3148W        W22002   5.771   0.519   5.038 -0.3292 -0.1567  0.1299
 3149W        W22003   6.446  12.492   5.037  0.3349 -0.2063  0.0361
 3150W        W22004  17.285   7.589  14.064  0.2588  0.2991 -0.4578
 3151W        W22005   9.152   3.522  14.250 -0.3417  0.0771 -0.0399
 3152W        W22006  10.514   5.371  12.776  0.0765  0.0221 -0.0633
 3153W        W22007   2.048   4.991   2.341  0.0069 -0.0124  0.1253
 3154W        W22008   2.849   5.041   1.165 -0.0954 -0.0249  0.0544
 3155W        W22009   8.672   9.786  14.841  0.2129  0.1912  0.1939
 3156W        W22010   4.170  15.406  15.081  0.1235  0.1245 -0.0777
 3157W        W22011   7.858   3.585   2.555 -0.1852  0.3008 -0.1620
 3158W        W22012   1.604   7.739  14.274  0.2589 -0.1317  0.2145
 3159W        W22013   8.606   6.994   0.729  0.0729 -0.0779 -0.0356
 3160W        W22014   6.833   1.126  12.311  0.0768  0.0704  0.1911
 3161W        W22015  10.860   0.877  13.687 -0.3684  0.1392  0.1022
 3162W        W22016  10.455  13.501  15.812  0.0114  0.0936 -0.1439
 3163W        W22017   1.961   3.169   1.807 -0.0600  0.2750  0.0671
 3164W        W22018  15.554   7.985   2.963  0.0947  0.1476  0.1854
 3165W        W22019   9.059   5.396   4.765 -0.2098 -0.1873  0.1421
 3166W        W22020   3.941   1.872  16.163  0.0242  0.5825 -0.1402
 3167W        W22021   4.236   0.920   3.244 -0.0156  0.1835 -0.1128
 3168W        W22022   2.580  10.806   2.379 -0.0654 -0.3999  0.0253
 3169W        W22023   5.887   0.389   3.682 -0.4345 -0.0941  0.0465
 3170W        W22024   3.194  17.497   2.713  0.2024  0.2648 -0.0921
 3171W        W22025  11.613  10.649  14.093  0.0489 -0.0669  0.0611
 3172W        W22026   4.556  10.949  14.726  0.1341  0.0838 -0.0102
 3173W        W22027   5.784   7.399  12.361  0.0708  0.0670 -0.0688
 3174W        W22028  16.859   6.432   1.416  0.0341  0.1264 -0.2179
 3175W        W22029  17.124   3.358  11.999 -0.0722 -0.0719 -0.0521
 3176W        W22030   9.562  11.947   2.092 -0.1858 -0.1927 -0.1639
 3177W        W22031  10.573  16.732   2.465  0.1484 -0.1585  0.1231
 3178W        W22032   7.846   0.748   3.780  0.0098  0.2218 -0.0087
 3179W        W22033   6.457   1.996   0.058  0.1245 -0.0301  0.1541
 3180W        W22034   2.010   0.892   4.604  0.0765 -0.0907 -0.3009
 3181W        W22035   9.083   2.192   5.536  0.1517  0.3172 -0.0239
 3182W        W22036  14.254   1.174   1.374  0.1140 -0.2750 -0.0812
 3183W        W22037   0.776   3.464  14.003  0.0867 -0.4121  0.0527
 3184W        W22038  15.497  13.763  13.127 -0.1768 -0.0121 -0.0968
 3185W        W22039   8.485  16.928   2.677 -0.2439  0.0505  0.1646
 3186W        W22040   4.826   3.610   4.786  0.0223 -0.0458 -0.1963
 3187W        W22041  11.978   6.251  12.328 -0.6439  0.5692  0.2390
 3188W        W22042   9.327  14.237   2.474 -0.0914  0.3926  0.1178
 3189W        W22043  15.342  13.975  13.928  0.1028  0.1149  0.1098
 3190W        W22044   2.670   5.537  14.889  0.0155 -0.0536  0.0963
 3191W        W22045   9.120  16.759  15.991 -0.2104 -0.0812 -0.1864
 3192W        W22046   1.401   2.129   3.631  0.0184 -0.0941  0.1732
 3193W        W22047  17.452   0.701   1.785  0.1854  0.1913  0.0355
 3194W        W22048  17.096  12.474  11.984 -0.2726 -0.2570 -0.0794
 3195W        W22049  10.608   9.420   1.132  0.1723  0.1833  0.0980
 3196W        W22050   7.194   1.473  14.124 -0.1410 -0.1210 -0.2395
 3197W        W22051  12.524   4.815  14.808 -0.1632 -0.0274 -0.0313
 3198W        W22052  16.731   5.002   1.402 -0.2676 -0.2261  0.0558
 3199W        W22053  16.417   2.907  13.366 -0.2089 -0.0262 -0.0955
 3200W        W22054   8.198   1.763   3.056 -0.1105  0.0852 -0.3040
 3201W        W22055   8.765  16.111   2.556 -0.0793 -0.0764  0.1848
 3202W        W22056  18.033   3.953   3.946 -0.1650 -0.1216 -0.3700
 3203W        W22057   5.490   7.935  14.022  0.0306 -0.0222  0.1543
 3204W        W22058   8.094   8.976   3.365  0.0736 -0.1972  0.1400
 3205W        W22059  15.683   8.294  12.933 -0.2233  0.0984 -0.0251
 3206W        W22060  12.523   9.135  15.066 -0.0024 -0.4225  0.2689
 3207W        W22061  10.930   9.364  14.457  0.1556  0.0580  0.0931
 3208W        W22062   0.549  15.059  12.965 -0.0436  0.0673 -0.2412
 3209W        W22063   4.631   6.350   2.886 -0.1342  0.1263  0.1071
 3210W        W22064   0.381   1.814   0.676  0.0458  0.3000  0.1320
 3211W        W22065  13.781   2.189  12.831  0.1186 -0.0258  0.0860
 3212W        W22066   6.066  12.471  14.109 -0.0189  0.1857 -0.1647
 3213W        W22067   7.586  16.082  12.224 -0.4339 -0.0814 -0.0695
 3214W        W22068   0.007  16.692  14.887  0.0757  0.1530  0.3198
 3215W        W22069  16.471   4.477  15.946  0.0066 -0.0122 -0.1086
 3216W        W22070   1.837   7.438   1.532  0.1339  0.3490 -0.1805
 3217W        W22071   4.332   0.448   3.462 -0.0036 -0.1584  0.0488
 3218W        W22072  16.916  17.314  15.357  0.0159  0.3193  0.0025
 3219W        W22073  15.268   0.514  13.685 -0.0023 -0.1650  0.0914
 3220W        W22074  13.799  10.513  15.179 -0.1169  0.2439 -0.2199
 3221W        W22075   3.368   2.592   0.245 -0.0313 -0.2637  0.0484
 3222W        W22076   2.388  13.866   0.873 -0.2442 -0.2210  0.1340
 3223W        W22077  15.796   9.101  15.878  0.1294  0.0111  0.0096
 3224W        W22078  17.667   0.870   1.284 -0.0473 -0.2418  0.2305
 3225W        W22079  11.003   9.986  16.030 -0.2513  0.2743 -0.0463
 3226W        W22080   7.090  13.317   1.724 -0.0760  0.0936 -0.2299
 3227W        W22081  16.875   2.817   3.312  0.1173 -0.0086  0.1626
 3228W        W22082  11.460   0.853   3.128 -0.0187  0.0525  0.4508
 3229W        W22083   6.143  12.632  15.610 -0.3263  0.0885 -0.3683
 3230W        W22084   0.257   8.004   4.402 -0.0324  0.1355  0.0898
 3231W        W22085   5.440   4.509   3.383  0.1043 -0.0493  0.0057
 3232W        W22086  11.345  14.512  15.675 -0.2151 -0.0039  0.1639
 3233W        W22087  11.850  12.469   4.268 -0.0183  0.0145 -0.1081
 3234W        W22088   0.821   6.670  11.164 -0.1458 -0.1071 -0.3313
 3235W        W22089   8.949   1.867   0.180  0.0527  0.1429  0.1214
 3236W        W22090   3.511   8.882  12.133  0.2558  0.0759 -0.1407
 3237W        W22091   5.096  12.945  11.859 -0.2447 -0.2310  0.1254
 3238W        W22092   0.338   6.245   0.445  0.3431 -0.3546 -0.2003
 3239W        W22093  13.939  14.214   1.812 -0.0817 -0.1542  0.0144
 3240W        W22094   3.686   0.913  15.339 -0.0129 -0.0861  0.1099
 3241W        W22095  16.008   5.734   0.283 -0.0730  0.0118  0.2337
 3242W        W22096   0.455  10.792   2.276 -0.4519  0.4330  0.1313
 3243W        W22097  14.449  15.062  16.155 -0.0097  0.0515 -0.3873
 3244W        W22098  13.249   7.861  14.472  0.0927  0.1611 -0.0871
 3245W        W22099  10.846   1.445   4.450  0.1968 -0.0663  0.2024
 3246W        W22100   2.525   6.572  15.809  0.2434  0.1416 -0.1229
 3247W        W22101  14.157  14.360   2.346  0.0113 -0.3056  0.0315
 3248W        W22102  10.344   9.033   1.065 -0.1458  0.2035 -0.3142
 3249W        W22103  15.184   2.421  10.379 -0.0082 -0.2808 -0.1790
 3250W        W22104  12.015   4.378   1.344 -0.1193  0.0207  0.3133
 3251W        W22105  12.258  16.466   0.160 -0.0019  0.0719 -0.0732
 3252W        W22106  14.610  11.987   3.298 -0.0850 -0.3353 -0.0551
 3253W        W22107  11.738  12.114  15.699 -0.1283 -0.2002  0.2181
 3254W        W22108  12.184   3.950  11.561 -0.2721 -0.0422  0.0850
 3255W        W22109   8.860  14.204  14.898  0.0426 -0.0299  0.0661
 3256W        W22110   6.223   2.517   1.323  0.1429 -0.2096 -0.0715
 3257W        W22111   2.814   8.533   4.636  0.2765 -0.4580 -0.1840
 3258W        W22112  11.862   2.862  11.548 -0.1418 -0.3006 -0.0609
 3259W        W22113   3.675  14.130   5.539 -0.0086 -0.1476 -0.0452
 3260W        W22114   2.459   5.917  14.553  0.0602 -0.0429 -0.0866
 3261W        W22115  16.572   1.617  12.144 -0.1922  0.0246  0.3022
 3262W        W22116   9.846   7.672   3.967 -0.0994  0.1265  0.3438
 3263W        W22117  17.467  16.842  12.883 -0.0371 -0.0281  0.2819
 3264W        W22118   2.507   0.539  12.323 -0.1698  0.1588 -0.0701
 3265W        W22119   7.399  10.581  12.391 -0.0805 -0.2227 -0.2485
 3266W        W22120   9.226  15.735   1.728  0.3390  0.1732  0.2049
 3267W        W22121  16.242  12.293   1.656 -0.0277 -0.0740 -0.2278
 3268W        W22122   2.044   9.828   2.131  0.0853 -0.0521  0.3857
 3269W        W22123  15.411  13.552   0.708 -0.0921 -0.2019  0.0796
 3270W        W22124  14.108  14.492   5.912  0.0056 -0.1607  0.3561
 3271W        W22125  10.009  17.752   2.532 -0.4362  0.0021  0.4847
 3272W        W22126   3.567  10.486   2.732  0.1836 -0.2090  0.1857
 3273W        W22127   1.824   4.289  12.969  0.2591 -0.0815  0.1956
 3274W        W22128   5.221  14.931  13.990 -0.1041 -0.5073 -0.0560
 3275W        W22129   9.882   0.375   1.610 -0.0144 -0.0675 -0.0022
 3276W        W22130   6.146   3.763   5.076 -0.2091  0.0814  0.0068
 3277W        W22131   8.959  17.972  12.963  0.1372 -0.0480 -0.3832
 3278W        W22132  16.286  14.863   0.384  0.4728 -0.0649 -0.0385
 3279W        W22133   0.413  11.345  13.649  0.2129  0.0188  0.1096
 3280W        W22134   0.482   5.797  14.284 -0.1289 -0.1508 -0.0198
 3281W        W22135  15.690   8.457  13.935  0.0650 -0.0927 -0.0525
 3282W        W22136  14.889   4.039  15.170 -0.1340  0.2905  0.0903
 3283W        W22137   6.097  11.795  14.929  0.2309  0.1937 -0.2772
 3284W        W22138  13.325   6.397  13.298 -0.0411 -0.0180  0.0572
 3285W        W22139   9.292  11.420   3.357  0.1904  0.0541  0.1732
 3286W        W22140  11.027  10.278   3.317  0.0615  0.2727  0.0808
 3287W        W22141  16.902  11.978   4.092  0.1002  0.0369 -0.2676
 3288W        W22142   3.523   0.288  12.067  0.0282 -0.0438 -0.2170
 3289W        W22143  17.936   2.446  13.167 -0.1148 -0.2872 -0.0044
 3290W        W22144  10.747  13.090   4.790 -0.1690 -0.1527 -0.0665
 3291W        W22145   9.636   8.556   3.808 -0.0263 -0.0352  0.3836
 3292W        W22146  16.501  10.005  13.096  0.1053  0.0402  0.0974
 3293W        W22147   7.626   8.082   4.560 -0.1032 -0.1659  0.2099
 3294W        W22148  11.070   6.933   4.562 -0.0571  0.1965 -0.2369
 3295W        W22149  13.235   9.837  14.492  0.1118  0.2493  0.1731
 3296W        W22150  11.955  13.049  11.492  0.1663  0.3218  0.2567
 3297W        W22151   5.962   5.567   2.958  0.4215  0.1574  0.2366
 3298W        W22152  16.670   1.471   3.770 -0.0697  0.2349 -0.2500
 3299W        W22153  12.870   6.184   0.263  0.0354 -0.0965  0.0143
 3300W        W22154   2.879   0.963   1.247 -0.0352 -0.0761 -0.1942
 3301W        W22155   2.562   4.444   4.461 -0.0330 -0.0850 -0.0105
 3302W        W22156   3.491   3.078   3.340 -0.1129  0.0751 -0.1042
 3303W        W22157  10.099   7.368   1.417  0.1824 -0.4968  0.2034
 3304W        W22158   5.201  14.140   0.803 -0.1782 -0.2851 -0.2534
 3305W        W22159  16.371  11.705   4.626 -0.0672  0.0495  0.2233
 3306W        W22160   1.744  16.985   0.610  0.0383 -0.1740 -0.1309
 3307W        W22161  10.268  13.723   2.142  0.0747 -0.0007  0.0542
 3308W        W22162  15.018   6.121   3.385  0.0858  0.4200 -0.1798
 3309W        W22163   6.914  14.667  13.448  0.0112  0.2839 -0.0059
 3310W        W22164  13.711   1.498  15.389  0.2035 -0.2335  0.2937
 3311W        W22165   6.405   2.208  13.877  0.4733  0.2658 -0.3451
 3312W        W22166   6.610  12.443   4.165  0.0864  0.0814 -0.1213
 3313W        W22167   9.644   8.947   1.953 -0.1030 -0.0249 -0.0979
 3314W        W22168  17.177   0.488  13.646 -0.1857  0.0285 -0.4036
 3315W        W22169   7.839   5.554  15.169  0.0115  0.1162  0.0599
 3316W        W22170  13.825   2.992  16.068 -0.0357  0.2246  0.1320
 3317W        W22171  12.924  10.642  14.655  0.0543  0.3138  0.1015
 3318W        W22172  16.272   4.632   3.016  0.0996  0.0180  0.2005
 3319W        W22173  14.340   3.617  13.072 -0.0533 -0.1179 -0.3384
 3320W        W22174   7.925   8.866   1.999 -0.0363 -0.0304 -0.0833
 3321W        W22175   2.969  12.074   2.908  0.3695 -0.0109  0.0810
 3322W        W22176   5.614  15.529  14.662 -0.0861  0.0006 -0.1325
 3323W        W22177   2.977   4.755   1.664 -0.0063  0.0080 -0.0615
 3324W        W22178   1.252  13.216   1.726 -0.1022 -0.0586  0.2359
 3325W        W22179  11.451   9.721  12.207 -0.1532  0.1845  0.0862
 3326W        W22180   9.097  11.002   2.055 -0.0514  0.0471 -0.5172
 3327W        W22181   1.535  17.706  12.886  0.4479 -0.0063  0.0129
 3328W        W22182  12.401  13.701  12.060  0.0919 -0.0972  0.0380
 3329W        W22183  11.877  15.254   2.652  0.1435 -0.0765 -0.2820
 3330W        W22184  15.076  12.560  15.884  0.1981 -0.3444 -0.1816
 3331W        W22185  14.965   8.238  15.488 -0.2422 -0.1012  0.2348
 3332W        W22186  15.230   1.388  12.409 -0.1786 -0.1367 -0.0334
 3333W        W22187   7.164  14.279   4.884  0.1774  0.0868 -0.0012
 3334W        W22188   6.938   8.664   2.913  0.1455  0.0213 -0.1755
 3335W        W22189   6.582  15.191  15.691 -0.1327  0.1900  0.2711
 3336W        W22190   4.412  11.154   2.114  0.2746  0.0370 -0.0211
 3337W        W22191  13.612   9.325  15.831  0.0820  0.1246  0.0948
 3338W        W22192   7.591  17.253   5.132 -0.1291 -0.0281 -0.1521
 3339W        W22193   9.952  17.759  11.788  0.2117 -0.2955  0.2124
 3340W        W22194   8.430  12.372  12.465 -0.1746 -0.2039 -0.1395
 3341W        W22195  12.901   2.404   2.649 -0.0107  0.3265  0.0433
 3342W        W22196  13.111  14.885   4.993 -0.0013  0.0159  0.0609
 3343W        W22197   2.027  10.176   0.879  0.0950  0.1419 -0.3239
 3344W        W22198  14.172   6.663   3.934 -0.4145  0.2632  0.3424
 3345W        W22199   8.470   5.475   0.094  0.0635  0.0224  0.2818
 3346W        W22200  16.366   6.557   3.274 -0.0364 -0.0106 -0.3016
 3347W        W22201   1.343  12.445  13.681 -0.0107  0.1004 -0.0501
 3348W        W22202   5.774   3.598  12.307  0.0274 -0.0493 -0.1072
 3349W        W22203   8.902   4.442  15.737 -0.3100 -0.3538  0.1861
 3350W        W22204   2.179   8.627   3.328 -0.0829 -0.2451 -0.1063
 3351W        W22205  16.314   0.267  13.278  0.0303 -0.0131  0.2295
 3352W        W22206  15.817  11.559  12.416 -0.1226 -0.1310 -0.0969
 3353W        W22207   0.145   9.967   4.534  0.0217 -0.1516  0.0610
 3354W        W22208  10.338  11.388   4.615 -0.1658 -0.2021 -0.0748
 3355W        W22209   5.915  16.210   2.622 -0.0384  0.0948 -0.0663
 3356W        W22210   4.300  11.852  13.817 -0.0164 -0.3162  0.1653
 3357W        W22211  12.871   0.925   3.084 -0.1384  0.2989  0.1083
 3358W        W22212  17.865   2.626  14.518 -0.0748  0.0428 -0.0105
 3359W        W22213   1.377  14.431   3.724 -0.1145  0.2183  0.0212
 3360W        W22214  11.137  13.392  12.032  0.0436 -0.3011  0.0336
 3361W        W22215  17.068   8.166   1.540  0.0658 -0.1136 -0.0038
 3362W        W22216   7.680  16.679  14.051 -0.1193  0.0201 -0.0152
 3363W        W22217  13.135  10.771  10.533 -0.1244  0.0646  0.1382
 3364W        W22218   2.421  13.953   4.898  0.2303 -0.0010  0.2500
 3365W        W22219   4.423   3.385   5.831  0.3617  0.0437 -0.1302
 3366W        W22220  11.849   2.046   3.842 -0.0044  0.1633 -0.2892
 3367W        W22221  11.732   3.371  15.057 -0.0485  0.1035 -0.1738
 3368W        W22222  17.768   6.917  15.071  0.3698  0.0508  0.5387
 3369W        W22223   5.671   1.448  13.132 -0.2140  0.0117 -0.0758
 3370W        W22224   9.889   9.070  13.736 -0.0615  0.2356 -0.3019
 3371W        W22225   6.262  13.169  11.386 -0.1658 -0.3177  0.1914
 3372W        W22226   7.764  17.122  13.066  0.1938 -0.1110  0.1282
 3373W        W22227  17.410   5.642  12.270  0.0947  0.1752 -0.1602
 3374W        W22228   9.710   0.565  12.668 -0.2000  0.0384  0.0098
 3375W        W22229  17.945   3.868  15.263  0.2035  0.0004  0.1965
 3376W        W22230   8.048   0.290  13.296  0.1380  0.1153  0.0611
 3377W        W22231  10.749   8.579  12.959 -0.2018  0.0434  0.1050
 3378W        W22232   8.276   8.407   0.018 -0.0384 -0.3275 -0.0113
 3379W        W22233   9.014  16.809   1.488  0.2073 -0.0626 -0.1132
 3380W        W22234   2.843   9.295  15.642  0.2175  0.0900 -0.3433
 3381W        W22235   3.611   5.956  11.736 -0.2357 -0.0244 -0.1061
 3382W        W22236   0.356   3.669  13.691 -0.1478 -0.2198 -0.0973
 3383W        W22237   3.678  14.776  13.193 -0.1879  0.2661  0.1354
 3384W        W22238  10.832   4.883  12.063  0.0326  0.0928  0.0325
 3385W        W22239   8.639   3.716   0.387 -0.1347 -0.1940  0.0224
 3386W        W22240  13.975  13.671  13.192 -0.0498 -0.0157  0.0899
 3387W        W22241   1.092   8.324  15.813 -0.1566  0.0497  0.2518
 3388W        W22242   0.078  13.276   6.240  0.0718 -0.0545  0.0149
 3389W        W22243  14.751   7.631   0.345  0.0741  0.2857  0.0075
 3390W        W22244  14.330  12.703  13.047  0.1986  0.1098 -0.2586
 3391W        W22245   1.655  11.506  13.698  0.2216  0.0214  0.1489
 3392W        W22246   5.539   8.351  15.144  0.3022 -0.0892  0.2446
 3393W        W22247   7.907  14.197  11.661  0.0366 -0.2328  0.0510
 3394W        W22248   7.349   4.311   2.440 -0.0070 -0.2191 -0.3083
 3395W        W22249  12.554   7.099  12.581 -0.3719 -0.0505 -0.0270
 3396W        W22250   7.376   5.399   0.466 -0.0178  0.2022  0.1949
 3397W        W22251   5.377  11.416  13.179 -0.5593 -0.0795  0.1561
 3398W        W22252   4.768   9.418   1.492 -0.0207 -0.4263  0.0665
 3399W        W22253  11.394  11.821   0.319  0.0602  0.2496  0.0211
 3400W        W22254   7.585   9.373   4.912  0.1571  0.1991 -0.1797
 3401W        W22255   4.120   8.962  13.820  0.0852  0.1876  0.0335
 3402W        W22256   5.031   7.322   3.478 -0.1790 -0.0864  0.0882
 3403W        W22257   0.732  17.999  12.925 -0.1491  0.1630 -0.2125
 3404W        W22258  10.507   2.170  12.047  0.2359  0.0458  0.3179
 3405W        W22259   9.625   7.067  12.658  0.0892 -0.2224  0.0424
 3406W        W22260  14.383  11.182   0.609 -0.3184  0.0450 -0.2474
 3407W        W22261  11.901   7.185   1.748  0.0124 -0.0009 -0.0022
 3408W        W22262   4.144  15.600  12.516 -0.2575  0.1172 -0.0703
 3409W        W22263   0.834   4.523  12.190 -0.0834  0.2996 -0.0560
 3410W        W22264   9.688   8.405   4.729 -0.0331 -0.2464 -0.2374
 3411W        W22265   4.589   9.511  10.367  0.0283  0.5039  0.1289
 3412W        W22266  16.990   8.109  12.191 -0.3281  0.2562 -0.2774
 3413W        W22267   4.845  10.453  12.066  0.2646 -0.0661  0.2339
 3414W        W22268   5.704   8.034   3.832  0.1110 -0.0884  0.0756
 3415W        W22269  12.046   1.418  15.137  0.1058 -0.1635  0.1310
 3416W        W22270   4.018   8.425   5.459  0.1258  0.1047  0.0545
 3417W        W22271  10.230  15.848   0.300  0.2278  0.1501 -0.1041
 3418W        W22272   7.735   6.415  15.092  0.1070 -0.0748  0.3730
 3419W        W22273  16.985   5.178  10.909  0.1864  0.4791 -0.0086
 3420W        W22274  15.485   8.314  11.943  0.0718 -0.1522 -0.0588
 3421W        W22275  14.856   2.518  11.800 -0.1930  0.0079  0.0251
 3422W        W22276   1.979  15.744  12.206 -0.2353  0.0678 -0.0188
 3423W        W22277   1.386   8.762  11.531 -0.1978 -0.2158  0.0067
 3424W        W22278  16.621   1.092  14.286 -0.2959  0.0897  0.0976
 3425W        W22279   9.517   1.604   1.279 -0.0816  0.0698 -0.1245
 3426W        W22280   2.122   4.771   4.411 -0.4065 -0.1191 -0.0175
 3427W        W22281  10.148  15.539   2.167  0.1380  0.2763  0.0968
 3428W        W22282   0.877  18.003   0.101 -0.0144  0.1798 -0.4750
 3429W        W22283   9.693  12.056   5.622  0.1075 -0.0017 -0.2419
 3430W        W22284   5.743   3.019   2.705  0.0977  0.1323  0.0572
 3431W        W22285   6.440   1.375  15.844 -0.0700  0.1429  0.0047
 3432W        W22286   3.194   8.494  10.423 -0.0367 -0.0698 -0.1717
 3433W        W22287   7.798   1.553  15.551  0.0328 -0.2294 -0.3085
 3434W        W22288  12.542   2.654   2.365 -0.1924 -0.1383 -0.1445
 3435W        W22289  12.830  14.542   1.263  0.0560  0.4977 -0.3072
 3436W        W22290   4.776   2.680  14.659 -0.1300 -0.1148  0.1402
 3437W        W22291   0.066  12.118  15.357  0.1283  0.2702  0.1494
 3438W        W22292  17.724   4.800  13.860 -0.2144 -0.0395 -0.3554
 3439W        W22293   8.796  11.628  13.896  0.0077  0.0892 -0.1813
 3440W        W22294   3.282  13.036   4.917 -0.2589  0.1120  0.3390
 3441W        W22295  10.913   6.706  11.576 -0.1865 -0.1152 -0.3023
 3442W        W22296   7.048   5.966   3.933  0.1655  0.0106 -0.0045
 3443W        W22297  14.896  11.148  12.336 -0.1386  0.1275 -0.1253
 3444W        W22298  13.241   9.680  13.085  0.1216  0.3436 -0.3266
 3445W        W22299   3.469   9.688   0.538 -0.3157  0.0841  0.1153
 3446W        W22300   5.168   3.558  15.504 -0.0022  0.2448  0.0053
 3447W        W22301  15.622   6.102   4.007 -0.1456  0.1485  0.0020
 3448W        W22302  14.922  14.662  15.036 -0.0854 -0.1774 -0.3239
 3449W        W22303   9.426   6.794   1.183 -0.0561  0.0161 -0.1522
 3450W        W22304  16.964   8.592  11.967 -0.0450  0.0418  0.3193
 3451W        W22305   2.973  15.708  12.263 -0.1955  0.1107 -0.2457
 3452W        W22306   7.902   5.920   1.065 -0.2734 -0.0653 -0.1615
 3453W        W22307   8.715   8.057  10.687  0.2176  0.0734 -0.0614
 3454W        W22308  13.385  13.192  14.272 -0.0514 -0.0455 -0.2805
 3455W        W22309   8.306   4.718  14.127  0.2501 -0.2577 -0.3001
 3456W        W22310   4.297   2.349   1.456  0.0820  0.1401 -0.0239
 3457W        W22311  10.019  17.410  11.426  0.0767 -0.0217  0.1550
 3458W        W22312   5.827  15.467  12.440  0.0750 -0.3165 -0.0416
 3459W        W22313   1.227  16.833   0.512  0.2995 -0.0807 -0.2119
 3460W        W22314   1.884  11.723   4.162 -0.0893  0.2312  0.3099
 3461W        W22315  11.540   7.665   4.030 -0.0407  0.0899  0.1580
 3462W        W22316   9.116  11.631  12.427  0.2745 -0.3188 -0.0441
 3463W        W22317   7.495   2.055  15.446 -0.2797  0.1270  0.3187
 3464W        W22318   0.829  15.986  15.870  0.3611 -0.0130  0.1352
 3465W        W22319  14.061   9.379  14.146 -0.1271 -0.0495 -0.0103
 3466W        W22320   9.130   3.505  13.749  0.0403  0.3516  0.1645
 3467W        W22321  14.323   8.963  15.501  0.0451 -0.0068 -0.0765
 3468W        W22322   5.747  12.829  12.063  0.0408  0.2170 -0.4341
 3469W        W22323  11.172   9.343   1.017  0.0335  0.2501 -0.2928
 3470W        W22324   9.990   2.553  15.103  0.1943  0.1705 -0.0439
 3471W        W22325   4.481   7.331  14.307  0.1546 -0.3249  0.3291
 3472W        W22326  10.365   4.930  12.245 -0.2206  0.0247 -0.2026
 3473W        W22327  12.399   1.456   2.034  0.1017  0.1314  0.1123
 3474W        W22328   9.931   9.815  11.903  0.0568 -0.3293 -0.1302
 3475W        W22329  14.029   1.968  15.889  0.0100  0.0136  0.0674
 3476W        W22330  16.138   8.348   0.714  0.0487 -0.1045  0.1415
 3477W        W22331   4.729  15.689   3.621 -0.0003 -0.1289  0.1656
 3478W        W22332  13.251   7.911  11.490  0.0312  0.1361  0.0008
 3479W        W22333  13.490   4.028  16.049 -0.1897 -0.0630 -0.1865
 3480W        W22334   0.840   9.148   3.823  0.0458  0.2803 -0.1488
 3481W        W22335   0.349   3.805  10.742  0.0640 -0.2472  0.0194
 3482W        W22336  13.649   5.552  16.033  0.1588 -0.0254  0.2458
 3483W        W22337  14.778   5.286  14.690  0.2936 -0.2345  0.0577
 3484W        W22338   1.499   3.036  15.334  0.0387 -0.1114  0.0767
 3485W        W22339   4.499   4.389  15.565  0.3369 -0.0543 -0.0356
 3486W        W22340   4.793   4.763  14.978 -0.3009  0.1577  0.0187
 3487W        W22341   5.815  10.190  12.466  0.0600 -0.0651  0.0806
 3488W        W22342  17.617   1.373  15.383 -0.0520 -0.1039 -0.2065
 3489W        W22343  14.584   9.310  11.769 -0.1185 -0.0079  0.1622
 3490W        W22344  17.863  13.968   1.549  0.2313  0.0790  0.2533
 3491W        W22345   0.228   1.522  12.226  0.1414  0.3024 -0.1148
 3492W        W22346   6.556   6.957   0.042 -0.1782 -0.4649  0.4179
 3493W        W22347  13.285   5.549  10.598 -0.0357  0.0047 -0.1963
 3494W        W22348   3.278  10.341  13.674  0.2848  0.1216 -0.5039
 3495W        W22349   4.161   7.344   0.998  0.1288  0.0400  0.2161
 3496W        W22350   0.767  14.175   2.325  0.0047 -0.4532  0.2276
 3497W        W22351   9.751  17.131  14.191 -0.1438  0.3099 -0.1090
 3498W        W22352   4.922   1.488   3.558  0.1408  0.0150  0.0011
 3499W        W22353  14.698   4.569   2.216 -0.0854  0.1972  0.2232
 3500W        W22354  13.888   4.665   3.080 -0.1415  0.0192  0.0680
 3501W        W22355  17.685  14.019   4.570 -0.2396 -0.1558 -0.2606
 3502W        W22356   5.987  10.479  13.919 -0.0130  0.1961  0.0246
 3503W        W22357  12.297  16.922  16.172  0.1739 -0.3699  0.1599
 3504W        W22358   3.498   4.138   3.117 -0.1774  0.0066 -0.0953
 3505W        W22359  17.740   9.067  12.424 -0.4056  0.1331 -0.0739
 3506W        W22360  15.823  13.145  12.476  0.0981  0.2741 -0.1497
 3507W        W22361   5.210   5.159  13.140  0.2089 -0.0117  0.1371
 3508W        W22362  17.281  13.321  12.598  0.0222 -0.2274  0.1418
 3509W        W22363  12.295  11.381  12.390 -0.1851 -0.0391 -0.1120
 3510W        W22364  17.352  14.194  14.085  0.0906 -0.1353  0.0648
 3511W        W22365   7.553   1.767   6.377 -0.0155 -0.0380  0.2189
 3512W        W22366  10.526   1.530  13.774 -0.2243  0.0205  0.1713
 3513W        W22367  11.476   0.944   5.528 -0.2998 -0.2260  0.1903
 3514W        W22368   1.223  13.482   4.072 -0.1931 -0.1937 -0.1298
 3515W        W22369  11.654   6.303   2.316 -0.0167  0.0043  0.1861
 3516W        W22370   9.877   5.269   2.221  0.1513 -0.3758  0.2565
 3517W        W22371  13.794   9.076  13.749 -0.0603  0.1064  0.1633
 3518W        W22372  14.937  13.363   2.145  0.0193  0.4202 -0.2014
 3519W        W22373  16.246  11.306  12.287  0.2122 -0.2622 -0.1923
 3520W        W22374   0.534   6.884   3.847  0.0057 -0.0739 -0.0537
 3521W        W22375   2.575  13.348  15.616  0.5330 -0.1428 -0.0540
 3522W        W22376   6.022  12.770  14.511 -0.0876 -0.0462  0.1534
 3523W        W22377   0.301  14.952   1.709  0.0027  0.0158  0.1046
 3524W        W22378  15.813  11.257   2.487 -0.0524 -0.2351 -0.6261
 3525W        W22379   1.584  10.564   4.139 -0.0403 -0.2261  0.3013
 3526W        W22380   2.828   9.143   2.994  0.0562 -0.0250  0.2637
 3527W        W22381   6.737  13.594   4.189 -0.3394 -0.1796  0.0156
 3528W        W22382  12.088   8.234   3.440  0.0875 -0.0296  0.0522
 3529W        W22383   5.790   6.910   3.049 -0.0182  0.0056  0.0169
 3530W        W22384   0.209  10.528   4.595 -0.0971 -0.0394  0.0375
 3531W        W22385   1.473   8.814  10.451 -0.1047  0.2640  0.1496
 3532W        W22386   4.742   3.194  15.682  0.0788  0.0983  0.1672
 3533W        W22387   6.557  12.081   5.601 -0.1896 -0.0035 -0.1683
 3534W        W22388   1.941   5.152  15.671 -0.0789  0.0083 -0.3166
 3535W        W22389   2.303   7.220   2.381 -0.2584  0.0244  0.1892
 3536W        W22390  10.843  17.130   1.714 -0.1769  0.1600  0.1621
 3537W        W22391   0.937   3.109  15.261  0.2664 -0.1179  0.3160
 3538W        W22392   1.691   3.906  13.260  0.2748 -0.0245  0.0220
 3539W        W22393  14.567  11.294  11.416 -0.0808  0.0848 -0.1662
 3540W        W22394   0.558   6.894   2.225 -0.2824 -0.2171  0.1939
 3541W        W22395   0.400   6.832  11.488  0.2063 -0.1671 -0.2143
 3542W        W22396   3.433  15.713   5.631  0.0290 -0.2962  0.2197
 3543W        W22397   1.737   5.988  15.606  0.0052  0.0040 -0.0601
 3544W        W22398  11.052  17.727   0.726 -0.0123  0.0396 -0.1344
 3545W        W22399   3.658   5.932   2.004 -0.0300  0.1920 -0.1745
 3546W        W22400   3.264  14.029   5.156 -0.0553  0.2134 -0.2742
 3547W        W22401  15.271  15.925   1.555  0.3694 -0.2814  0.0853
 3548W        W22402   6.458  13.135   0.038  0.0485 -0.1013  0.2618
 3549W        W22403   1.846   8.191   0.086  0.2795  0.1638  0.2738
 3550W        W22404  17.650   2.073   1.135 -0.2416 -0.1651 -0.1165
 3551W        W22405  12.591  14.933  14.178 -0.1449  0.0802 -0.1764
 3552W        W22406   7.520  15.596  14.231 -0.0035 -0.0762 -0.0566
 3553W        W22407   9.494   9.248   4.892 -0.0438  0.0937 -0.0912
 3554W        W22408  13.506  13.061  15.887 -0.0709  0.3214 -0.1047
 3555W        W22409  13.878  16.977  13.606 -0.3148  0.2789 -0.2756
 3556W        W22410  14.745   2.637   1.507  0.1693  0.1957  0.3374
 3557W        W22411   1.400   8.795   5.591  0.2493 -0.4242 -0.2552
 3558W        W22412   7.423   4.461   1.559 -0.0582 -0.1284 -0.1968
 3559W        W22413  12.770  17.169  13.582 -0.0175  0.3367 -0.4124
 3560W        W22414  13.913  16.979  13.009  0.1474  0.1562  0.2447
 3561W        W22415   4.299   9.771   5.321  0.2210 -0.0861 -0.0936
 3562W        W22416   7.071  11.671  15.178  0.2128 -0.0817  0.2423
 3563W        W22417   3.108   1.576   4.474 -0.0689  0.3983 -0.2359
 3564W        W22418   1.745   3.250  14.875  0.0949  0.0644 -0.0935
 3565W        W22419   4.642  10.603   4.214 -0.2910 -0.1036 -0.1903
 3566W        W22420   9.569   8.628  15.011  0.2605  0.1776  0.1751
 3567W        W22421   9.579   0.215  11.610  0.2143 -0.1530  0.0294
 3568W        W22422   5.360   1.134   5.370 -0.3584 -0.0880  0.2800
 3569W        W22423   0.447  13.120   2.777  0.0343  0.0311  0.2141
 3570W        W22424  13.454  15.893  15.627 -0.1090  0.2189  0.0403
 3571W        W22425   3.918  10.378  11.192  0.2325  0.0797  0.0948
 3572W        W22426  16.387  12.805   3.013  0.2379 -0.4824 -0.0291
 3573W        W22427  16.749   5.309   2.756  0.1053  0.1105 -0.0612
 3574W        W22428  15.438  12.587   1.143  0.1523 -0.0171  0.0189
 3575W        W22429   1.892  17.000  14.930 -0.1061  0.1079 -0.2470
 3576W        W22430   6.266  12.939   4.905  0.1562 -0.0268 -0.3565
 3577W        W22431  17.398  12.952  15.932  0.1931 -0.0635  0.1717
 3578W        W22432   6.373   4.987  16.146  0.1633  0.0391 -0.1710
 3579W        W22433  16.280   4.403   0.328 -0.1271  0.0521  0.1163
 3580W        W22434  12.163  13.322  13.011 -0.0398  0.4639  0.1643
 3581W        W22435   1.967   1.163  15.506  0.1221 -0.0240 -0.2031
 3582W        W22436  10.990   2.963   1.651 -0.0040  0.3301 -0.0028
 3583W        W22437  10.431  13.792   4.437 -0.0956  0.2741  0.1498
 3584W        W22438  14.176   8.390  11.437  0.1447 -0.4449  0.0580
 3585W        W22439   9.109  17.941  14.040 -0.0378  0.0629 -0.0981
 3586W        W22440   1.312  10.796   2.742 -0.0890 -0.0898  0.2852
 3587W        W22441   2.898   7.342   4.117 -0.2060 -0.2187  0.3674
 3588W        W22442  15.240   0.347  12.544  0.1107  0.1432  0.0615
 3589W        W22443  10.322  10.174   2.659  0.2735  0.2042 -0.0050
 3590W        W22444   4.030   7.641  15.037  0.0078  0.1786 -0.1326
 3591W        W22445  16.926  17.094  12.181  0.0222 -0.1132 -0.0747
 3592W        W22446   6.915  17.155  13.623 -0.0397  0.1173  0.0921
 3593W        W22447  17.873  14.409   5.249  0.3323  0.0714 -0.1661
 3594W        W22448   3.758   9.627  12.293 -0.1937  0.3159 -0.0846
 3595W        W22449  17.300   7.706   2.147 -0.1083  0.0503  0.2123
 3596W        W22450   8.862   5.390   4.301 -0.3595 -0.0316  0.1197
 3597W        W22451  14.895   5.234  12.271  0.0772  0.1241  0.2477
 3598W        W22452  17.108   6.889  12.211  0.1420 -0.0077  0.1468
 3599W        W22453  12.391  10.531  12.320 -0.1167  0.0400 -0.2066
 3600W        W22454  14.534   8.878   0.297  0.4022  0.1834  0.3893
 3601W        W22455   9.581   2.425  11.757 -0.0794  0.0622  0.0460
 3602W        W22456   8.354  14.061  12.248  0.0709  0.0197  0.1519
 3603W        W22457   8.467   5.067  13.746 -0.2337 -0.0453  0.3217
 3604W        W22458   7.536   2.312  14.010  0.2391 -0.1063 -0.1797
 3605W        W22459  13.213   8.608   1.455 -0.0557 -0.3278  0.0154
 3606W        W22460   4.886   6.536  14.451  0.1638 -0.0396 -0.2164
 3607W        W22461  10.610   8.273  15.635  0.5594  0.0084 -0.1154
 3608W        W22462  17.136  10.778   2.165  0.0704 -0.2122  0.1994
 3609W        W22463   1.108  13.621   1.279 -0.1940 -0.0955 -0.0838
 3610W        W22464  16.873  11.118  15.418 -0.2855  0.0865 -0.2884
 3611W        W22465   4.384  12.024   1.611 -0.0835  0.0922  0.0067
 3612W        W22466   1.917   5.436   0.941 -0.0881  0.2013 -0.1792
 3613W        W22467  15.502  17.910   2.107 -0.2029 -0.1809 -0.2288
 3614W        W22468   0.664  15.744  14.489 -0.0195  0.4587  0.1035
 3615W        W22469  14.174  16.597  12.763  0.0915 -0.2284 -0.1415
 3616W        W22470  15.057   7.612  14.778  0.0361  0.0356  0.1984
 3617W        W22471  12.894   7.896   3.771  0.0135  0.0409 -0.2067
 3618W        W22472   7.399   7.371   3.363 -0.0182 -0.0730  0.3999
 3619W        W22473  17.866   7.862  13.710  0.3537  0.2380 -0.1370
 3620W        W22474   1.344   1.233   1.814  0.2752 -0.3603  0.2361
 3621W        W22475   8.267  15.695  12.432 -0.2772  0.1482 -0.2343
 3622W        W22476   2.792   5.948  14.099 -0.1829 -0.1335  0.0348
 3623W        W22477   7.656   0.140   0.153  0.0097 -0.1377 -0.2376
 3624W        W22478   6.027   7.344  13.876  0.1982  0.2004  0.1171
 3625W        W22479  16.071   6.821  12.413 -0.3111  0.0086 -0.2043
 3626W        W22480   8.765  14.098  12.503  0.1357  0.3836 -0.0203
 3627W        W22481   3.711  14.462  12.705 -0.1665 -0.1294  0.1418
 3628W        W22482  10.242   7.886   4.451 -0.1414  0.0460  0.0514
 3629W        W22483  15.329   0.839  14.924 -0.0520 -0.2853  0.0745
 3630W        W22484  17.511   6.117  12.917 -0.3005 -0.1434  0.4154
 3631W        W22485  14.746   6.009  15.176  0.1796 -0.0120  0.1372
 3632W        W22486  16.448   9.927   0.704  0.4586 -0.1100 -0.1514
 3633W        W22487  10.420   8.897   0.059 -0.1930 -0.1256  0.0170
 3634W        W22488   8.925  12.106   0.926 -0.1257  0.1936  0.1549
 3635W        W22489   3.287   3.825   2.656  0.2707 -0.0198  0.0284
 3636W        W22490   1.168  13.918  11.750 -0.1111  0.1367  0.0592
 3637W        W22491  14.588   8.959   3.120  0.0904  0.1154  0.0067
 3638W        W22492  16.065   5.708  12.044 -0.0328 -0.1541  0.4778
 3639W        W22493   5.447   3.395   3.541 -0.0831 -0.0480 -0.2210
 3640W        W22494  16.689  14.384   1.088  0.2150  0.2849  0.0742
 3641W        W22495   5.309  15.769  15.394  0.1141  0.0881 -0.0109
 3642W        W22496  12.460  13.376   2.750 -0.1556 -0.0394 -0.2750
 3643W        W22497  11.228   1.918  11.395 -0.2613  0.0409  0.0280
 3644W        W22498  10.636   3.010   0.600 -0.4543  0.1241 -0.0599
 3645W        W22499  17.460   9.756   4.369 -0.2320  0.2571  0.0272
 3646W        W22500   1.264   7.016  11.901  0.0700 -0.1826 -0.3616
 3647W        W22501  15.611  13.045   3.594 -0.1587 -0.0518  0.3697
 3648W        W22502   2.534   2.168  14.346  0.0154  0.3366 -0.0141
 3649W        W22503   9.905   7.499  11.920 -0.1300 -0.1547 -0.0983
 3650W        W22504  10.075   4.974   0.198 -0.2305 -0.1799 -0.0051
 3651W        W22505  16.366   9.087  13.681 -0.1172 -0.0130  0.0861
 3652W        W22506  14.565   4.542  10.970  0.2003 -0.0316 -0.1363
 3653W        W22507  15.602   1.434  13.204 -0.1019 -0.2180 -0.1137
 3654W        W22508   6.030   5.797   0.159 -0.0388 -0.0596  0.2937
 3655W        W22509   6.329   1.966   1.159 -0.1362 -0.2832  0.1898
 3656W        W22510  14.714  17.987  13.469  0.2332  0.0887  0.1826
 3657W        W22511  17.931   7.784  16.104  0.1416  0.2490  0.3299
 3658W        W22512   3.820   4.063   4.360  0.1548  0.0967  0.0571
 3659W        W22513   4.562  16.049  16.077 -0.3801  0.1485 -0.0035
 3660W        W22514   4.126  17.394   2.525 -0.1439  0.1598 -0.2397
 3661W        W22515   5.603  13.983   3.497  0.0610  0.1948  0.2674
 3662W        W22516  14.655  12.819   5.039  0.1667  0.2419  0.2785
 3663W        W22517   5.492   1.051  13.899  0.0921 -0.1701 -0.1862
 3664W        W22518  14.535   1.682  14.188 -0.3104 -0.1529 -0.0937
 3665W        W22519  13.143   4.671  13.306  0.0311  0.0562  0.0151
 3666W        W22520  12.178   1.991  12.960 -0.2841  0.0415  0.0366
 3667W        W22521   3.154  13.552   4.368 -0.0324 -0.0170  0.2870
 3668W        W22522  10.810   0.101  13.268  0.1371 -0.0971  0.0175
 3669W        W22523   3.530   2.508   2.179 -0.0052 -0.2456  0.1820
 3670W        W22524   7.782  10.179   5.905  0.0669  0.0720 -0.1674
 3671W        W22525   0.100   2.583  11.376  0.1903 -0.1532  0.0373
 3672W        W22526   8.701   5.856  14.405  0.1452 -0.2494 -0.1160
 3673W        W22527  16.111  12.993   0.878 -0.0701 -0.0333 -0.4235
 3674W        W22528   0.207   0.840  13.360 -0.2787 -0.0055 -0.1147
 3675W        W22529   0.771   3.637  11.563 -0.0580 -0.3511  0.0830
 3676W        W22530   7.653   3.663   3.054 -0.0205  0.2739  0.0071
 3677W        W22531  12.843  15.756   1.969 -0.0951 -0.0881 -0.1167
 3678W        W22532   7.532   7.423   2.863 -0.5182 -0.1943 -0.0009
 3679W        W22533  11.379   0.104   0.892  0.2660  0.0101  0.0952
 3680W        W22534  18.016   8.826   5.367  0.0097 -0.3368 -0.2176
 3681W        W22535  14.623   8.413   5.421 -0.2795 -0.1963  0.0290
 3682W        W22536  11.181   5.644   1.147 -0.3135 -0.0032  0.1441
 3683W        W22537  14.647  17.421  12.996 -0.1003 -0.0748 -0.1690
 3684W        W22538   3.501  16.128   2.005  0.2011  0.2795  0.1984
 3685W        W22539  16.296   6.751  15.221  0.0719  0.2281 -0.0784
 3686W        W22540  11.916  10.374  12.165 -0.0708 -0.4093 -0.0491
 3687W        W22541   6.333  15.783  14.044  0.0178 -0.1727 -0.1241
 3688W        W22542  14.534   1.979  13.348 -0.2892  0.0221  0.0652
 3689W        W22543  12.118   5.921  13.743 -0.0652 -0.0525  0.0744
 3690W        W22544  10.094   6.342   3.415 -0.2223  0.2110  0.1409
 3691W        W22545   5.778  16.169   1.261  0.3338 -0.1672  0.0272
 3692W        W22546  17.171   2.837   0.514 -0.0850  0.2718  0.0625
 3693W        W22547   9.558  11.177   4.004  0.0256  0.0967 -0.1179
 3694W        W22548  15.870   7.225   3.424 -0.0247  0.1335  0.0109
 3695W        W22549   1.791  17.998   0.403  0.0909 -0.0828  0.2454
 3696W        W22550  15.046   4.210   2.969  0.2619  0.0188  0.1435
 3697W        W22551  11.094  15.737   0.224  0.1072 -0.0976 -0.0982
 3698W        W22552  12.068  15.919   3.665  0.1549 -0.0419 -0.2126
 3699W        W22553   7.733   5.998  15.904  0.1633 -0.0430 -0.1385
 3700W        W22554   5.460   6.001   3.427 -0.0477  0.1978  0.3646
 3701W        W22555   2.949   9.837  15.654  0.2865  0.0744 -0.2418
 3702W        W22556   8.060  12.081  12.268 -0.1502  0.1075  0.3820
 3703W        W22557   8.608  14.708   1.967 -0.2706 -0.0961  0.2484
 3704W        W22558  15.603  17.123  13.854 -0.0805 -0.0331 -0.2168
 3705W        W22559   3.686  15.544  12.689  0.0124 -0.3133  0.1508
 3706W        W22560  12.388   2.065  11.405 -0.2592  0.0874 -0.0467
 3707W        W22561   0.243   1.620  11.737  0.3963  0.1234  0.3815
 3708W        W22562  13.619   2.556   0.236 -0.1931 -0.2609  0.1231
 3709W        W22563   5.642   8.675  11.072  0.0831 -0.1770 -0.1537
 3710W        W22564   5.732  13.029  12.949  0.0434  0.0656  0.1823
 3711W        W22565  16.661  11.823   4.987  0.1896  0.2375 -0.2168
 3712W        W22566   6.873   5.198  13.256  0.1071 -0.1306 -0.1003
 3713W        W22567   7.540  16.160  12.790 -0.0284 -0.1990  0.0104
 3714W        W22568   9.580  15.875   1.432 -0.0985 -0.1473 -0.2096
 3715W        W22569  15.884  12.041   3.081  0.0271 -0.0127 -0.1934
 3716W        W22570  13.095  10.123   3.643  0.0255  0.2965  0.0017
 3717W        W22571   1.684   6.865  13.957  0.0267  0.0946  0.3435
 3718W        W22572  10.566   1.262  12.999  0.0808  0.2232  0.0890
 3719W        W22573   9.674   8.872   3.089  0.2032  0.0738  0.1544
 3720W        W22574   0.375   0.947  14.917  0.0478  0.0160  0.1800
 3721W        W22575   0.938   7.032  12.309 -0.0823 -0.0634 -0.0003
 3722W        W22576  13.839  11.047   0.652  0.1194  0.3325 -0.0866
 3723W        W22577   0.381   1.396  14.705  0.1615  0.2073  0.1628
 3724W        W22578   4.322  15.653   0.489  0.0181  0.2390  0.2286
 3725W        W22579   1.808  17.734   1.359 -0.2005 -0.2627 -0.2335
 3726W        W22580   1.076  15.869   5.974 -0.2955 -0.2684  0.2660
 3727W        W22581   9.844   9.704   4.349 -0.1303  0.2211  0.2465
 3728W        W22582  14.158  15.309   0.230 -0.2129  0.0428  0.0542
 3729W        W22583   1.018  14.506  13.923  0.1888 -0.0251  0.3819
 3730W        W22584   4.074  13.549  10.364  0.3905 -0.3253  0.1648
 3731W        W22585  10.034   3.582  15.674 -0.2492 -0.1312  0.1860
 3732W        W22586  13.955   6.137  12.430 -0.0521 -0.2963  0.1180
 3733W        W22587   7.362   8.673   0.731  0.1787  0.2975  0.0312
 3734W        W22588  13.372  16.551  13.969  0.2824  0.1491  0.1750
 3735W        W22589   6.152   2.501   2.620  0.0398  0.0125  0.0808
 3736W        W22590  13.405  15.616  11.882  0.0420  0.0900  0.1854
 3737W        W22591   5.464   6.369  11.706 -0.1945  0.0313  0.1145
 3738W        W22592   0.457   8.187   0.753 -0.0508  0.0411  0.3212
 3739W        W22593   2.084  11.490   3.652  0.1669  0.2505  0.0028
 3740W        W22594  17.247   4.073  12.940 -0.2040 -0.0537 -0.0912
 3741W        W22595  15.791   4.034  15.687 -0.2844 -0.0896  0.0809
 3742W        W22596   6.382  15.305  16.123 -0.3190  0.1695 -0.0247
 3743W        W22597   4.745  17.944  12.204  0.0237 -0.0925  0.0795
 3744W        W22598   6.514   5.698  14.570  0.0291  0.0318 -0.0037
 3745W        W22599   9.630   0.117  14.025  0.0221  0.2074  0.0719
 3746W        W22600  10.715  15.000   0.746 -0.1863  0.2348  0.2916
 3747W        W22601  12.142  14.633   3.945 -0.0486  0.2990 -0.0782
 3748W        W22602   1.785   3.716  12.805 -0.0328  0.0159 -0.2016
 3749W        W22603  17.265  13.361   3.027 -0.3080  0.2428 -0.1760
 3750W        W22604   0.121   5.688   4.489 -0.1638  0.1735 -0.1161
 3751W        W22605   3.239  11.224  12.410 -0.0843 -0.3176 -0.0587
 3752W        W22606   8.860  15.390  15.656 -0.3815  0.2082  0.1806
 3753W        W22607  12.070   0.053  14.400 -0.1009 -0.2556  0.3665
 3754W        W22608   7.397   0.405  15.846  0.1898  0.1331  0.2357
 3755W        W22609   6.033   8.455  13.047 -0.2614  0.0313  0.0839
 3756W        W22610  14.885  16.860  12.653 -0.3289  0.0392 -0.3922
 3757W        W22611  14.877   7.311  13.871 -0.0936 -0.1568  0.0907
 3758W        W22612  17.712   9.623  10.628  0.1920  0.0076  0.2917
 3759W        W22613  12.643   4.461   4.558  0.1115 -0.1094  0.1072
 3760W        W22614  10.848   9.680   5.065 -0.0681  0.0818 -0.0254
 3761W        W22615   2.837   6.366  11.688 -0.0216 -0.0249 -0.1827
 3762W        W22616   0.053  17.520   1.860 -0.0076 -0.1747 -0.1603
 3763W        W22617  15.753   9.421  13.189 -0.1208  0.1068  0.0438
 3764W        W22618   1.607  12.834  13.789  0.2553  0.0700 -0.0462
 3765W        W22619  16.881  11.643   1.917 -0.1453  0.1032 -0.0533
 3766W        W22620   5.979  17.368   1.184  0.2777  0.0007 -0.1814
 3767W        W22621  13.226  10.456   1.384  0.1160 -0.0291 -0.1261
 3768W        W22622   0.258  11.304  10.412  0.0974  0.0971  0.0624
 3769W        W22623   9.382   1.287   3.579 -0.0755  0.2375 -0.2096
 3770W        W22624   0.275   6.669   0.181 -0.1039  0.0132 -0.2413
 3771W        W22625  10.841  12.401  13.457 -0.3899  0.1696 -0.0272
 3772W        W22626  17.915  13.450   1.509 -0.1069 -0.0984 -0.1666
 3773W        W22627  17.619   6.907  12.127  0.0862  0.0898 -0.4777
 3774W        W22628  17.265  17.487   3.555 -0.3904 -0.2359  0.1241
 3775W        W22629   5.656   5.552   4.326  0.1192 -0.2709 -0.0417
 3776W        W22630  13.036   6.264  12.479 -0.1041  0.2274  0.1076
 3777W        W22631  10.461  15.361  14.105 -0.2398 -0.4018 -0.1921
 3778W        W22632  11.664   2.635  12.032  0.3061 -0.1752  0.0500
 3779W        W22633  13.962   7.159  14.216  0.0315 -0.2204 -0.3359
 3780W        W22634   2.344   8.342   0.016 -0.2583  0.2286  0.2436
 3781W        W22635   0.055   7.823   3.678  0.6417 -0.2158 -0.1922
 3782W        W22636   8.953   0.475  13.324  0.0029  0.4372  0.1375
 3783W        W22637   3.107  12.087   2.064 -0.1895  0.0485  0.4990
 3784W        W22638  10.040   0.499   4.555 -0.0007  0.0963 -0.0022
 3785W        W22639   1.876   8.696  11.573  0.3008 -0.0231 -0.2463
 3786W        W22640   2.493   8.270  12.693 -0.1992  0.2089 -0.1060
 3787W        W22641   6.623  12.971  12.501  0.0716  0.1257  0.1246
 3788W        W22642   1.110  11.515   1.787 -0.1316 -0.0165 -0.0717
 3789W        W22643   1.155   2.722  13.000  0.0784 -0.0609  0.3252
 3790W        W22644  11.940   9.582   1.921  0.1375 -0.3628  0.1084
 3791W        W22645   9.698   9.785  15.013 -0.0458 -0.0568  0.0972
 3792W        W22646   5.647  12.832  11.579 -0.1935 -0.2668  0.1697
 3793W        W22647   2.034  10.658  14.241 -0.3395 -0.1245 -0.1517
 3794W        W22648  12.375   9.410   4.400 -0.0273  0.0778 -0.0344
 3795W        W22649  17.633   2.011  14.685  0.1205 -0.0687  0.0052
 3796W        W22650   6.943   2.705  15.443 -0.3220 -0.2883  0.2208
 3797W        W22651   2.040  15.166  15.499 -0.1141  0.1661 -0.0198
 3798W        W22652  10.556  14.907  15.923 -0.1053 -0.1496 -0.1437
 3799W        W22653   5.659   9.028   2.348 -0.1121 -0.0977  0.3397
 3800W        W22654  13.898  16.594  16.076  0.3178 -0.0603 -0.0363
 3801W        W22655   9.288   9.141   3.152  0.2458 -0.3241  0.0526
 3802W        W22656   4.306   1.340   4.811  0.3424  0.2992  0.1268
 3803W        W22657   6.710   8.544  10.234  0.0712 -0.0793 -0.1232
 3804W        W22658  12.571   4.589  14.372  0.1602 -0.4294 -0.0884
 3805W        W22659   7.115   4.256   4.230  0.0514  0.4184  0.1250
 3806W        W22660  14.681   0.193  12.035 -0.1509 -0.0846 -0.0034
 3807W        W22661   0.685  16.468  11.989  0.2954 -0.2785  0.1851
 3808W        W22662   4.406   2.405  14.419  0.1233 -0.0036 -0.1897
 3809W        W22663  10.033   7.180  12.958 -0.1308 -0.0950  0.1782
 3810W        W22664   9.699   8.409  13.065 -0.2768 -0.0392 -0.1525
 3811W        W22665  18.032   5.044   2.803 -0.0018  0.1529 -0.0499
 3812W        W22666  11.423  11.708  15.174 -0.0299  0.1467 -0.0596
 3813W        W22667  10.103   5.097  12.645 -0.5514 -0.0972  0.0971
 3814W        W22668  10.050   8.656   1.083  0.1771 -0.0312  0.1838
 3815W        W22669   0.279  16.685   5.209 -0.2656 -0.1721  0.0469
 3816W        W22670   2.126   3.600   3.759  0.1682  0.0560  0.0221
 3817W        W22671  14.180  17.183   0.299 -0.0376  0.0764 -0.1546
 3818W        W22672  17.419  12.516   3.386 -0.0378 -0.1186  0.1134
 3819W        W22673  15.147   8.697  15.854 -0.1476  0.1355  0.0043
 3820W        W22674   8.828  12.501   6.185  0.3218 -0.0403  0.1532
 3821W        W22675  14.979   6.795  14.848 -0.1052 -0.0739 -0.0770
 3822W        W22676   2.084   0.599  15.850 -0.0576  0.2474  0.1398
 3823W        W22677   4.833  12.291   5.465  0.0326 -0.2966 -0.1585
 3824W        W22678   6.977  10.755  13.651  0.0314 -0.3539 -0.2532
 3825W        W22679   1.527   0.132  12.266  0.0411  0.3030  0.0665
 3826W        W22680  13.208   6.029  11.519  0.1541  0.3085 -0.0500
 3827W        W22681   9.231   3.058  12.998  0.0777  0.5053  0.0964
 3828W        W22682   8.750  12.895  14.223  0.0050 -0.1783  0.0527
 3829W        W22683  17.080  16.445  15.384 -0.2604  0.1231  0.0300
 3830W        W22684   6.729  13.682   1.834 -0.1168 -0.2174 -0.2510
 3831W        W22685  16.002  13.231   2.629 -0.0470  0.1053  0.0246
 3832W        W22686  16.267  16.091  13.132  0.2506  0.0310  0.1215
 3833W        W22687  15.243   6.304  14.029 -0.0708  0.1496 -0.0813
 3834W        W22688   6.896  14.387   2.088  0.2919  0.0256 -0.1133
 3835W        W22689  10.767  11.563  13.547  0.0486  0.0464 -0.0374
 3836W        W22690  13.523  13.394   0.893 -0.0287 -0.1993 -0.0692
 3837W        W22691  15.684   8.292   1.903  0.0557 -0.0762  0.0842
 3838W        W22692   2.401   8.867   1.323  0.2363  0.1237  0.0997
 3839W        W22693  16.409   4.841   0.188 -0.1711  0.2738  0.0577
 3840W        W22694  17.885  15.343  14.166 -0.1312  0.0709 -0.3002
 3841W        W22695  17.226   2.870   4.098  0.0164  0.1179  0.2449
 3842W        W22696   9.905  14.613   1.868  0.3636 -0.0803  0.1812
 3843W        W22697   5.510  12.127   1.043 -0.0264 -0.2657  0.1820
 3844W        W22698   5.303   9.764  13.582  0.0952  0.4207  0.2582
 3845W        W22699  16.573  13.653  13.353  0.0705 -0.0691 -0.2448
 3846W        W22700   5.784  12.376   1.368  0.0940  0.0149 -0.1335
 3847W        W22701   8.093  17.310   3.591  0.0964 -0.1146  0.0823
 3848W        W22702   6.139   9.904  13.336 -0.3802 -0.0940 -0.1251
 3849W        W22703  12.734   0.308   2.842  0.1417 -0.1714 -0.0619
 3850W        W22704  12.926   0.026  11.883 -0.0664  0.2941 -0.0643
 3851W        W22705   1.783   2.293  12.796 -0.2788 -0.1805  0.2707
 3852W        W22706  11.316  13.776  15.057  0.2053  0.1012  0.0031
 3853W        W22707   5.982  10.922   3.668  0.1569  0.0670 -0.0693
 3854W        W22708  13.397   0.148  13.781 -0.0806 -0.4009  0.0119
 3855W        W22709   8.086  14.823  14.025 -0.3461  0.2362  0.2044
 3856W        W22710   0.290   0.355   2.485  0.0223  0.2039 -0.3460
 3857W        W22711  14.742   8.624   2.793  0.0781  0.2319  0.1341
 3858W        W22712  14.294  15.134   5.958 -0.0027  0.3776  0.0444
 3859W        W22713  17.803   8.695  13.166  0.2733 -0.1083 -0.0416
 3860W        W22714  16.879  15.596  14.248 -0.0564  0.1238 -0.0249
 3861W        W22715   0.045   8.730  10.851  0.0288  0.2807  0.1315
 3862W        W22716  15.029   3.116  13.368  0.4906 -0.3131 -0.1538
 3863W        W22717   6.337   6.201  12.327  0.0935  0.0699  0.0005
 3864W        W22718   2.894  10.271  13.355  0.1884 -0.2641  0.1902
 3865W        W22719  14.219   8.724  11.913  0.0353 -0.1013  0.0242
 3866W        W22720   0.040   0.988   3.457 -0.1795  0.4414  0.1590
 3867W        W22721   1.839   9.250   1.928  0.1969  0.3656 -0.0722
 3868W        W22722   0.060   2.748  14.986  0.1969 -0.0076  0.0354
 3869W        W22723   8.286  17.108   0.761  0.0148  0.0141  0.1825
 3870W        W22724  12.083   5.650   0.766 -0.1112 -0.0392  0.1359
 3871W        W22725   9.958   6.999  11.721  0.1283 -0.0728 -0.0752
 3872W        W22726   6.009  12.650  13.234 -0.3198  0.0782 -0.0487
 3873W        W22727  14.772   4.081   0.298 -0.2745  0.3659 -0.0512
 3874W        W22728  15.407   7.503   3.853  0.2278  0.1003  0.4971
 3875W        W22729   3.715  11.864   0.406  0.0346  0.2310  0.0135
 3876W        W22730   6.159   4.116  13.011 -0.1810 -0.3804  0.1129
 3877W        W22731  10.022   0.956   4.352  0.0338 -0.0447  0.0808
 3878W        W22732   9.157  12.822   4.484  0.0517 -0.0929  0.1493
 3879W        W22733  17.869  10.831  15.568  0.1867 -0.2012  0.1481
 3880W        W22734   5.270  15.841  14.387 -0.0722 -0.0219 -0.1154
 3881W        W22735   4.432   7.159   2.811 -0.1221 -0.0946 -0.1985
 3882W        W22736   9.849   0.925   0.010  0.1037 -0.0767  0.1259
 3883W        W22737  11.607  11.042  13.371  0.2439 -0.0045  0.2108
 3884W        W22738  13.293  16.332  12.800  0.3163  0.2380 -0.0481
 3885W        W22739  14.583   0.903   0.097  0.0113  0.1637 -0.0580
 3886W        W22740   5.123  14.372   1.801 -0.0020 -0.2779 -0.1294
 3887W        W22741   2.193   9.716  13.877 -0.3038  0.2016  0.1028
 3888W        W22742   5.981  15.513   4.325 -0.1204 -0.1633 -0.1157
 3889W        W22743  12.453   2.928   0.500  0.0313  0.1601  0.2282
 3890W        W22744  10.947   7.566   1.137 -0.1607 -0.0881  0.0514
 3891W        W22745   6.771  12.554   0.788  0.2785  0.0910  0.0401
 3892W        W22746   7.522   5.919   4.722  0.1023 -0.2554 -0.0403
 3893W        W22747   8.833   2.572  14.656 -0.1935  0.4535 -0.0522
 3894W        W22748  12.066  15.429  13.729 -0.0381 -0.0123 -0.0668
 3895W        W22749  11.685  15.121  13.342 -0.0896 -0.1528 -0.1240
 3896W        W22750   3.922   9.350   0.805 -0.2839 -0.0108 -0.2385
 3897W        W22751  12.616   4.609   3.154  0.1330 -0.1166 -0.1713
 3898W        W22752   5.818  12.675   0.459 -0.0434  0.2470  0.1271
 3899W        W22753  16.918  14.445  15.097 -0.0440  0.2912 -0.0912
 3900W        W22754   2.017   1.964   1.377  0.3356  0.0094  0.1181
 3901W        W22755  12.152   3.129  14.865  0.2631  0.3017  0.2387
 3902W        W22756   9.026   5.944  16.001 -0.1641 -0.0823  0.0424
 3903W        W22757  15.228   8.238   4.207  0.0802  0.0314 -0.2229
 3904W        W22758   7.783  12.286   1.523  0.1212 -0.0179 -0.1888
 3905W        W22759  14.421   7.971  13.297  0.1054  0.1569  0.1517
 3906W        W22760   6.554  15.303  14.134  0.1939 -0.1532  0.3292
 3907W        W22761  16.896  16.115   1.630  0.0459  0.4663  0.1657
 3908W        W22762   2.915  17.169   2.048  0.1987 -0.1031 -0.1268
 3909W        W22763  16.238  17.193   1.866 -0.2681 -0.0290  0.0162
 3910W        W22764  15.776   1.501  12.533 -0.0585 -0.0161  0.2963
 3911W        W22765   6.707  10.814  14.085 -0.2912  0.0233 -0.0458
 3912W        W22766   7.330   2.847   2.189 -0.1945  0.4116 -0.1986
 3913W        W22767  10.263   9.247   3.065  0.2579 -0.0151 -0.0524
 3914W        W22768  17.247  13.375   3.980  0.0162 -0.1681  0.0669
 3915W        W22769  14.073   8.471   0.904  0.0696  0.2704 -0.0542
 3916W        W22770   7.086  11.160   0.564  0.0895  0.2357  0.3893
 3917W        W22771  15.713   6.990   0.330 -0.2331  0.3035 -0.3442
 3918W        W22772   9.937   6.965   0.460 -0.0660 -0.1351 -0.1179
 3919W        W22773   5.974   8.319   2.866  0.0569 -0.3205  0.0387
 3920W        W22774  11.814  13.104   3.188 -0.1981 -0.2079 -0.3020
 3921W        W22775  10.199   3.084  12.188 -0.0158 -0.1021  0.0200
 3922W        W22776  12.063  14.690  12.650 -0.1039 -0.0656  0.0701
 3923W        W22777  14.530   1.113  15.860 -0.1623  0.3461  0.0916
 3924W        W22778  12.868   3.385  13.936 -0.1687 -0.0385  0.0819
 3925W        W22779   7.851   3.442  11.998  0.2342  0.1620  0.0696
 3926W        W22780  13.958   6.170   5.372  0.0269  0.0368 -0.0372
 3927W        W22781  10.929  15.146  15.688  0.3004  0.0040  0.1763
 3928W        W22782  10.136   1.725   4.085  0.0544  0.1307 -0.0930
 3929W        W22783   8.951  10.672   2.403  0.2842  0.1280  0.0653
 3930W        W22784  15.086   8.129  10.156  0.1730  0.0695  0.2450
 3931W        W22785   4.747   3.822  13.508 -0.2150 -0.0140  0.2086
 3932W        W22786   5.101   0.942  13.518 -0.0034  0.1426  0.0251
 3933W        W22787   2.699  16.584  13.953 -0.1267 -0.0483 -0.3275
 3934W        W22788   3.335  17.421   2.248  0.1141 -0.0573  0.1914
 3935W        W22789  11.762  15.909  15.122  0.0814 -0.0097  0.0315
 3936W        W22790   2.800  10.241   1.537  0.1128 -0.0547  0.0044
 3937W        W22791   3.943   0.758   2.721 -0.3712 -0.2835 -0.3764
 3938W        W22792   3.044  16.440   4.533  0.1982 -0.1755 -0.0828
 3939W        W22793   1.919   2.178   3.462  0.0009  0.0009  0.0536
 3940W        W22794   8.293   2.802   4.575 -0.0822 -0.0322 -0.3376
 3941W        W22795   0.673  14.449  13.461 -0.3090  0.1354 -0.0585
 3942W        W22796  10.877  12.271  14.161  0.1130 -0.0581 -0.2639
 3943W        W22797   5.606   6.047   0.036  0.1912  0.1985  0.0182
 3944W        W22798   5.475   9.390  13.925 -0.1134  0.0297 -0.0293
 3945W        W22799  13.119   1.966   1.797 -0.1763  0.0114  0.0176
 3946W        W22800   3.498   1.669  12.590  0.0582  0.0922  0.0220
 3947W        W22801   2.920  13.827   1.360 -0.1236  0.3866 -0.0810
 3948W        W22802   0.533  11.363  15.627 -0.1448  0.1539 -0.2528
 3949W        W22803   2.359  14.726  15.488 -0.0320 -0.1992 -0.1971
 3950W        W22804   9.151  13.001   1.840  0.0859 -0.0200 -0.0100
 3951W        W22805   8.115   9.922   3.462 -0.1107  0.2296  0.1219
 3952W        W22806   5.357  13.216  13.226 -0.0746  0.1213 -0.0623
 3953W        W22807   5.861   9.141   1.399 -0.0294  0.3438 -0.1128
 3954W        W22808   2.745   8.503   2.220  0.0393 -0.4694 -0.1988
 3955W        W22809   3.580  17.642  15.194 -0.0568  0.0415  0.1468
 3956W        W22810  12.481   9.484   2.497  0.1289  0.1112 -0.0010
 3957W        W22811   6.181   3.331  13.779 -0.0971  0.0250  0.1518
 3958W        W22812   1.465  10.664  13.338 -0.0118 -0.0333 -0.1001
 3959W        W22813   8.951   0.404   1.906  0.1051 -0.1392  0.0790
 3960W        W22814   1.684   4.032  15.142  0.0358  0.0565  0.0111
 3961W        W22815   3.611  10.986  12.096  0.0333 -0.0091  0.1462
 3962W        W22816  13.573   0.532   1.660  0.0045  0.1536  0.0622
 3963W        W22817  12.902  12.706   3.584  0.3851  0.0439  0.1303
 3964W        W22818  15.838  14.713  12.984  0.0391 -0.2750 -0.3827
 3965W        W22819   6.595   7.756   3.330  0.1360  0.1017 -0.0748
 3966W        W22820   8.913  10.020   2.956 -0.0860  0.2895 -0.1495
 3967W        W22821   2.027  13.433   2.169 -0.0141 -0.1354  0.1831
 3968W        W22822   7.575  11.207   0.706  0.0681  0.3079 -0.0118
 3969W        W22823  13.141   5.375   3.039 -0.0963  0.0585 -0.1010
 3970W        W22824   9.794  11.003  12.510  0.3532 -0.0313  0.0475
 3971W        W22825   9.828   2.616   0.741 -0.0024 -0.0260 -0.1424
 3972W        W22826   3.760   9.378  13.902  0.0408  0.0406  0.0469
 3973W        W22827   9.501   3.616   2.785  0.0472 -0.3894 -0.0338
 3974W        W22828  17.582   4.249  15.193  0.0911  0.0196  0.0239
 3975W        W22829   9.574   1.034  15.281  0.3550 -0.0438  0.1001
 3976W        W22830   7.134  10.822   2.099 -0.1234  0.2464 -0.2885
 3977W        W22831  16.010  15.897   1.975  0.0562 -0.0808  0.1244
 3978W        W22832  13.922   0.386   2.474  0.2195 -0.0730  0.0711
 3979W        W22833   0.148   3.000   0.920 -0.2361  0.0561  0.0702
 3980W        W22834   5.167  16.918   2.406  0.1025  0.1962 -0.0089
 3981W        W22835   9.784  16.168   4.803  0.4339 -0.1774 -0.0989
 3982W        W22836   6.711  13.539   0.403 -0.0938  0.0454 -0.0617
 3983W        W22837  16.014  11.430   1.608 -0.0465 -0.1309 -0.4039
 3984W        W22838   9.599   2.956  15.859 -0.0794 -0.3822  0.0616
 3985W        W22839  11.193  17.810  12.158  0.0922 -0.1960 -0.3629
 3986W        W22840   5.475   6.043   1.214  0.1463  0.0980  0.3424
 3987W        W22841   0.104   4.017   1.503 -0.1672  0.1162  0.4287
 3988W        W22842  11.227  18.010  14.292  0.0885 -0.0091  0.0468
 3989W        W22843  15.523   6.605   0.849  0.0384 -0.0697 -0.1043
 3990W        W22844   8.115   8.510  11.221  0.1040 -0.0950 -0.1226
 3991W        W22845   9.012   6.416   2.883  0.2628  0.0433 -0.0527
 3992W        W22846   0.093   7.524   4.153  0.0667  0.2138 -0.0133
 3993W        W22847   8.937   4.478  13.251  0.5085  0.2599 -0.2198
 3994W        W22848   2.532   2.885  12.038  0.1996  0.2967 -0.2164
 3995W        W22849   5.235   2.111   0.502  0.2216 -0.0352 -0.1856
 3996W        W22850   7.487  13.306  14.754  0.1014  0.0897  0.0928
 3997W        W22851   1.997  15.116   0.760  0.0036 -0.2495 -0.2137
 3998W        W22852  11.655   7.137   2.802  0.1823 -0.0121  0.1556
 3999W        W22853   3.081  10.419  12.698 -0.0020 -0.0942 -0.0200
 4000W        W22854   9.198  10.936  12.843  0.1006 -0.0331 -0.0682
 4001W        W22855  15.595  14.775  14.058  0.2437 -0.0430 -0.1452
 4002W        W22856   0.700  14.322   0.679 -0.2969  0.0135  0.1818
 4003W        W22857  16.512   6.124   1.658 -0.0797  0.0599  0.1505
 4004W        W22858   5.907   4.138   1.786  0.0510 -0.1254  0.0535
 4005W        W22859   4.193  16.802  12.604  0.0351  0.2878  0.0104
 4006W        W22860   6.608  10.125  14.682 -0.0507  0.0024 -0.2373
 4007W        W22861  14.094  11.827  12.023 -0.2306  0.1098 -0.0145
 4008W        W22862   0.682   4.473  13.798  0.3320  0.0659 -0.0433
 4009W        W22863   2.708  17.667   0.662 -0.2140  0.2107  0.5692
 4010W        W22864  12.805   3.909  12.233 -0.1184  0.2822 -0.3454
 4011W        W22865   5.112  13.363   0.202 -0.2435  0.1226 -0.2078
 4012W        W22866   6.927   0.638  15.965 -0.1176 -0.2648  0.0726
 4013W        W22867  16.498  12.470  12.154 -0.5876 -0.1518 -0.2325
 4014W        W22868   8.055   8.121   3.311 -0.1770  0.3512 -0.0152
 4015W        W22869  15.169  13.730  13.541  0.1189 -0.1798 -0.0968
 4016W        W22870   4.406   0.344  13.033 -0.1730 -0.0855  0.1485
 4017W        W22871   7.044   1.452   1.839 -0.1092  0.1419 -0.1468
 4018W        W22872   3.871  16.010  12.337  0.0440  0.2919 -0.1486
 4019W        W22873   3.621   5.049  15.337 -0.0822 -0.1281  0.1475
 4020W        W22874  13.086  11.749  12.484 -0.1730 -0.0197  0.3328
 4021W        W22875  11.795   7.282   3.837 -0.1727  0.1069 -0.1423
 4022W        W22876   6.073  13.905  10.825 -0.1159  0.5037  0.0920
 4023W        W22877  14.018   0.901   4.945  0.1742  0.2372  0.1115
 4024W        W22878   3.092   4.607  12.156  0.1483 -0.1482 -0.2759
 4025W        W22879   5.482   6.635  12.165 -0.0273  0.1292 -0.2418
 4026W        W22880  10.570  18.038   1.894  0.0577 -0.0422 -0.1981
 4027W        W22881   5.005  14.097  16.026  0.0647 -0.0837  0.0572
 4028W        W22882  12.245   2.618  13.715  0.2534 -0.2034 -0.1103
 4029W        W22883   7.206   7.080  14.959 -0.1154 -0.1397 -0.2248
 4030W        W22884   0.532  14.951   2.796  0.2836  0.1903 -0.0876
 4031W        W22885   5.200   9.653   1.349  0.1412 -0.0700  0.0720
 4032W        W22886   3.862  11.397   4.265  0.1832 -0.2114 -0.0699
 4033W        W22887  10.364   4.908  16.015  0.1887  0.1482  0.1445
 4034W        W22888   4.893  11.733   0.887 -0.0369  0.2805 -0.2111
 4035W        W22889   7.157  11.873   1.373  0.1108 -0.0558 -0.1326
 4036W        W22890   1.165   3.513  14.469 -0.2713 -0.0970 -0.1209
 4037W        W22891   9.006   5.600   1.932  0.0866  0.3004 -0.1505
 4038W        W22892  10.387   3.203  13.280  0.0390 -0.0113 -0.2892
 4039W        W22893  14.735  12.776  15.606  0.3113  0.1448  0.0398
 4040W        W22894   5.463  13.361  12.656 -0.0063  0.0153  0.1156
 4041W        W22895   9.261  17.267  14.293  0.2216 -0.0000 -0.1949
 4042W        W22896  12.035   1.957   2.837 -0.3080 -0.1781  0.0427
 4043W        W22897  11.040   6.823   1.767  0.3069 -0.1489 -0.1834
 4044W        W22898  11.604  14.410   1.614 -0.4100 -0.0713  0.0679
 4045W        W22899  16.550  15.289   2.176  0.1517  0.0312  0.0646
 4046W        W22900  15.577   5.011  14.120 -0.2138  0.0998 -0.1920
 4047W        W22901  13.583   9.542  14.225  0.0673 -0.1471  0.2515
 4048W        W22902   5.367   8.929   4.821 -0.1695  0.0100  0.1443
 4049W        W22903   2.352  13.029   2.465 -0.0080  0.0206 -0.0410
 4050W        W22904   2.215  15.476  13.429 -0.1008 -0.0299  0.2224
 4051W        W22905   7.312   2.018  11.850  0.1037  0.2060  0.2959
 4052W        W22906   0.043   1.042  14.556 -0.2738  0.1741 -0.1360
 4053W        W22907   3.962  17.446  14.908 -0.0408 -0.0195 -0.0276
 4054W        W22908   9.970  15.479  14.169 -0.0371 -0.1791  0.2345
 4055W        W22909   5.422   7.120   4.443  0.0697 -0.0107 -0.4037
 4056W        W22910  10.983   6.835  13.461  0.0233  0.1971  0.0475
 4057W        W22911   0.969   1.292  13.300  0.1218  0.2157 -0.1995
 4058W        W22912   1.960  15.511   0.277 -0.0920 -0.0038 -0.1585
 4059W        W22913  16.150  17.090   4.497  0.2346  0.1487 -0.2192
 4060W        W22914   2.568  15.016   3.292 -0.2393  0.0294 -0.2124
 4061W        W22915   0.577  14.921   3.346  0.3264 -0.1316 -0.2853
 4062W        W22916   1.525  13.126   4.970  0.0171 -0.0167  0.3740
 4063W        W22917   0.776   0.809  13.521 -0.1564 -0.0608  0.2075
 4064W        W22918  11.746  12.627  15.810 -0.1538 -0.0882 -0.2246
 4065W        W22919  11.567  12.611  14.452 -0.1616  0.0990 -0.0289
 4066W        W22920   5.930   0.218   1.491  0.0629 -0.0533  0.0372
 4067W        W22921   2.292   9.884   3.124 -0.0058  0.0534  0.0189
 4068W        W22922   9.914  10.794   4.958 -0.0036 -0.0673 -0.1103
 4069W        W22923  13.902   3.167   4.885  0.0546  0.2515  0.0483
 4070W        W22924  13.707   9.051  14.366  0.2146  0.0267  0.1054
 4071W        W22925  11.811   4.368   2.939  0.1207  0.0061  0.1807
 4072W        W22926   7.952  14.723   5.682 -0.3917 -0.0685  0.1946
 4073W        W22927   2.093   1.367  16.194 -0.0373 -0.1917 -0.0103
 4074W        W22928   1.045   5.087   0.760 -0.0577 -0.0108  0.0698
 4075W        W22929  15.811  11.340  11.963  0.2417 -0.1559 -0.3420
 4076W        W22930   1.824   2.512   3.078  0.0769 -0.1202  0.0104
 4077W        W22931   1.016   9.250  15.934  0.1950  0.1058 -0.4762
 4078W        W22932  11.952   8.351   2.395  0.1001 -0.5191 -0.1870
 4079W        W22933   1.675   2.877  12.804  0.4012  0.1670 -0.4529
 4080W        W22934   8.912  15.335   1.755 -0.0569 -0.3005 -0.0112
 4081W        W22935   7.301   3.930  15.447  0.0201 -0.4002  0.0371
 4082W        W22936  10.117   5.417   0.491 -0.0483  0.1251  0.2475
 4083W        W22937   8.383   5.235  15.006 -0.2716  0.1441  0.0851
 4084W        W22938   4.616   4.283   1.830  0.1837 -0.0874  0.1061
 4085W        W22939   9.623  11.611   4.198 -0.3918  0.0052  0.0021
 4086W        W22940   8.413  14.860  12.322 -0.1413  0.1770 -0.1023
 4087W        W22941   3.631   9.887  11.850 -0.1249  0.0564  0.4213
 4088W        W22942   0.135  13.212  14.569  0.1899  0.2248  0.1138
 4089W        W22943  13.409   9.054  12.759  0.1103  0.0901 -0.2754
 4090W        W22944  10.236  14.041  11.397 -0.0620 -0.1179  0.3035
 4091W        W22945   6.060   3.128  15.520  0.2908  0.2636  0.0884
 4092W        W22946   9.766   6.132  13.054 -0.1222  0.1204 -0.0911
 4093W        W22947   8.984   6.614  11.827 -0.0208  0.2152 -0.1890
 4094W        W22948  14.181  10.591   2.285 -0.1024 -0.1251  0.2346
 4095W        W22949   3.746  12.496  11.722  0.0168 -0.0232  0.1135
 4096W        W22950   3.196   2.499   3.299 -0.0437  0.0271 -0.0042
 4097W        W22951   0.546   5.629  15.280  0.0953  0.0881 -0.2263
 4098W        W22952  12.609  15.665  15.308  0.0032 -0.0217  0.1445
 4099W        W22953  15.560  11.908  15.541  0.1813 -0.0820 -0.5133
 4100W        W22954   6.550  13.326   5.217 -0.1642 -0.0965  0.0655
 4101W        W22955   9.409   9.925   0.708  0.0587 -0.0709  0.0999
 4102W        W22956   5.890   2.155   1.508  0.0327  0.1485  0.2315
 4103W        W22957  18.019   1.451   3.177 -0.1653 -0.1394  0.0251
 4104W        W22958  13.834   7.900  14.376  0.0373  0.0581 -0.1718
 4105W        W22959  14.078   3.930  12.871  0.4107 -0.1386  0.1143
 4106W        W22960   2.865   7.276  12.724  0.2276  0.1979 -0.0718
 4107W        W22961   7.287  17.702  16.057 -0.1372  0.0126  0.0331
 4108W        W22962   0.895   6.823   3.088 -0.0001  0.0959 -0.1461
 4109W        W22963   1.467  17.013   1.030 -0.1244 -0.3594  0.0529
 4110W        W22964  11.798   9.131   2.891 -0.2218  0.2326 -0.2236
 4111W        W22965  13.720   2.769   2.060 -0.2217 -0.0202 -0.1412
 4112W        W22966   9.030  13.101  12.800 -0.0316 -0.1737  0.0747
 4113W        W22967   5.366  10.930  15.221 -0.1240  0.2106  0.1657
 4114W        W22968   6.935  15.636  11.735 -0.1775  0.1253  0.1878
 4115W        W22969  16.476  14.676  13.525 -0.0478  0.1173 -0.0711
 4116W        W22970   3.700   1.983  14.284  0.0507 -0.1902  0.1261
 4117W        W22971  11.850   9.011   4.603  0.2668  0.0513 -0.2378
 4118W        W22972   8.016   0.593   0.089 -0.0477 -0.1313 -0.2225
 4119W        W22973   0.245   5.834  15.871  0.0822  0.0438  0.0569
 4120W        W22974   4.417   1.382   0.640  0.1676  0.1720  0.2923
 4121W        W22975  14.016   7.930   0.100  0.0620  0.1412 -0.0550
 4122W        W22976  15.245   1.093  14.432  0.0371  0.0198  0.0960
 4123W        W22977  11.067  12.696   4.885 -0.0746 -0.3304 -0.0101
 4124W        W22978   5.401   8.512   2.137 -0.0862 -0.0269 -0.4089
 4125W        W22979   5.220   8.820   5.872 -0.1523  0.2081  0.1193
 4126W        W22980   8.051  11.760  12.644 -0.2442  0.0456 -0.5012
 4127W        W22981   0.003  13.278   2.384  0.0311 -0.1030  0.1786
 4128W        W22982   7.462  15.149  15.144 -0.0388 -0.1318  0.0697
 4129W        W22983  15.287  17.903   3.665 -0.0580 -0.0019 -0.0840
 4130W        W22984   5.224  13.808  14.907  0.1456  0.1053  0.0533
 4131W        W22985  16.134   9.106   1.818  0.0957 -0.2172  0.1491
 4132W        W22986  16.112   6.294   1.417  0.0241 -0.0448 -0.0117
 4133W        W22987  17.956   1.296  14.943  0.0566  0.1778  0.0095
 4134W        W22988   3.230  12.747   3.933  0.2096  0.0521  0.0569
 4135W        W22989   8.131   9.474   1.563 -0.1211 -0.1072 -0.1106
 4136W        W22990  10.874   2.834  11.215 -0.0371 -0.2815  0.0338
 4137W        W22991  15.122   9.357   0.800 -0.1194 -0.2498  0.0397
 4138W        W22992  14.300   0.043  15.009  0.0106  0.3741 -0.2240
 4139W        W22993   5.095   9.768   4.663  0.0144  0.0513  0.0611
 4140W        W22994   0.176  16.955  12.973 -0.2101 -0.1196  0.0816
 4141W        W22995   2.521   7.298   0.889  0.1456  0.2021 -0.2700
 4142W        W22996   7.911   7.226  15.609  0.0567  0.2637  0.1882
 4143W        W22997   1.775   4.621   0.419 -0.1257 -0.1032  0.0792
 4144W        W22998   4.367  11.737  12.746  0.0788 -0.3878  0.0632
 4145W        W22999  10.198  16.709  15.667 -0.1527 -0.0936  0.1514
 4146W        W23000   6.651  16.553  15.628  0.1273 -0.1998 -0.1837
 4147W        W23001  17.545   5.859  10.111 -0.1117  0.2101 -0.0411
 4148W        W23002   7.373  15.228  16.060 -0.3383 -0.2362  0.5384
 4149W        W23003  11.102   5.307   1.485  0.1870 -0.2651 -0.2024
 4150W        W23004   8.630   3.139   4.452  0.0340  0.0549  0.0307
 4151W        W23005   4.615   4.145   1.332 -0.0319  0.2290 -0.0747
 4152W        W23006   8.828  12.010  15.252 -0.1371 -0.2760  0.3001
 4153W        W23007   9.115   6.692  13.331 -0.1907  0.0892  0.0272
 4154W        W23008   6.087  13.783  14.962 -0.2003  0.1371 -0.2201
 4155W        W23009   1.503   4.939  14.790 -0.0402  0.0043  0.0016
 4156W        W23010   0.623   1.164   1.335  0.1728 -0.1562 -0.0717
 4157W        W23011   3.710   3.429  15.967  0.0014  0.0214  0.0222
 4158W        W23012   8.627   7.192  12.357  0.0650 -0.2807  0.0865
 4159W        W23013   6.690   4.048   0.475  0.0229 -0.0408 -0.1238
 4160W        W23014  11.532   1.949   0.757 -0.0757  0.2454 -0.0832
 4161W        W23015  13.028  15.390   4.242 -0.2191 -0.1785  0.1411
 4162W        W23016   4.234  17.713  14.506  0.1607  0.0214 -0.2639
 4163W        W23017   2.420   1.706   0.300  0.3799 -0.0435  0.1268
 4164W        W23018   7.279  12.833  13.864  0.0193  0.3001  0.0231
 4165W        W23019   3.966   9.744  14.274 -0.2411 -0.1730 -0.2394
 4166W        W23020   9.527   7.524  14.138  0.0734 -0.3574 -0.0536
 4167W        W23021   7.355  16.976   0.932 -0.0560 -0.1168 -0.1388
 4168W        W23022   0.326   7.332  15.598  0.2078 -0.3123  0.2510
 4169W        W23023  12.391   9.660  13.236 -0.1619 -0.1685  0.2828
 4170W        W23024  10.971   0.295   3.883  0.0643 -0.0108 -0.1661
 4171W        W23025  15.821   0.147  15.371  0.1538  0.2437 -0.1135
 4172W        W23026   0.601  13.832   0.910 -0.0055 -0.0793  0.1694
 4173W        W23027   0.293   2.336   0.560 -0.1485 -0.1774 -0.2492
 4174W        W23028  16.268   2.387   4.572 -0.1081 -0.2562 -0.1517
 4175W        W23029   5.349  13.076  12.251  0.4120  0.1594 -0.0669
 4176W        W23030   6.375   1.488   0.631 -0.3288  0.0790  0.1888
 4177W        W23031   7.870  12.739  13.915 -0.1359 -0.2031 -0.0342
 4178W        W23032  15.489  11.124  13.296 -0.0286 -0.1549  0.3024
 4179W        W23033   0.791  16.915  11.514 -0.0087  0.0599 -0.2717
 4180W        W23034  12.683   5.754   3.560  0.0026  0.2037 -0.1557
 4181W        W23035   2.101  13.256  11.923 -0.1572 -0.1230 -0.3803
 4182W        W23036   5.336   5.868  11.669 -0.2026 -0.1898 -0.3487
 4183W        W23037   3.120  13.297  11.692  0.0386  0.1348  0.0102
 4184W        W23038  13.998  13.177   2.658 -0.1197 -0.2702  0.0743
 4185W        W23039  12.646   1.755  13.893  0.2361  0.0623  0.0487
 4186W        W23040  11.082  15.835   4.604  0.1703  0.0651 -0.1695
 4187W        W23041  12.134   0.698  12.465 -0.1386  0.1742  0.1897
 4188W        W23042  17.418  14.609   3.554 -0.0989 -0.3414 -0.1494
 4189W        W23043   3.755   2.745  16.183  0.1747 -0.1481 -0.2674
 4190W        W23044   0.907   3.514   0.573  0.0973  0.1630  0.0605
 4191W        W23045   4.091   3.909  12.325 -0.0063 -0.0631  0.1124
 4192W        W23046  14.415  12.120  13.879  0.1378  0.1199 -0.0063
 4193W        W23047   5.538  13.488  15.164  0.1960 -0.2542  0.1133
 4194W        W23048   0.901  10.247  11.456  0.2662  0.0885 -0.1441
 4195W        W23049  11.961  16.405  15.257 -0.0174  0.0052 -0.1455
 4196W        W23050   4.933  15.122   1.731  0.4049  0.2576  0.2438
 4197W        W23051   6.564  16.218   4.622  0.2230 -0.2154 -0.1613
 4198W        W23052  10.996   3.980  12.903 -0.0763  0.2917 -0.2292
 4199W        W23053  17.353   4.315  15.758 -0.1865 -0.3194  0.2381
 4200W        W23054   3.926   4.424   0.507  0.1121 -0.2768 -0.1626
 4201W        W23055  13.495  10.557  14.834 -0.1660  0.0159 -0.0465
 4202W        W23056   2.672   3.403   2.918  0.0680  0.3168 -0.1526
 4203W        W23057  16.308   0.719   2.828  0.1461  0.1101 -0.4245
 4204W        W23058   6.385  13.295  12.224  0.2145  0.0793 -0.0136
 4205W        W23059   6.636   4.180  14.911 -0.0710  0.3357  0.0652
 4206W        W23060   0.957   8.769  15.626 -0.3262 -0.1118  0.0888
 4207W        W23061  12.584   2.003   4.575 -0.0395 -0.1021  0.1441
 4208W        W23062   6.939  13.618  14.503 -0.0412  0.2347 -0.2272
 4209W        W23063   2.042  10.194  15.293 -0.0486 -0.0339  0.1766
 4210W        W23064  15.235   5.764   2.030  0.0067  0.0694  0.1532
 4211W        W23065  13.943   5.440  14.817 -0.2049 -0.2713 -0.0975
 4212W        W23066  12.393  10.236   3.832  0.1090 -0.0903  0.1409
 4213W        W23067  17.526   7.413   1.567  0.1056 -0.2930  0.0284
 4214W        W23068  17.069   8.506   3.034  0.2075 -0.0313 -0.2016
 4215W        W23069  17.446  17.468   0.341 -0.0998  0.0209  0.1534
 4216W        W23070  13.849   6.540  11.990 -0.1124 -0.0548 -0.1592
 4217W        W23071  13.662  11.449  12.929  0.0664  0.1201 -0.1546
 4218W        W23072   8.246  15.043  13.583  0.1609 -0.1968 -0.0948
 4219W        W23073   5.478   9.545   2.520 -0.1810 -0.1234 -0.2213
 4220W        W23074  16.517  11.166   3.620  0.1592  0.0234  0.1596
 4221W        W23075   1.947  15.529   4.106  0.0760  0.0137  0.1415
 4222W        W23076  15.356   0.248  15.980 -0.0991  0.0852  0.3186
 4223W        W23077   5.497  10.053   2.617 -0.0554 -0.2371 -0.1531
 4224W        W23078  11.261  16.408  13.255  0.2571 -0.0920  0.2952
 4225W        W23079   7.824  11.982   0.554 -0.3197  0.1845  0.0735
 4226W        W23080  17.827  13.777   1.097  0.0997  0.1092 -0.1003
 4227W        W23081   4.680   5.458   5.438 -0.0946  0.0220 -0.1254
 4228W        W23082  13.170   8.020  12.914 -0.0340  0.0715  0.0677
 4229W        W23083  15.260   3.614  10.824  0.0649  0.2303 -0.2090
 4230W        W23084  12.091   3.422  12.388  0.0347 -0.2618 -0.0344
 4231W        W23085   2.075   4.090   3.949 -0.4642 -0.2035 -0.1988
 4232W        W23086   5.884   3.940  16.060  0.1525  0.0764 -0.0343
 4233W        W23087  12.804   6.871   1.588 -0.2977  0.0544 -0.0994
 4234W        W23088   5.109  16.338  11.733  0.0773  0.0726  0.2826
 4235W        W23089  10.816   4.883  12.610 -0.0686  0.0567 -0.0688
 4236W        W23090   9.980   2.406   1.159 -0.0867 -0.1308 -0.0632
 4237W        W23091   4.744  15.700  14.731  0.3490 -0.1012  0.2992
 4238W        W23092  17.452  13.641  12.999 -0.1762 -0.0318  0.0462
 4239W        W23093  16.169  14.114  12.810  0.1394 -0.0972  0.0999
 4240W        W23094  17.676  15.882  13.108  0.0287 -0.0118  0.0312
 4241W        W23095   2.272   2.147  13.865 -0.0677  0.1534 -0.2639
 4242W        W23096   4.553   9.585  12.739 -0.1427 -0.0349 -0.0476
 4243W        W23097   3.238  13.797  11.814 -0.1969 -0.1587 -0.1502
 4244W        W23098   0.818   9.904  13.448 -0.2682 -0.1805  0.0164
 4245W        W23099   9.475  10.791  12.034  0.1210  0.2169 -0.1770
 4246W        W23100   0.352   2.888  14.482  0.0935 -0.1245  0.1872
 4247W        W23101  13.367   8.357  11.715  0.0093 -0.1767  0.0273
 4248W        W23102   7.635   8.875  12.547  0.2411 -0.0814 -0.1259
 4249W        W23103   5.715   8.805  12.469 -0.1865  0.1437  0.0191
 4250W        W23104  12.779   3.495  13.122 -0.1730  0.0747 -0.0078
 4251W        W23105  10.710  13.709  15.401 -0.0408  0.0072  0.0846
 4252W        W23106   3.574   9.213  15.078  0.1243 -0.0463  0.2731
 4253W        W23107  13.214  14.532  15.857  0.1742  0.1956  0.3246
 4254W        W23108  16.740  16.117   0.522 -0.0364 -0.0417  0.0630
 4255W        W23109   9.430   1.581  12.333 -0.3408  0.0885  0.2233
 4256W        W23110  13.743  12.343  15.542 -0.0177  0.0787  0.1215
 4257W        W23111   3.854  14.001   4.097  0.1886 -0.2799  0.1320
 4258W        W23112  17.626  13.352   2.099 -0.1917  0.1282  0.0573
 4259W        W23113   7.961  11.575   1.876  0.2563 -0.2988 -0.1063
 4260W        W23114  10.561   6.113  15.068  0.3164  0.4137  0.1179
 4261W        W23115   8.630   4.575   3.830 -0.5346  0.0673 -0.1322
 4262W        W23116   2.816  11.561  13.957 -0.1766 -0.2904  0.0546
 4263W        W23117   2.582  13.817  13.452 -0.1308 -0.1280  0.1620
 4264W        W23118   8.864  11.174  11.780 -0.3894 -0.1326 -0.1271
 4265W        W23119   8.293   7.150   0.205  0.1872  0.0379  0.2147
 4266W        W23120   5.007   8.783  13.305 -0.0848 -0.0855  0.3949
 4267W        W23121   2.192   3.217   2.962  0.0213  0.0816 -0.1903
 4268W        W23122   9.995   9.070  16.148  0.0592 -0.1502 -0.1283
 4269W        W23123  10.242   8.013   2.777 -0.1612 -0.0389  0.2369
 4270W        W23124   3.328   7.664  13.481  0.0373  0.1940  0.1947
 4271W        W23125  17.857  12.501  11.754 -0.1058 -0.2186  0.1729
 4272W        W23126   1.873   7.406   0.368 -0.0425  0.0844 -0.1848
 4273W        W23127  15.148  10.640  15.579 -0.0156  0.3639 -0.0649
 4274W        W23128   0.145  17.125  14.714  0.3731  0.2515 -0.2806
 4275W        W23129  15.100   8.402   0.567  0.0869  0.1434  0.1003
 4276W        W23130  13.827  13.367  14.097 -0.0615  0.4927  0.1343
 4277W        W23131  10.818   0.891  15.561  0.1958 -0.0798 -0.1277
 4278W        W23132   4.346  14.829  15.450 -0.2618  0.1653 -0.3328
 4279W        W23133  11.763   2.014  12.672  0.2527 -0.2346  0.1072
 4280W        W23134  13.003   2.071   5.731 -0.2559 -0.1111  0.1729
 4281W        W23135   4.945  13.871  13.811  0.0710 -0.0411 -0.2279
 4282W        W23136   9.334   6.314  13.123 -0.0087 -0.2341  0.2034
 4283W        W23137   1.817  16.913  13.367 -0.1018  0.2308  0.1222
 4284W        W23138   4.504  15.598  12.153 -0.0391  0.0852 -0.1052
 4285W        W23139  10.774   9.045   0.764 -0.0358 -0.1973  0.2178
 4286W        W23140   3.729  11.494   2.625  0.0025  0.0282  0.1475
 4287W        W23141  11.806   9.276  16.017  0.2044  0.3377  0.2403
 4288W        W23142   6.638   9.126   2.096  0.1737 -0.0870  0.0325
 4289W        W23143   5.446  16.900  12.962  0.0732 -0.0089 -0.0836
 4290W        W23144  17.502  13.070   5.168  0.0412 -0.0324  0.0274
 4291W        W23145   0.143   0.504   3.929  0.0699 -0.0440  0.1744
 4292W        W23146   5.797  16.464   3.044 -0.0550  0.0355 -0.3044
 4293W        W23147   4.498   5.019   1.731  0.0105 -0.0056  0.0004
 4294W        W23148   5.471  14.681  13.631  0.0451 -0.2389 -0.1772
 4295W        W23149  16.027   2.536  14.896 -0.1394  0.2044 -0.0755
 4296W        W23150   6.601  17.699   4.608 -0.0097 -0.1548  0.2299
 4297W        W23151   2.507   5.640   1.655 -0.1585 -0.0649 -0.3164
 4298W        W23152  15.081  11.270   0.697  0.0867  0.3447 -0.1062
 4299W        W23153   6.108   4.231   3.355  0.1081  0.2295 -0.1998
 4300W        W23154   5.197  10.571   5.315 -0.2738  0.0248  0.1262
 4301W        W23155  11.162   7.031  12.016  0.0907  0.6978 -0.0412
 4302W        W23156   5.543   2.229  12.031  0.2254  0.0642 -0.0733
 4303W        W23157   0.940  16.243  12.953  0.0404  0.2567  0.0167
 4304W        W23158  11.687  13.929   0.247 -0.4107  0.1151 -0.1045
 4305W        W23159  10.862  17.720   2.634  0.2164 -0.0229 -0.1114
 4306W        W23160  15.571  15.289  15.489  0.0495 -0.0843 -0.2005
 4307W        W23161   6.183  10.228   4.924 -0.0316 -0.1369 -0.0760
 4308W        W23162   1.526  14.970  12.484 -0.2687  0.2088 -0.1086
 4309W        W23163  17.036  14.844  14.296  0.1632 -0.5233  0.1356
 4310W        W23164   1.903   1.879   4.416 -0.0703  0.4011  0.1593
 4311W        W23165   8.361  13.904  12.794 -0.0212 -0.0756  0.1107
 4312W        W23166  14.646  10.238   2.979 -0.2959  0.1896  0.0189
 4313W        W23167  14.070  14.043  16.102 -0.0699  0.0772  0.0305
 4314W        W23168   5.643  11.482  14.551  0.0492  0.0498  0.0224
 4315W        W23169  17.617   5.636   3.446  0.0482  0.2555  0.1408
 4316W        W23170  17.163   9.203   2.367  0.0605  0.0064 -0.0895
 4317W        W23171  13.980  15.553  10.614  0.1578 -0.1215  0.2613
 4318W        W23172   9.523  10.663   0.231  0.0102 -0.0778  0.2815
 4319W        W23173   7.932  12.571  11.497 -0.2500 -0.0592 -0.2078
 4320W        W23174  12.253   8.003  12.088  0.5437  0.2473  0.0387
 4321W        W23175   5.808  13.528   3.299  0.0416 -0.1837  0.0945
 4322W        W23176   1.530   2.925  13.881 -0.0646 -0.0965 -0.0875
 4323W        W23177   5.803   8.089  14.424 -0.2398 -0.0210  0.0548
 4324W        W23178   5.021   8.684   3.687 -0.1747 -0.0645 -0.3693
 4325W        W23179  15.874  12.899   2.302 -0.0215 -0.1611  0.0185
 4326W        W23180  13.279   8.208   1.119 -0.2583 -0.1686  0.0422
 4327W        W23181   6.082  12.459   4.640  0.1145  0.0200  0.0446
 4328W        W23182  14.536   8.537  14.000 -0.3514 -0.1204  0.1068
 4329W        W23183  12.303   6.319  13.933  0.1347 -0.0405 -0.0707
 4330W        W23184   1.649   2.292  11.734 -0.1416 -0.0117  0.0237
 4331W        W23185  16.957  10.787   1.633  0.0465  0.1588 -0.1553
 4332W        W23186  16.502  14.435   0.148 -0.2238  0.0115  0.1833
 4333W        W23187  12.207  18.038   1.513  0.1831 -0.0214  0.1687
 4334W        W23188  10.315   0.845   3.771  0.1742  0.1880  0.0797
 4335W        W23189   4.725   0.023   0.111 -0.0023 -0.1118 -0.2072
 4336W        W23190   8.371  11.932  13.303 -0.0141  0.0771 -0.0273
 4337W        W23191   7.664   0.210  11.827  0.2128  0.1108  0.0854
 4338W        W23192  10.104   2.624   0.273  0.0433 -0.0720 -0.0893
 4339W        W23193  16.813  12.290   0.833  0.3276  0.0676  0.4109
 4340W        W23194  16.646  14.934   5.816  0.0148 -0.1459  0.0639
 4341W        W23195  11.785   6.794  15.479  0.1038  0.1768  0.0344
 4342W        W23196   4.248   7.579   4.648 -0.3417  0.0149 -0.2789
 4343W        W23197  14.509  14.365  12.952 -0.0752  0.1676  0.2704
 4344W        W23198  14.830  14.070  13.735 -0.2496 -0.3010 -0.0726
 4345W        W23199   9.040   1.923   2.048 -0.1852 -0.0046  0.1545
 4346W        W23200  15.238   2.215  15.474 -0.0573 -0.1711 -0.1913
 4347W        W23201   3.861   3.241  12.188 -0.2445 -0.0265 -0.0204
 4348W        W23202   4.866   3.770  14.125  0.2960 -0.0021 -0.0516
 4349W        W23203   7.896  13.375  13.457  0.0748  0.0423  0.1733
 4350W        W23204  11.029   5.257   2.366  0.1778  0.4213  0.1716
 4351W        W23205  12.442   8.912   0.324 -0.3472  0.1811  0.1354
 4352W        W23206   0.631   2.140  12.025  0.1564  0.2872  0.1717
 4353W        W23207   9.538  12.900   6.127  0.0085  0.0144 -0.0117
 4354W        W23208   6.449  15.102   1.652 -0.1065 -0.2400 -0.1271
 4355W        W23209  16.691   3.676  13.694  0.1721 -0.0494 -0.0328
 4356W        W23210  14.520   7.533  15.330 -0.1004 -0.1779 -0.1358
 4357W        W23211  13.244   2.938   4.763  0.0340 -0.2814  0.4112
 4358W        W23212   7.347  17.349   2.091 -0.2007  0.1393  0.1091
 4359W        W23213   6.836   5.997  15.454  0.1519 -0.2300  0.0825
 4360W        W23214  14.369   2.624  14.021 -0.1367  0.2516 -0.0808
 4361W        W23215   0.866   6.616  13.490 -0.1524 -0.1670  0.0641
 4362W        W23216   8.496   1.984  14.016 -0.1870 -0.2744  0.2243
 4363W        W23217  14.476   7.593  12.538  0.2465 -0.1555 -0.1746
 4364W        W23218  11.857  12.514   2.660 -0.1442 -0.3024  0.2749
 4365W        W23219   1.600   3.709  14.678  0.3449  0.1031 -0.2320
 4366W        W23220   5.975   2.880   4.807 -0.0588 -0.1003 -0.2290
 4367W        W23221   3.438   0.239  14.709  0.1291 -0.1375 -0.0118
 4368W        W23222   6.989   9.863  13.302 -0.0798 -0.0950  0.1910
 4369W        W23223   8.446  16.048  11.283  0.5094  0.1629 -0.0071
 4370W        W23224   7.335   8.434   3.080 -0.0674  0.1321 -0.0431
 4371W        W23225  14.621   4.218   2.512  0.2232 -0.1072  0.1526
 4372W        W23226   2.830  10.849  15.270  0.0383  0.3026  0.2962
 4373W        W23227   7.454   7.141   4.236  0.3738 -0.1650 -0.1030
 4374W        W23228   5.332   0.947   1.774 -0.1694 -0.2408 -0.1255
 4375W        W23229   8.474   1.147  16.114  0.4048  0.1105  0.1198
 4376W        W23230   7.418   0.664  10.644 -0.1265 -0.1981 -0.1016
 4377W        W23231  18.026  15.577  11.638  0.0243 -0.3372  0.0350
 4378W        W23232  15.187   8.204  15.907  0.0044  0.1336 -0.2264
 4379W        W23233   1.819   7.954   2.704 -0.3281  0.0439  0.1758
 4380W        W23234  16.714   2.246   1.148  0.3555  0.2677 -0.2170
 4381W        W23235  13.184  12.945   2.798 -0.0564 -0.0130 -0.1939
 4382W        W23236  12.810   0.188   4.783  0.2726  0.1723  0.3064
 4383W        W23237   3.259  11.268   2.724  0.1128 -0.0534  0.0992
 4384W        W23238  13.836  12.418  12.917 -0.3054 -0.0100 -0.1568
 4385W        W23239   3.763  12.815  12.116 -0.4609  0.0647  0.2205
 4386W        W23240   8.815   6.795   4.825 -0.0172 -0.1285 -0.0307
 4387W        W23241   5.079  16.811   1.727  0.2599 -0.2016  0.1123
 4388W        W23242  17.037   4.898   3.352 -0.0281  0.1170  0.0103
 4389W        W23243  10.293  12.284   5.079  0.2650 -0.0378 -0.0531
 4390W        W23244  16.528  17.650  11.668  0.4358  0.1823  0.0812
 4391W        W23245   2.621   0.279  15.184  0.2795  0.0431 -0.2135
 4392W        W23246  17.526   9.687  11.062  0.2478  0.0405 -0.1158
 4393W        W23247  17.093   4.842   1.844 -0.0495 -0.1565  0.3238
 4394W        W23248   1.541   4.310  11.438  0.0471 -0.0585  0.0850
 4395W        W23249   1.518   3.804  11.504 -0.1107  0.1591 -0.1496
 4396W        W23250   1.670  17.992  15.154 -0.0327 -0.4739 -0.3278
 4397W        W23251   2.039   5.941   0.948 -0.1019  0.2257 -0.0003
 4398W        W23252  10.398  17.962  11.823 -0.2432 -0.1502  0.0437
 4399W        W23253   3.830  11.344   5.223  0.1655  0.2061  0.0923
 4400W        W23254  17.901   6.850  15.505  0.0472  0.0159 -0.1321
 4401W        W23255  16.170  17.588   1.532  0.0680 -0.0363 -0.1261
 4402W        W23256   0.766   0.547  15.643  0.1909  0.0493  0.1189
 4403W        W23257   5.483   3.613  12.992  0.0663 -0.0128 -0.2524
 4404W        W23258   4.267  11.406  14.905 -0.4488 -0.0367  0.3467
 4405W        W23259  12.812  13.996   1.342 -0.1544  0.0411  0.0237
 4406W        W23260  15.767   5.317  12.240 -0.0520  0.0141 -0.0029
 4407W        W23261   9.972  13.621  15.899 -0.0953  0.0186  0.2532
 4408W        W23262  11.382   7.321   1.633  0.0910 -0.2495 -0.4227
 4409W        W23263   5.231  18.030  16.105 -0.1204 -0.0976 -0.0568
 4410W        W23264   4.942  10.722  11.614  0.1232  0.1008  0.0045
 4411W        W23265   6.402  16.373  11.643  0.1287  0.2511 -0.2848
 4412W        W23266  15.609  17.211  14.979  0.0614  0.1661 -0.3324
 4413W        W23267  12.451   8.748  11.576 -0.2894  0.3235 -0.2638
 4414W        W23268   8.154   6.137   1.465 -0.2432 -0.0441  0.2933
 4415W        W23269   3.019   0.271  15.506  0.4160 -0.0127  0.2312
 4416W        W23270   6.723  12.055   1.035 -0.2023  0.0102  0.1918
 4417W        W23271   0.833  11.667   2.607  0.2098  0.0931  0.2838
 4418W        W23272  16.881   0.378  11.999  0.3644 -0.0838  0.1086
 4419W        W23273  13.994  17.956   2.624  0.2335  0.0776 -0.0414
 4420W        W23274   0.630  12.267   3.538 -0.0227 -0.2438 -0.0358
 4421W        W23275  13.680   3.517  14.376  0.1537  0.1438 -0.2938
 4422W        W23276   9.199  12.433   0.548  0.2725 -0.1203  0.3448
 4423W        W23277  11.444  10.534  13.587 -0.1331  0.3564  0.2075
 4424W        W23278   1.203   0.283  15.677  0.0925  0.1177 -0.1768
 4425W        W23279  17.157   4.924   2.798  0.1204 -0.0131 -0.0458
 4426W        W23280   1.501  12.361   0.691  0.1624  0.1690  0.0306
 4427W        W23281  17.707  15.966   3.067 -0.0189  0.2455 -0.0083
 4428W        W23282  12.808   8.808  15.882  0.0102  0.1218  0.1174
 4429W        W23283   3.119   8.816   4.219  0.1144 -0.1433  0.0087
 4430W        W23284   6.790   8.401   0.765 -0.1821  0.3778 -0.1781
 4431W        W23285   8.353   8.061  15.201  0.0991 -0.1514  0.0582
 4432W        W23286   9.954  16.385   2.062 -0.2546  0.0520  0.0578
 4433W        W23287  13.439   0.186  16.146  0.2323  0.0140 -0.0852
 4434W        W23288  17.137   1.904  14.827  0.1608  0.1393 -0.1708
 4435W        W23289  15.385  17.833   2.719 -0.1743  0.0210  0.1594
 4436W        W23290   9.088  10.865   0.294  0.1020 -0.2485  0.1909
 4437W        W23291  16.488   1.713  12.592 -0.0150 -0.0425  0.0733
 4438W        W23292  14.509  10.196   4.066 -0.0161  0.0971  0.0365
 4439W        W23293   7.097   6.821  14.084 -0.2378  0.1749  0.1091
 4440W        W23294   9.567  11.501  11.698  0.3558 -0.1612  0.0356
 4441W        W23295  10.089   3.629  12.330  0.0293 -0.1371 -0.0885
 4442W        W23296  13.734   1.147   0.162 -0.3471  0.2898 -0.0210
 4443W        W23297  11.350   3.037   4.065  0.1432  0.1131  0.0004
 4444W        W23298   4.072   7.036  13.460 -0.0539 -0.2438 -0.1875
 4445W        W23299   4.754   6.155  11.727 -0.1992  0.0493 -0.0992
 4446W        W23300  11.641  17.913   2.915 -0.1087 -0.6533  0.3973
 4447W        W23301   3.066   5.084  13.518 -0.0328  0.0279  0.0404
 4448W        W23302   9.458  13.643  16.052 -0.2889  0.1831  0.3075
 4449W        W23303  17.842  10.789  13.584 -0.1054 -0.1647  0.0356
 4450W        W23304  10.759  13.522   1.926 -0.1596 -0.3886  0.3074
 4451W        W23305  12.162  14.610   0.207  0.1717 -0.0563  0.1143
 4452W        W23306   3.156  12.522   0.918 -0.2435  0.2154  0.0422
 4453W        W23307  14.653   8.933  12.334 -0.0114  0.2431 -0.1182
 4454W        W23308   2.553  17.405  13.919  0.1890  0.3613  0.0136
 4455W        W23309  12.081   7.591  11.672  0.2169 -0.2010 -0.2407
 4456W        W23310   0.632   8.773   2.303  0.1431  0.0636 -0.2642
 4457W        W23311   7.102   0.333   0.098  0.1243 -0.3227  0.0106
 4458W        W23312   3.047   6.826  11.390  0.0813 -0.1660 -0.1198
 4459W        W23313  17.956   8.243   4.706  0.1184 -0.0904  0.0574
 4460W        W23314   5.081   0.454  13.814 -0.0768 -0.1000  0.0533
 4461W        W23315   3.109  17.776  14.446 -0.4205  0.0079  0.1186
 4462W        W23316   3.960   1.859  13.394 -0.3185  0.1073  0.3369
 4463W        W23317   4.401   9.284  13.075 -0.5615  0.2188 -0.2435
 4464W        W23318   0.012   1.874  11.257  0.1484  0.1679  0.2359
 4465W        W23319  13.766   1.575   2.518  0.0139 -0.0840 -0.0554
 4466W        W23320  11.076  11.532   2.298  0.0209  0.0286 -0.2496
 4467W        W23321  15.910   7.995  15.086 -0.1148  0.1148  0.2363
 4468W        W23322  17.550   2.133  13.210  0.2372  0.2513  0.0028
 4469W        W23323  10.394   8.028  15.138 -0.3328 -0.0229  0.0488
 4470W        W23324  10.059  13.624  11.461 -0.2580 -0.1200  0.0003
 4471W        W23325  15.259   1.873   1.828  0.1829  0.1691 -0.1115
 4472W        W23326   3.371   9.536  13.619  0.0670 -0.0612 -0.0631
 4473W        W23327  15.389   6.746  15.278  0.0117 -0.1488 -0.1634
 4474W        W23328  12.117  15.000  14.986  0.0398 -0.1143  0.1827
 4475W        W23329   4.135   8.477  12.926 -0.1399 -0.4813  0.1311
 4476W        W23330   1.189   1.591  15.760 -0.2171  0.1298  0.1379
 4477W        W23331   4.918  12.151   1.880  0.0022 -0.2859 -0.3071
 4478W        W23332   3.661   3.245   1.501 -0.0129  0.2999 -0.0626
 4479W        W23333  17.505   6.105   0.110  0.0917 -0.3678  0.2278
 4480W        W23334   8.426   8.499   1.599 -0.0815 -0.1192 -0.1658
 4481W        W23335   4.149  10.338  12.740 -0.0124 -0.2392 -0.0378
 4482W        W23336   3.779   6.250  16.064  0.2212  0.1975  0.0599
 4483W        W23337   9.608   0.568   4.979 -0.0696  0.1813  0.2830
 4484W        W23338  10.270   2.538  12.272 -0.1097 -0.1487  0.1447
 4485W        W23339  12.122   8.512   4.483 -0.3360 -0.0608 -0.1069
 4486W        W23340   6.559  11.400   0.371 -0.1030  0.0923 -0.0125
 4487W        W23341   5.820   4.412  12.679  0.0064  0.0584 -0.2010
 4488W        W23342  13.449   3.015   0.185  0.0855 -0.1262  0.1730
 4489W        W23343   8.967   8.679  13.768 -0.0220  0.1440  0.1765
 4490W        W23344  10.515  11.753  14.986  0.0710 -0.1837  0.2630
 4491W        W23345   4.007  13.333  11.354 -0.0056  0.0700 -0.0327
 4492W        W23346   3.464   6.062  15.115 -0.3120 -0.2580 -0.0419
 4493W        W23347   5.840   3.411   1.060 -0.0894  0.1505  0.0915
 4494W        W23348   3.604  10.412  11.960  0.3490 -0.1711 -0.1155
 4495W        W23349  13.218  12.727  13.948 -0.0680  0.0618  0.2468
 4496W        W23350  12.922   0.114   4.164 -0.1859  0.0445 -0.0533
 4497W        W23351  17.088  14.496   2.093 -0.1887  0.0870 -0.0595
 4498W        W23352   0.858   8.743  14.710  0.1461  0.1569  0.0236
 4499W        W23353   3.554  13.652   3.743 -0.0928 -0.0947  0.1558
 4500W        W23354   3.499  10.204  11.476 -0.0535 -0.0143  0.0289
 4501W        W23355  13.597  10.685   0.875 -0.0106 -0.0981 -0.0491
 4502W        W23356   6.837  17.270  11.528  0.0543  0.2236 -0.3261
 4503W        W23357   6.421  17.223   3.687  0.0026 -0.1220  0.0938
 4504W        W23358  12.523   8.414   2.469  0.2951 -0.1063  0.0166
 4505W        W23359   1.691   5.490   2.367 -0.0060 -0.0875  0.0990
 4506W        W23360  12.130   3.881  13.661  0.0643  0.1590 -0.1420
 4507W        W23361   0.765  12.835  13.893  0.2990 -0.2362 -0.1728
 4508W        W23362   6.678   6.388   4.493 -0.3857  0.0910  0.0726
 4509W        W23363  12.582   2.310   1.091 -0.3098 -0.0867 -0.1599
 4510W        W23364   7.034  16.142  12.909 -0.1519 -0.1809 -0.2588
 4511W        W23365   8.858   8.275  12.294  0.1131 -0.0449  0.2254
 4512W        W23366  15.512   9.087  12.646 -0.1869  0.1402 -0.2529
 4513W        W23367  12.962  16.343  15.389  0.0759  0.3161 -0.2041
 4514W        W23368  10.676   1.862   3.093  0.0016  0.0737  0.3062
 4515W        W23369   5.304  13.642  15.998  0.1181 -0.2946  0.1697
 4516W        W23370  10.516  12.548  14.336  0.0065 -0.0098  0.0157
 4517W        W23371  16.473   3.642  15.775 -0.0122 -0.0974  0.1505
 4518W        W23372  13.617  12.607  12.331 -0.0186  0.1143 -0.1180
 4519W        W23373   8.943  10.219   2.427 -0.0329  0.0258 -0.0060
 4520W        W23374   0.912   5.709   4.128 -0.1693 -0.1410  0.3104
 4521W        W23375   6.212   1.199   0.092 -0.5382  0.0033  0.1953
 4522W        W23376   0.974  12.491   1.313 -0.2930  0.0805  0.2874
 4523W        W23377   1.686   2.947  14.409 -0.0395  0.3136 -0.4902
 4524W        W23378   0.308  16.374  16.131  0.0175 -0.1024 -0.0500
 4525W        W23379  11.049  13.431   2.897  0.1729  0.2628 -0.2151
 4526W        W23380   0.025  13.503  15.924 -0.2498 -0.2942  0.0421
 4527W        W23381  18.004   1.807   4.645  0.1253 -0.0533  0.0144
 4528W        W23382  10.607  14.221  15.421 -0.1452  0.0986  0.1481
 4529W        W23383  15.216  15.792  14.112  0.1996  0.1730 -0.0682
 4530W        W23384  16.566  15.316   4.656 -0.1163 -0.2934  0.0626
 4531W        W23385   8.055   7.366   4.546  0.2918 -0.0105  0.0637
 4532W        W23386   9.951   2.280   3.076 -0.3062  0.0589 -0.2073
 4533W        W23387   6.890   0.629   3.433  0.0099  0.3940 -0.0002
 4534W        W23388  10.293  12.883  12.902  0.1936 -0.0157  0.0927
 4535W        W23389  14.212  15.953   1.609 -0.3000 -0.0894 -0.1102
 4536W        W23390   3.467  17.019  12.031  0.0474  0.2904  0.0931
 4537W        W23391  17.432   6.647  12.525 -0.1711  0.0212  0.1116
 4538W        W23392   8.670  12.608   4.551  0.0484  0.1847 -0.5366
 4539W        W23393  15.051   1.567  14.232  0.1632  0.1276  0.2088
 4540W        W23394   4.673   6.128   1.906  0.3610  0.0660 -0.1603
 4541W        W23395  11.079   6.581   4.110 -0.3858 -0.0986  0.0542
 4542W        W23396   5.099  15.862   3.967 -0.2382 -0.0875 -0.0560
 4543W        W23397  13.126  15.266   3.149  0.1936  0.0035 -0.1285
 4544W        W23398   2.204  16.749   1.216  0.0749  0.0376  0.0117
 4545W        W23399   0.956   4.073  12.440 -0.0438  0.0483 -0.2541
 4546W        W23400  10.235  13.851  11.846 -0.0565 -0.1664  0.0795
 4547W        W23401  12.818   3.350   3.593  0.2976 -0.5105  0.1288
 4548W        W23402   8.020   0.601   5.367  0.0108 -0.0516  0.4137
 4549W        W23403   7.276  16.651  11.535  0.0529 -0.3258 -0.2093
 4550W        W23404   2.769   5.756  12.881  0.2747 -0.1829 -0.1017
 4551W        W23405   8.708  16.555  15.688  0.0212  0.1855  0.2639
 4552W        W23406   6.886  10.714  14.728  0.1042  0.1607  0.1279
 4553W        W23407   2.017   7.522  12.165 -0.2536  0.0531 -0.0684
 4554W        W23408  17.951   4.722   4.150  0.4203  0.0859  0.0090
 4555W        W23409   7.290   4.477   0.921  0.0193 -0.0829  0.1369
 4556W        W23410   6.432  10.453  15.014  0.1889 -0.1629 -0.1724
 4557W        W23411  12.863   2.393  13.264  0.0079 -0.1098 -0.0110
 4558W        W23412  15.584  12.158   4.520  0.0977  0.1204  0.1168
 4559W        W23413  16.903   2.450  11.622  0.2541 -0.1123 -0.4235
 4560W        W23414  12.669   9.785  14.416  0.2912  0.0387  0.0963
 4561W        W23415  12.008  17.843   0.069  0.1211  0.0695 -0.1949
 4562W        W23416  16.639  17.762  13.382  0.3420  0.0748 -0.0911
 4563W        W23417   8.898   5.926   2.735  0.0884 -0.0546 -0.1912
 4564W        W23418  16.201   8.309   3.167  0.0693  0.2809 -0.0019
 4565W        W23419  11.236  15.232   1.379  0.0507  0.0022 -0.3754
 4566W        W23420  14.904  15.592  15.533 -0.1760 -0.2621 -0.2769
 4567W        W23421   5.255   4.356   4.212  0.0541  0.5109  0.0332
 4568W        W23422   7.604  12.258  12.177  0.0151  0.0942  0.0394
 4569W        W23423  13.098  14.653   0.224  0.2433  0.2174  0.1022
 4570W        W23424  17.372  16.431   2.307 -0.3229 -0.1310  0.3414
 4571W        W23425   6.721   5.126  12.795  0.3257 -0.0301 -0.3451
 4572W        W23426   6.662  10.324   0.159  0.0359  0.0472  0.0856
 4573W        W23427  16.984   3.205   4.777 -0.3888  0.1952 -0.2555
 4574W        W23428  16.571   3.036  12.862 -0.0473  0.1457  0.0799
 4575W        W23429  10.302   5.106   3.470 -0.0696  0.0747 -0.1419
 4576W        W23430   9.201   6.133  14.159 -0.0076 -0.1310  0.3635
 4577W        W23431  15.984   9.781   3.912 -0.0026 -0.3612  0.0144
 4578W        W23432   4.233  15.522  13.046 -0.1297 -0.0570  0.1378
 4579W        W23433   4.429   9.492  13.590 -0.0066 -0.0769  0.0639
 4580W        W23434   1.243   3.447  15.587 -0.0605  0.0587  0.1872
 4581W        W23435   9.020   8.714   0.560 -0.1282  0.3918 -0.0019
 4582W        W23436  12.096  13.285   3.546  0.0136 -0.1022 -0.0530
 4583W        W23437   0.447  14.378  15.911 -0.0145 -0.1742 -0.0286
 4584W        W23438   3.826  11.560  15.059  0.2615  0.1313  0.1546
 4585W        W23439   4.846   9.124   3.825 -0.1713 -0.0063  0.1903
 4586W        W23440   3.192  15.243   2.089 -0.0973 -0.0235  0.0655
 4587W        W23441  10.534  17.312  14.429 -0.2140 -0.1782  0.2821
 4588W        W23442   0.501  12.367  14.061 -0.3988  0.1541  0.3383
 4589W        W23443   2.895   5.327  15.472 -0.1136  0.1295  0.1605
 4590W        W23444  10.065   9.811  12.967  0.2034  0.0477 -0.0575
 4591W        W23445  13.885   6.793  15.719  0.1447  0.1194  0.2090
 4592W        W23446  12.325   4.218   3.263 -0.0923  0.0779 -0.0336
 4593W        W23447   8.929   0.643  11.604 -0.1273  0.1193  0.2732
 4594W        W23448   9.876   2.584  15.605  0.2932  0.0958  0.0504
 4595W        W23449   7.085   4.422  13.151 -0.2405  0.1004  0.0599
 4596W        W23450   1.745   6.410  11.394 -0.0672 -0.1943  0.0524
 4597W        W23451  11.928  12.896  14.201 -0.2464 -0.0584 -0.1094
 4598W        W23452   5.702   4.793   1.466 -0.1777  0.1007 -0.1649
 4599W        W23453  14.400  15.617   1.259 -0.2492 -0.1175 -0.0336
 4600W        W23454  16.641  10.344   1.681 -0.1539 -0.1569 -0.2403
 4601W        W23455   5.433   9.468  14.469  0.2171  0.2721  0.0911
 4602W        W23456   7.535   6.844   1.216 -0.3496  0.1240 -0.2906
 4603W        W23457   2.272  11.764   1.120 -0.3423 -0.0302 -0.0471
 4604W        W23458   8.759   1.104   1.327  0.0128  0.2658  0.0832
 4605W        W23459   3.252   0.840   4.761 -0.2358  0.2880  0.1474
 4606W        W23460   8.505   8.007   1.559 -0.1384 -0.2511  0.0658
 4607W        W23461  13.744  11.662   2.226 -0.0276  0.0116  0.3953
 4608W        W23462  15.024  14.465  16.089  0.0004  0.2641 -0.0590
 4609W        W23463  14.630   8.088   2.521 -0.2379  0.1710 -0.2419
 4610W        W23464   0.312  11.287   3.654  0.2140  0.2553  0.0706
 4611W        W23465  18.017  12.988   2.850 -0.3798 -0.0819 -0.0752
 4612W        W23466  12.440  17.130  13.988  0.3539 -0.1798  0.1292
 4613W        W23467   1.522  14.610  12.146  0.1142  0.5174 -0.1743
 4614W        W23468   0.493   0.148   5.048 -0.1467  0.0457  0.0396
 4615W        W23469  16.555  15.599   4.107  0.0621  0.2190 -0.0233
 4616W        W23470   1.763  11.059  13.981  0.2031 -0.1462 -0.0191
 4617W        W23471   3.694   2.664   4.119 -0.0005  0.0346 -0.1017
 4618W        W23472   8.816  17.904   0.397  0.0328  0.0471  0.0035
 4619W        W23473  15.982  11.690   4.319 -0.0397  0.0203 -0.2014
 4620W        W23474  13.725  13.555   2.534 -0.0966  0.1181  0.0168
 4621W        W23475  13.369  10.639  13.319 -0.1377  0.0837 -0.2166
 4622W        W23476   3.509   3.818   3.576  0.0718 -0.4144 -0.1405
 4623W        W23477   9.769  13.802   1.940  0.2387 -0.0190 -0.0348
 4624W        W23478   3.169   7.466   0.297 -0.0064 -0.0227 -0.2843
 4625W        W23479   7.389   8.391  15.712  0.3543  0.1769 -0.1943
 4626W        W23480   3.628  15.319  13.166 -0.0517  0.0635  0.1348
 4627W        W23481  17.923   4.306  14.260 -0.1116 -0.0896  0.0248
 4628W        W23482  15.061  14.254  14.729  0.1007 -0.1128 -0.0626
 4629W        W23483   6.138  16.239  12.876 -0.2016 -0.1637  0.0681
 4630W        W23484  11.982   4.110   3.878  0.1137  0.1261 -0.1154
 4631W        W23485   6.271  11.363   3.516  0.0560  0.1405 -0.1041
 4632W        W23486  13.981   9.727  15.859 -0.1148 -0.0185 -0.1767
 4633W        W23487   5.662   5.301   1.418 -0.0016 -0.0209 -0.0769
 4634W        W23488  16.516   5.967  13.703  0.2358  0.3039 -0.1133
 4635W        W23489  14.645   9.139  14.146 -0.0960  0.0697  0.1248
 4636W        W23490   4.061   9.811  12.743 -0.3591 -0.0074  0.2235
 4637W        W23491  12.788   6.166   2.718  0.0952  0.0103  0.3798
 4638W        W23492  11.817  12.178  12.899  0.2746  0.0604  0.0807
 4639W        W23493  14.568  10.293  12.599 -0.2648  0.1222 -0.3085
 4640W        W23494  17.562  15.642   3.432 -0.2129 -0.0493  0.0917
 4641W        W23495   3.350   4.416   1.578  0.2072 -0.4272 -0.1984
 4642W        W23496   7.301  15.246  14.595  0.0287  0.1454 -0.2486
 4643W        W23497  12.673  14.265   1.761  0.1931  0.1202 -0.0459
 4644W        W23498   8.241   1.281   5.132 -0.0845 -0.3270  0.2319
 4645W        W23499   7.169   4.328  14.686 -0.3381  0.0173 -0.4422
 4646W        W23500  15.020  15.589   1.261 -0.1027  0.2397 -0.2295
 4647W        W23501  17.100  11.866  12.726 -0.0886 -0.0012  0.1589
 4648W        W23502  11.780  14.576  13.099  0.1855 -0.0606 -0.3766
 4649W        W23503  12.035   1.693  13.960 -0.3154 -0.0009 -0.0568
 4650W        W23504  18.029   2.965   2.823  0.2536  0.0221  0.0298
 4651W        W23505  14.702   4.787  13.379 -0.0012 -0.0136 -0.0053
 4652W        W23506   3.571   0.741  13.295  0.2755 -0.3249 -0.0786
 4653W        W23507  17.570   9.118  13.012  0.1727 -0.0214  0.3743
 4654W        W23508   0.752   1.690   3.625  0.0973  0.0584 -0.1530
 4655W        W23509  15.017  11.016   3.257 -0.0105 -0.1442  0.2796
 4656W        W23510  11.864  12.609   0.807 -0.2044 -0.3963 -0.1767
 4657W        W23511   2.866  12.465   3.752  0.0307 -0.4847 -0.0090
 4658W        W23512   8.000   1.337   3.081  0.4004  0.1493 -0.0175
 4659W        W23513   6.648  11.271  13.601  0.0380 -0.1459  0.0064
 4660W        W23514  14.015  14.248   0.752  0.0857 -0.0908 -0.0038
 4661W        W23515   9.588   1.040  12.036  0.3005 -0.3397 -0.0198
 4662W        W23516   7.707  12.679  15.029  0.0810 -0.2299 -0.1995
 4663W        W23517   4.284   3.403  15.827  0.2460  0.0033  0.0526
 4664W        W23518   7.699  15.061   1.063 -0.2064 -0.2428  0.3004
 4665W        W23519   1.446  13.851  11.289 -0.2027 -0.0720 -0.0132
 4666W        W23520  11.925   1.902   1.055 -0.0009 -0.0100 -0.1357
 4667W        W23521  13.576   9.760  15.572  0.4708 -0.1022 -0.0960
 4668W        W23522  11.891   1.863   1.650  0.0788 -0.0654  0.0329
 4669W        W23523  17.928  10.841   1.516 -0.1922 -0.0931 -0.0136
 4670W        W23524   3.559   5.921  13.478 -0.2095  0.2021  0.0536
 4671W        W23525   4.819  15.534   3.191  0.0636  0.0925 -0.2787
 4672W        W23526   0.549   3.908  12.673  0.0671 -0.1268 -0.1067
 4673W        W23527  12.711   7.640  12.818 -0.2819  0.1814  0.0447
 4674W        W23528  13.878   3.093   0.452 -0.1718  0.0384  0.2555
 4675W        W23529   3.373   1.912   0.033 -0.0235  0.2484 -0.2393
 4676W        W23530  17.523   1.990  13.703  0.0978 -0.0114  0.2288
 4677W        W23531   7.419   6.583   1.680  0.1022  0.0850 -0.1858
 4678W        W23532   9.682   5.029   1.729 -0.0416  0.0118  0.0345
 4679W        W23533   3.952   5.982  12.226  0.1643  0.3467  0.1596
 4680W        W23534  17.178   3.419  13.676  0.2036 -0.1735 -0.2548
 4681W        W23535  17.139  17.688   4.477 -0.0508 -0.1137 -0.2140
 4682W        W23536   9.171  16.254   1.172  0.0389 -0.1211 -0.2374
 4683W        W23537  12.081   8.268  15.243  0.1607  0.0728 -0.1188
 4684W        W23538   8.010   2.257   0.062 -0.3166  0.0978  0.2122
 4685W        W23539   8.726   8.033  12.770  0.1346 -0.1454 -0.1694
 4686W        W23540  16.537   8.797   4.724 -0.2939  0.2114 -0.0892
 4687W        W23541  12.577  12.037  12.257 -0.2533  0.0413  0.0352
 4688W        W23542   5.525  16.973  14.701  0.1379 -0.1222 -0.1662
 4689W        W23543  12.593   2.536  15.551 -0.0706 -0.0753 -0.0644
 4690W        W23544   9.949  13.521   2.997 -0.0256  0.1700 -0.0498
 4691W        W23545   2.270  12.087   0.165  0.0439  0.0632 -0.1720
 4692W        W23546   7.128   6.565   2.434 -0.2156  0.0760  0.0235
 4693W        W23547   4.741  15.776  15.611 -0.2148 -0.0095  0.0662
 4694W        W23548  12.134  12.133   1.657 -0.1613 -0.1885 -0.1026
 4695W        W23549  10.391  16.047  15.363  0.2752 -0.1103  0.0248
 4696W        W23550  10.014   1.054  15.042  0.0032 -0.2124 -0.1149
 4697W        W23551  14.526   5.078   0.829  0.1127 -0.0762  0.0291
 4698W        W23552  10.702   2.350  13.951 -0.0698 -0.0089 -0.1125
 4699W        W23553  14.401   0.536  11.677 -0.0249  0.2913 -0.3470
 4700W        W23554  15.808   1.416  15.540 -0.0339  0.2874  0.1449
 4701W        W23555   4.619  11.532   3.012  0.0309  0.0048 -0.0856
 4702W        W23556  12.121   5.525  15.703  0.4221  0.4230 -0.0401
 4703W        W23557  14.370   2.368   4.127 -0.0474 -0.0736  0.5464
 4704W        W23558   7.361   5.089  16.029  0.0574  0.1635  0.0766
 4705W        W23559   2.391   9.969   5.068 -0.2773  0.1036 -0.1134
 4706W        W23560   6.757   8.657  13.975  0.1580 -0.0173 -0.1964
 4707W        W23561   6.947  11.127  14.458  0.1697  0.0820 -0.2432
 4708W        W23562  13.122   1.371   0.611  0.1652 -0.1027  0.0715
 4709W        W23563   4.443  13.063   3.972  0.0365 -0.2780  0.0250
 4710W        W23564  17.186  11.995   2.097  0.0239 -0.0886  0.2603
 4711W        W23565  16.826  11.997  14.337  0.0981  0.1401  0.0252
 4712W        W23566   0.871  13.863  11.267  0.0852  0.2680 -0.0033
 4713W        W23567   5.218   4.707  11.992 -0.1525  0.0563  0.2805
 4714W        W23568  11.410  12.470  11.625 -0.3815  0.0021 -0.2516
 4715W        W23569  11.877  11.594   2.564 -0.1481 -0.0170  0.3449
 4716W        W23570   8.753   0.014  13.566  0.0499  0.0416 -0.0539
 4717W        W23571  16.389  16.479   0.978  0.1231 -0.1901  0.2231
 4718W        W23572   9.720   3.350  15.069 -0.4017 -0.1913  0.1030
 4719W        W23573   0.648   4.651  14.516 -0.1607 -0.0181  0.4613
 4720W        W23574  13.320  11.047   0.607 -0.1915 -0.0769 -0.0379
 4721W        W23575   7.529  12.647  14.576  0.0053 -0.0265  0.2193
 4722W        W23576  14.797  13.346   4.858 -0.1291  0.0401 -0.0710
 4723W        W23577  16.550  15.230   1.444  0.0538  0.1114 -0.2778
 4724W        W23578  17.905   0.623   2.966  0.3065 -0.0768 -0.0836
 4725W        W23579  12.074   6.442   4.095 -0.1727  0.1459 -0.1305
 4726W        W23580   8.779   8.278   1.227  0.3804  0.0087 -0.2825
 4727W        W23581  15.475   3.325   2.041 -0.1222  0.1806 -0.0474
 4728W        W23582  12.673  16.809  13.231  0.0707 -0.5756  0.1243
 4729W        W23583   4.917  14.730   3.804 -0.2472 -0.0361  0.2501
 4730W        W23584  11.982   1.291  13.687 -0.0617 -0.1821  0.1206
 4731W        W23585   2.613   5.995  11.377 -0.0212  0.2384 -0.2260
 4732W        W23586  16.756  14.802   3.871  0.2674 -0.2639  0.0571
 4733W        W23587   0.085   8.727   3.961  0.2129  0.1101 -0.3104
 4734W        W23588   8.386  10.701   0.304  0.2097 -0.0053 -0.2480
 4735W        W23589  13.976   7.698  12.377  0.2460  0.0611  0.0650
 4736W        W23590   1.960   7.308  14.214 -0.0529  0.1513  0.2791
 4737W        W23591  11.740   3.969   5.609  0.1082 -0.2883  0.1575
 4738W        W23592   6.875   5.121  15.143 -0.1320  0.0484 -0.0859
 4739W        W23593  15.649  14.667  13.479 -0.2036 -0.0514 -0.1385
 4740W        W23594   7.760  15.591   4.300  0.0387  0.1161 -0.0091
 4741W        W23595   9.621   3.829  13.566  0.1853 -0.0419  0.1577
 4742W        W23596   0.637   7.346   0.835 -0.3902 -0.3854  0.1802
 4743W        W23597  13.498   6.412   5.538  0.0121  0.0496  0.0266
 4744W        W23598  17.150  13.484   5.122 -0.3778  0.4994  0.0977
 4745W        W23599   9.870   4.515   2.962  0.1332  0.3153  0.0313
 4746W        W23600  16.621  11.291  13.288  0.0349  0.2317 -0.1379
 4747W        W23601   7.447  14.296  13.993 -0.1707 -0.0200  0.2885
 4748W        W23602   2.156   1.558   5.482 -0.0186  0.1509  0.1143
 4749W        W23603   3.767   1.066   1.285  0.1940  0.0042 -0.1034
 4750W        W23604  12.293   6.217  14.480  0.0899 -0.1002 -0.0969
 4751W        W23605   7.834  16.356  13.184  0.2448  0.0703 -0.0322
 4752W        W23606   9.412   0.249   1.119 -0.1361  0.1609  0.3857
 4753W        W23607  14.741  12.838   2.994 -0.0424  0.0513 -0.1177
 4754W        W23608  13.697   1.660   3.842 -0.0363  0.0311 -0.0447
 4755W        W23609   4.652  13.199   2.556 -0.2433  0.0549 -0.1384
 4756W        W23610   3.764  12.709  15.524  0.3844 -0.2410  0.0010
 4757W        W23611  14.016  12.526   4.362 -0.0768 -0.2576  0.0954
 4758W        W23612   7.356   6.998  14.482 -0.0322 -0.0843 -0.0668
 4759W        W23613  10.629  10.255   4.561  0.0634 -0.0215  0.2650
 4760W        W23614   8.064  10.057  12.093  0.1331 -0.2062  0.1759
 4761W        W23615  11.934   8.055   1.575  0.4172  0.2227  0.0038
 4762W        W23616  17.901   0.753  14.017  0.0701  0.2065  0.0149
 4763W        W23617   5.856  12.667   3.784 -0.2524 -0.2862 -0.1262
 4764W        W23618  12.155   5.262  12.599  0.1150 -0.0758 -0.3767
 4765W        W23619   5.049  15.330  13.723 -0.2134 -0.0699  0.0999
 4766W        W23620   1.836  15.941   3.843  0.1057 -0.2755 -0.1563
 4767W        W23621   1.815  10.214   3.178  0.0495  0.0834 -0.3182
 4768W        W23622  11.736   5.054  12.768  0.1611  0.0398  0.0904
 4769W        W23623   8.122   3.126   2.520 -0.3228  0.0151  0.1283
 4770W        W23624  13.429  13.591  13.873 -0.1177  0.1072  0.0307
 4771W        W23625   6.840  12.643   3.740 -0.1272 -0.2965  0.2779
 4772W        W23626   5.736  13.592   3.884 -0.0390  0.0218 -0.1754
 4773W        W23627  17.806  12.456  14.669  0.2252 -0.0309 -0.2439
 4774W        W23628  12.621   8.893   3.312  0.0190 -0.1998  0.1510
 4775W        W23629  16.346   3.319  13.717  0.1815 -0.1069 -0.2594
 4776W        W23630   1.105  14.670   4.848  0.1708 -0.2017 -0.1840
 4777W        W23631   0.792  10.319  13.123 -0.1287  0.0813  0.1049
 4778W        W23632  16.296  11.471   0.631  0.1063  0.1417  0.0971
 4779W        W23633   8.693  13.987  14.135  0.1118  0.3241 -0.1820
 4780W        W23634   9.186   0.875  14.459 -0.5465  0.0160 -0.0302
 4781W        W23635   9.429   8.823  15.518 -0.2240  0.1738  0.2135
 4782W        W23636  11.946   9.835  16.062  0.1075 -0.3152  0.0178
 4783W        W23637   7.715   7.417  13.185 -0.0988  0.0207  0.0423
 4784W        W23638  10.386   9.296   1.602 -0.0558 -0.0030  0.2134
 4785W        W23639  15.364  13.084  14.462  0.1430 -0.2426 -0.1312
 4786W        W23640  17.033  16.904   1.261  0.2445  0.0956 -0.1011
 4787W        W23641  12.366  10.050  12.038  0.0091  0.0997 -0.1407
 4788W        W23642   1.059  12.187   4.315  0.0052  0.0067 -0.0750
 4789W        W23643   9.444  16.457   3.880  0.1025  0.3450 -0.0352
 4790W        W23644   2.236   5.313  15.010 -0.1465 -0.1990 -0.0810
 4791W        W23645  10.728   4.725   0.905  0.0461  0.0274  0.1660
 4792W        W23646  13.392  13.137   5.438  0.2003 -0.1586 -0.1558
 4793W        W23647   0.654  10.622  12.152 -0.0351 -0.2143  0.2131
 4794W        W23648  13.626   5.819  14.692 -0.2540  0.1707  0.1469
 4795W        W23649   9.515   7.515  15.807  0.0050  0.1812 -0.0549
 4796W        W23650  13.391   7.371  11.609 -0.2980  0.0987  0.1065
 4797W        W23651  17.567   4.277  11.532 -0.0693 -0.0555  0.0210
 4798W        W23652   3.436  16.663   0.217 -0.1997  0.0780 -0.1640
 4799W        W23653   0.884  12.841   2.950  0.1001 -0.1109  0.1936
 4800W        W23654   3.011   9.882  13.766  0.0706  0.2457 -0.0535
 4801W        W23655   6.139  17.271   5.730  0.0045 -0.2689 -0.0779
 4802W        W23656  15.777   0.600  15.693 -0.0594 -0.0321 -0.0151
 4803W        W23657   9.573   0.646   0.285  0.0566  0.1970 -0.1037
 4804W        W23658   1.840   7.328  11.188 -0.1554  0.0293  0.0013
 4805W        W23659  11.439   6.898   4.015 -0.3505  0.2550  0.0990
 4806W        W23660  17.769  16.901  14.507 -0.0581 -0.0484  0.1652
 4807W        W23661   0.482  12.046   2.124 -0.3351  0.1864 -0.3059
 4808W        W23662  17.338  14.370  11.518  0.0880 -0.0182 -0.0019
 4809W        W23663   2.519  12.298   4.074 -0.1895 -0.2649  0.1836
 4810W        W23664  17.184   9.419  14.190 -0.0403  0.0448 -0.3009
 4811W        W23665  16.615   9.818   2.432  0.2323  0.1704 -0.1410
 4812W        W23666  14.239   8.650   2.915 -0.0343  0.0201 -0.1249
 4813W        W23667  13.099   0.847   2.618 -0.1473  0.2930  0.1171
 4814W        W23668  12.883  13.613   0.899 -0.1895 -0.3073 -0.3279
 4815W        W23669   2.997   7.137   4.668  0.0942 -0.0143  0.0336
 4816W        W23670   9.972  13.356   1.976  0.0661  0.0753  0.1736
 4817W        W23671   0.386   0.175   0.347  0.2605  0.0220 -0.2271
 4818W        W23672  15.468   2.074   4.923  0.2754  0.1478 -0.1460
 4819W        W23673  13.738  13.473   2.074  0.0363  0.1497 -0.1244
 4820W        W23674  12.040  11.062  13.122 -0.1915  0.0987  0.0622
 4821W        W23675   2.332   2.099  12.019 -0.1839  0.3398 -0.1857
 4822W        W23676   1.902  13.584   1.053  0.1315  0.1207  0.1785
 4823W        W23677  18.012  12.288   2.012 -0.1454  0.0063 -0.0526
 4824W        W23678   2.760   9.008   2.160 -0.2592  0.0747  0.1200
 4825W        W23679   9.969   8.519  14.034 -0.3140  0.2718  0.3116
 4826W        W23680   2.312  13.436  14.183 -0.1961 -0.1705  0.0852
 4827W        W23681   6.717  14.794  12.886  0.1179  0.1285 -0.0731
 4828W        W23682  12.308   5.039  15.380 -0.0488 -0.1711  0.0468
 4829W        W23683   5.349  11.821   3.605 -0.0900  0.1670 -0.0568
 4830W        W23684   9.889  10.957  15.322  0.1921 -0.2365  0.0296
 4831W        W23685   0.630   5.167  15.878  0.0616 -0.2436  0.3258
 4832W        W23686  17.663  12.142  15.643 -0.1938  0.3693  0.2116
 4833W        W23687   9.928  11.058   1.395 -0.1210 -0.3562  0.0907
 4834W        W23688   7.278   8.218  16.160 -0.0679  0.0617  0.0421
 4835W        W23689   4.595  10.362   3.702 -0.1020 -0.1267  0.2515
 4836W        W23690  13.909  12.185  14.625  0.1065 -0.0372  0.0098
 4837W        W23691  12.458  11.761   1.786 -0.4371 -0.1588 -0.2394
 4838W        W23692  15.125   6.103  11.383 -0.1204 -0.1738  0.1514
 4839W        W23693  14.094   1.758   0.099 -0.0589 -0.2915  0.0360
 4840W        W23694   3.223   5.574   2.135 -0.0294  0.1397  0.0694
 4841W        W23695   3.737  15.202  12.330  0.1682 -0.0200 -0.0023
 4842W        W23696   8.634   7.446  11.379  0.2632 -0.1019 -0.3446
 4843W        W23697  17.229  16.408   3.580 -0.0324  0.1333 -0.2733
 4844W        W23698   0.326  10.889  14.770  0.0724 -0.0910 -0.0621
 4845W        W23699   7.626   3.125  13.450  0.3236  0.0053  0.0588
 4846W        W23700   9.137  17.429   3.557 -0.0900  0.1119 -0.1625
 4847W        W23701  12.743  16.321   4.366 -0.3857  0.1849 -0.0649
 4848W        W23702   1.444  15.685   4.284 -0.0092 -0.1124 -0.0238
 4849W        W23703   8.893  10.102  13.562  0.0626  0.0125 -0.0191
 4850W        W23704   7.446   0.639  15.438 -0.0094 -0.2016 -0.1670
 4851W        W23705  11.173  10.451   1.297 -0.0361  0.1508 -0.0366
 4852W        W23706   2.439  13.359   0.835  0.2611  0.2179 -0.3748
 4853W        W23707   0.050   4.809  10.325 -0.0148  0.0350 -0.0156
 4854W        W23708   1.154  15.527   0.546  0.0751 -0.0942  0.1466
 4855W        W23709  13.343   5.449   3.883  0.0079  0.1455 -0.0698
 4856W        W23710  17.215  13.798   4.595  0.0928 -0.1045  0.3753
 4857W        W23711   4.565   1.466   0.139  0.0715 -0.0674  0.0105
 4858W        W23712  12.823  10.006   5.025  0.2076 -0.1473  0.0881
 4859W        W23713   8.489   2.195  12.059  0.1625 -0.1016 -0.0740
 4860W        W23714   6.439  12.187  14.893  0.2645  0.1312  0.2219
 4861W        W23715  14.897   8.395   1.025  0.2930  0.2668 -0.0397
 4862W        W23716  10.495  12.110   1.848 -0.0725 -0.0261 -0.2027
 4863W        W23717  10.178   6.268   0.343 -0.3264 -0.2788  0.2200
 4864W        W23718   8.054   3.389   0.415 -0.1962 -0.1975  0.0170
 4865W        W23719  16.052   6.172   0.034  0.3764  0.2307  0.2277
 4866W        W23720  14.207   7.817   3.148  0.2110 -0.0500 -0.4968
 4867W        W23721   9.325  16.819  14.169 -0.0667 -0.1443 -0.1197
 4868W        W23722  10.499   2.432  13.527 -0.0076  0.2827  0.0240
 4869W        W23723   9.738   8.235   0.922 -0.0523  0.2491  0.0298
 4870W        W23724   6.370   5.074   3.037  0.3264  0.0751 -0.1166
 4871W        W23725  14.366  12.125  14.853 -0.2094  0.0305 -0.0061
 4872W        W23726   0.927  13.584   5.847  0.0039  0.0455 -0.3177
 4873W        W23727  10.306  11.038   0.463  0.0708 -0.1750  0.1682
 4874W        W23728   4.593   3.703   1.703  0.1864 -0.2595 -0.2420
 4875W        W23729   5.982  10.016   5.439 -0.1673  0.1636 -0.0282
 4876W        W23730   7.493   0.970  15.828 -0.2426  0.0561  0.2249
 4877W        W23731  11.493  10.483  12.476 -0.2085  0.0127  0.2455
 4878W        W23732   4.208   2.746   0.238  0.1872  0.0066  0.2294
 4879W        W23733   6.911  17.330  14.596  0.0581 -0.3216  0.0037
 4880W        W23734  11.021   8.399   4.417  0.2280 -0.1671  0.0160
 4881W        W23735  15.838   1.791   0.395 -0.2347  0.1297  0.2567
 4882W        W23736  16.477   0.715   0.824  0.1042 -0.2602  0.3100
 4883W        W23737  14.761  14.173   3.803 -0.1513  0.1494  0.1582
 4884W        W23738   3.566   5.138   3.283 -0.0474 -0.0261  0.1023
 4885W        W23739   1.926   7.604  11.617 -0.0231 -0.0268  0.2031
 4886W        W23740   1.829  16.140  13.788 -0.1241  0.2520  0.1092
 4887W        W23741   4.010   0.744  14.196  0.5227  0.2227 -0.2510
 4888W        W23742  13.320   3.191   2.708 -0.2371 -0.0101  0.3934
 4889W        W23743  10.001  11.741  14.729 -0.2047  0.3021 -0.2119
 4890W        W23744  11.168   0.416   3.020 -0.0702 -0.2698  0.1482
 4891W        W23745   5.949   5.121   2.703  0.1605  0.3020  0.0743
 4892W        W23746  17.010   0.655   2.102  0.2425 -0.1813  0.0545
 4893W        W23747   2.182   0.720  11.948 -0.0058  0.1953 -0.2527
 4894W        W23748   4.423   4.755  11.655 -0.3644 -0.0917  0.1188
 4895W        W23749  11.372   2.645   1.587 -0.0167  0.0090  0.2940
 4896W        W23750   5.430   9.769   4.270  0.1872 -0.1410 -0.1774
 4897W        W23751   9.782  16.904  11.299 -0.3806  0.2489  0.3513
 4898W        W23752  13.337  12.021   3.329 -0.0065 -0.2757  0.1094
 4899W        W23753   9.555  15.778   4.304 -0.3285 -0.1939 -0.2033
 4900W        W23754   4.907   0.456   2.079 -0.1964 -0.1160 -0.0280
 4901W        W23755   1.744   0.836  13.642 -0.3393  0.1524 -0.0194
 4902W        W23756   4.074  10.732  13.727 -0.2129 -0.0230  0.1708
 4903W        W23757  12.332  11.565  11.430 -0.1473  0.3400  0.2230
 4904W        W23758   5.932  13.244   1.526  0.1619  0.2179 -0.1399
 4905W        W23759  15.782   6.546   2.180  0.1721 -0.0791 -0.1141
 4906W        W23760  12.076   4.221   1.966 -0.0579 -0.1452 -0.5982
 4907W        W23761   2.400   3.275  12.330 -0.0556 -0.1891 -0.0407
 4908W        W23762  13.332  14.386   4.532  0.1038 -0.2469 -0.1106
 4909W        W23763   2.273  15.420   2.586  0.1088 -0.0829 -0.1260
 4910W        W23764   6.585   9.747  12.089 -0.0596  0.0469  0.0062
 4911W        W23765   6.750   8.176  12.787 -0.2338  0.0108 -0.0347
 4912W        W23766   7.837   6.395   4.199 -0.1266 -0.0353 -0.2014
 4913W        W23767   2.489   6.285   2.518 -0.3071  0.1060  0.3222
 4914W        W23768   3.759   6.909   4.807  0.1940  0.0100 -0.1650
 4915W        W23769  14.161   9.059  14.657 -0.1553  0.2469  0.0928
 4916W        W23770  10.056  14.668   4.023  0.1814  0.0497 -0.3405
 4917W        W23771  13.294   9.547   4.452 -0.1770 -0.1553 -0.2514
 4918W        W23772   5.411   6.950   1.567 -0.0996  0.3893  0.1453
 4919W        W23773   4.610   9.158  13.935  0.0421 -0.5213  0.0169
 4920W        W23774  14.198   5.031  15.437 -0.3284  0.0790  0.1694
 4921W        W23775  11.255   7.199  15.492  0.0576  0.1435 -0.0949
 4922W        W23776  12.341   6.088   1.896 -0.1558  0.2064 -0.1229
 4923W        W23777  17.843   7.702   1.359 -0.0785 -0.1417  0.0687
 4924W        W23778  11.399   5.322   4.667 -0.1596 -0.0134  0.0654
 4925W        W23779  16.943  11.668  13.185  0.0103  0.1254 -0.0433
 4926W        W23780   1.499   7.585  14.791  0.2217 -0.2064  0.3881
 4927W        W23781   8.748  11.968  12.946  0.0896  0.0705  0.3579
 4928W        W23782  15.637   7.790  12.659  0.1047 -0.0677  0.0647
 4929W        W23783  13.868   5.829   5.022  0.3038 -0.1663 -0.2014
 4930W        W23784  15.748   2.380  15.737 -0.1476 -0.0238  0.1046
 4931W        W23785   7.733   9.839  12.941  0.0463 -0.2122 -0.1150
 4932W        W23786   1.326   6.929   2.777  0.0861  0.0945 -0.3561
 4933W        W23787  15.636   2.836   2.151 -0.1386  0.0286 -0.0729
 4934W        W23788  16.946  15.608   3.363  0.1294  0.3702 -0.1500
 4935W        W23789   5.385   1.237  11.077  0.0937 -0.1503  0.1731
 4936W        W23790   9.743  15.790   3.180  0.0672  0.0320 -0.2294
 4937W        W23791  17.831   8.332   4.207 -0.0008 -0.1273 -0.0037
 4938W        W23792   3.879  13.337   0.008  0.0324 -0.0202 -0.0231
 4939W        W23793   7.310  12.795   1.109  0.3809 -0.2085 -0.0801
 4940W        W23794   5.527  10.762  14.713 -0.0663 -0.1154  0.0885
 4941W        W23795   0.170   1.267   2.242 -0.2721 -0.0212 -0.2878
 4942W        W23796   8.807  15.706  14.128 -0.0225  0.0900 -0.2945
 4943W        W23797   3.315  10.736  12.409 -0.1026  0.1719 -0.1844
 4944W        W23798  15.528  10.181   0.212 -0.2335  0.2324 -0.1039
 4945W        W23799   2.145  12.172  14.324  0.0082 -0.0442  0.0082
 4946W        W23800  14.933   7.169   1.479  0.1115  0.0365  0.0636
 4947W        W23801   3.798  11.899  11.969  0.0152 -0.2192  0.1117
 4948W        W23802  14.930   6.301   2.715 -0.0278 -0.1087 -0.1018
 4949W        W23803   1.728   9.847  15.080 -0.0431  0.1559  0.0319
 4950W        W23804   5.133  10.456   0.301  0.1414 -0.2149 -0.3723
 4951W        W23805  14.430  14.100   0.948 -0.4077  0.1290  0.1285
 4952W        W23806   2.581   6.611   0.369  0.0214  0.4667  0.0072
 4953W        W23807  12.397  14.591   2.060  0.0752  0.1503  0.0634
 4954W        W23808   8.336   9.350  12.485  0.1610  0.0114 -0.2529
 4955W        W23809   8.060  10.481  15.052 -0.1641  0.1690  0.0354
 4956W        W23810  12.258   1.126   0.597  0.1728 -0.0471 -0.0704
 4957W        W23811  13.301  10.900   5.168 -0.0444 -0.1590 -0.1212
 4958W        W23812   1.083   2.286  15.736  0.1255  0.1492 -0.0537
 4959W        W23813  12.619   5.702  14.920  0.0512 -0.0338  0.2424
 4960W        W23814  10.176  12.501  15.289  0.0022 -0.0672 -0.1104
 4961W        W23815   9.723  11.893   5.078  0.1281 -0.0785  0.6705
 4962W        W23816  11.900   4.573  12.627 -0.1335 -0.2572 -0.1249
 4963W        W23817   7.107   8.660  12.656 -0.1070 -0.0516 -0.1781
 4964W        W23818   6.464  17.609   2.729  0.1118 -0.1487  0.0064
 4965W        W23819   3.339   7.113  16.114  0.2492 -0.2991 -0.0502
 4966W        W23820  16.592  15.718   0.228 -0.0125 -0.1235 -0.1190
 4967W        W23821  12.286   2.403   0.401 -0.3531  0.0902 -0.1482
 4968W        W23822  16.906   2.800   0.070 -0.4036 -0.0736 -0.0731
 4969W        W23823  15.012   3.814   2.587 -0.2731  0.0113 -0.0597
 4970W        W23824   7.668  14.771   3.237 -0.2641 -0.2273 -0.1786
 4971W        W23825  17.310  13.927   0.356  0.0373 -0.1502  0.0596
 4972W        W23826   0.474   4.088  16.068 -0.0162 -0.6100 -0.1714
 4973W        W23827  17.203  10.623  11.884  0.0648 -0.0819 -0.0017
 4974W        W23828   5.264   4.623   1.218  0.0023  0.2643 -0.1419
 4975W        W23829  10.143   4.448  10.966 -0.2140 -0.2072  0.0335
 4976W        W23830   1.938  15.820  13.149 -0.1584 -0.2394 -0.3123
 4977W        W23831  12.490   1.263  14.675 -0.0000 -0.0204 -0.1892
 4978W        W23832   8.151   1.057   3.506  0.1358 -0.1557  0.0406
 4979W        W23833   7.249  12.372  10.893 -0.2237  0.2057  0.0773
 4980W        W23834   5.925  13.607  12.624 -0.0217 -0.0591 -0.0032
 4981W        W23835  12.938  11.849  14.056 -0.2542  0.0403  0.0402
 4982W        W23836  12.842  10.597  13.297  0.2299  0.0139  0.0894
 4983W        W23837   0.424   1.246   1.803 -0.2119  0.0318  0.0341
 4984W        W23838   1.912   5.893  13.805  0.1319 -0.0958 -0.1734
 4985W        W23839  12.517  12.999   1.173  0.1743 -0.0172 -0.0070
 4986W        W23840  13.850  10.223   2.156  0.1380 -0.1492 -0.0953
 4987W        W23841   2.131   0.002   2.703 -0.1432  0.0471 -0.3079
 4988W        W23842   0.111   9.367   0.276 -0.0415 -0.0257  0.2119
 4989W        W23843   9.866   8.608  13.508  0.1018  0.3630  0.1005
 4990W        W23844   7.363  11.158   6.016  0.0869 -0.1438  0.0040
 4991W        W23845  10.381  13.416  12.700  0.2146  0.0817  0.0059
 4992W        W23846   1.975  17.410  12.145 -0.2987 -0.2724 -0.0009
 4993W        W23847  16.651   2.048  11.733  0.3879 -0.1177  0.0409
 4994W        W23848   5.621   0.003  11.782  0.2020  0.0798  0.1434
 4995W        W23849  12.341   3.694  11.987  0.2320  0.3444 -0.2216
 4996W        W23850  10.420   4.214   3.037 -0.1715  0.1236 -0.0702
 4997W        W23851   7.212  13.809  13.864  0.0359 -0.0904  0.0340
 4998W        W23852   8.133   9.780  14.854 -0.0559  0.1082  0.0419
 4999W        W23853  16.248   3.733   2.487  0.0836  0.1073  0.0009
 5000W        W23854   3.691  12.744   4.490 -0.2575  0.0384  0.0144
 5001W        W23855   4.898   8.428  11.269 -0.0474  0.3506  0.0652
 5002W        W23856   1.844  11.664   0.649 -0.3491  0.0709  0.1663
 5003W        W23857   3.618  11.249   0.487  0.0105 -0.0890 -0.0368
 5004W        W23858  13.742  15.597   4.321 -0.0016  0.0095 -0.2751
 5005W        W23859  16.775  11.754   0.538 -0.1161 -0.1837 -0.1021
 5006W        W23860  17.307  17.594  12.046 -0.2332 -0.2455 -0.1292
 5007W        W23861   9.522   0.588   3.810  0.2123  0.1231  0.0585
 5008W        W23862   8.216   5.951   1.999 -0.0944  0.2691  0.1399
 5009W        W23863   4.761  16.892  15.249 -0.0090  0.4593 -0.1218
 5010W        W23864   9.498   0.863  15.776  0.4361  0.1270 -0.3332
 5011W        W23865   0.454  15.817  11.292  0.0520 -0.0364  0.2009
 5012W        W23866  16.738   0.298  13.025 -0.1326  0.1782  0.2026
 5013W        W23867  17.146   5.422   0.353  0.1899  0.4354 -0.1248
 5014W        W23868   3.357  10.194  13.129 -0.2708  0.0186 -0.2738
 5015W        W23869  12.658   5.215   2.397 -0.0017  0.2327  0.0809
 5016W        W23870   7.976   9.000  14.491 -0.0663 -0.0968 -0.2410
 5017W        W23871  17.012   0.808   3.327 -0.0175  0.4119 -0.2351
 5018W        W23872  11.866  12.495  15.336 -0.0861  0.0077  0.2672
 5019W        W23873  12.292   0.745  15.664  0.0297 -0.3484  0.0583
 5020W        W23874  10.035   0.007  15.998 -0.0528  0.2417  0.0282
 5021W        W23875   9.826   9.593   0.789 -0.1466  0.1757  0.0404
 5022W        W23876   3.684  10.819  11.043 -0.2899  0.0438 -0.2474
 5023W        W23877   8.130  15.047   4.238  0.0927 -0.0623 -0.1185
 5024W        W23878   4.560  16.884  13.105  0.0424 -0.1892  0.3138
 5025W        W23879  13.817  10.375   3.354 -0.0104 -0.1752  0.2504
 5026W        W23880  16.698   2.071   0.529 -0.1048  0.2118 -0.1112
 5027W        W23881   7.478  10.970   1.261  0.1775 -0.0353 -0.0143
 5028W        W23882  12.894   6.350   1.633 -0.0262  0.1516 -0.2794
 5029W        W23883   1.919  10.387   1.312 -0.0913 -0.0383  0.3605
 5030W        W23884   5.848  11.547  11.037  0.2185 -0.3222  0.0064
 5031W        W23885   2.616   3.870   2.785 -0.0844  0.1111  0.1088
 5032W        W23886   2.762   1.431  14.982 -0.0605 -0.2787 -0.0158
 5033W        W23887   9.978   5.601   1.848 -0.1487 -0.1536 -0.1056
 5034W        W23888  15.152   2.747   4.074  0.2226 -0.1446 -0.2037
 5035W        W23889  17.677   2.590   3.886 -0.0373  0.0937  0.1967
 5036W        W23890  16.785   1.591   0.277 -0.1343  0.0726  0.0685
 5037W        W23891   6.252  10.398  11.534 -0.0637  0.2821 -0.1780
 5038W        W23892   7.985  13.012   0.548  0.3049 -0.0280  0.1387
 5039W        W23893   5.901   0.146   2.791  0.1095 -0.0528 -0.0909
 5040W        W23894   6.704   6.820   2.210  0.0843  0.1315  0.1395
 5041W        W23895   7.085   0.272   2.628  0.4832  0.1307  0.2142
 5042W        W23896  10.760   7.449  11.322 -0.0351  0.2883  0.0550
 5043W        W23897  13.372  13.839   2.929 -0.1224  0.0494 -0.0495
 5044W        W23898   5.813   0.994   5.296  0.1673  0.0631  0.0959
 5045W        W23899  15.720   1.023   4.105 -0.1683 -0.3734  0.2305
 5046W        W23900  15.743   0.378   1.311  0.1044  0.2350 -0.2249
 5047W        W23901   0.301   9.256   4.153  0.0851 -0.3454  0.0711
 5048W        W23902  16.667   0.694   0.376 -0.2181 -0.2530  0.0734
 5049W        W23903  12.201   5.467   3.354  0.2181  0.0133  0.1959
 5050W        W23904   7.137   0.927  15.071 -0.2145  0.0643 -0.3602
 5051W        W23905  14.722  10.909   1.442 -0.0787  0.2876 -0.2025
 5052W        W23906   8.828   5.321  12.101  0.0714  0.1281  0.0327
 5053W        W23907  13.095   7.031   3.830  0.2850  0.1355 -0.1268
 5054W        W23908   7.054   2.327  13.949 -0.0331  0.2326 -0.2911
 5055W        W23909  17.232  10.954  11.215 -0.0348  0.0431 -0.2083
 5056W        W23910   7.599   4.641   4.184  0.0644  0.2341  0.0346
 5057W        W23911   1.401   7.336   4.167  0.1158  0.2922 -0.0592
 5058W        W23912  15.264   0.120   4.118  0.2170  0.2063  0.2158
 5059W        W23913   1.066   1.341  13.838 -0.1180  0.0219 -0.0327
 5060W        W23914   2.889   0.599   0.200 -0.1303 -0.0338  0.2364
 5061W        W23915  13.663   8.632  12.546  0.2490  0.1589 -0.1102
 5062W        W23916   9.758   6.129   0.601 -0.0121  0.1749  0.0709
 5063W        W23917   0.719  14.952   5.104  0.2064  0.0646  0.1150
 5064W        W23918   9.651  15.922  14.743 -0.1462 -0.0605  0.0232
 5065W        W23919   4.381   0.465  11.463 -0.0814 -0.1255  0.0113
 5066W        W23920   6.357   2.091   2.679  0.0271  0.2379  0.0739
 5067W        W23921  17.699   9.595  15.808 -0.0634 -0.2300 -0.0543
 5068W        W23922   3.855  17.302  14.360 -0.2158  0.0932 -0.0233
 5069W        W23923   7.245   2.492   5.988 -0.5889  0.1314 -0.0226
 5070W        W23924   7.839   6.668  15.985 -0.0540 -0.0025 -0.2631
 5071W        W23925   6.216   7.365  12.652  0.1029 -0.0069  0.0174
 5072W        W23926  13.053  16.631  14.593  0.2936 -0.0126 -0.0439
 5073W        W23927  15.657   9.249   1.848 -0.3445  0.0806 -0.0129
 5074W        W23928  13.424   8.135   3.921 -0.2419  0.0466 -0.1947
 5075W        W23929   9.977  11.756  11.859  0.1985  0.2489 -0.1621
 5076W        W23930  15.862   6.242   0.979  0.0966 -0.2364  0.0854
 5077W        W23931   5.053   3.413   2.702  0.0043  0.2638 -0.2823
 5078W        W23932   1.656   3.607   2.686  0.0194 -0.0353 -0.1207
 5079W        W23933   7.699  17.607   4.727  0.2375  0.1363 -0.0206
 5080W        W23934   1.740   7.150   3.768 -0.1668  0.0657 -0.1335
 5081W        W23935   2.764  10.372  14.986 -0.0914  0.1889 -0.1952
 5082W        W23936   5.067   6.355   3.397 -0.1920  0.1079 -0.0955
 5083W        W23937   4.608   6.087   3.333  0.1952 -0.0609  0.2116
 5084W        W23938  17.659  17.897  11.908 -0.2548 -0.0663 -0.3121
 5085W        W23939   4.464  11.986   1.099 -0.2401  0.4827 -0.1964
 5086W        W23940   5.437   1.488   3.153  0.0284 -0.2920 -0.1605
 5087W        W23941  12.707  15.980  15.725  0.1093 -0.1744 -0.0411
 5088W        W23942  13.805  15.789  13.958  0.2206 -0.2446  0.2089
 5089W        W23943   0.637   4.669   1.980  0.2281  0.0014 -0.2016
 5090W        W23944   0.513   9.363  13.385  0.1076 -0.0868  0.2030
 5091W        W23945  12.738   0.008  15.836  0.0505  0.0021  0.2565
 5092W        W23946  16.800  15.638  11.538 -0.0551 -0.1912 -0.1678
 5093W        W23947   1.883   0.497  13.120 -0.2104 -0.0654  0.1537
 5094W        W23948   3.448   7.906   1.347 -0.1377 -0.0435  0.0476
 5095W        W23949  10.013  16.741  14.834  0.0527 -0.0861 -0.1941
 5096W        W23950   6.537  16.001   2.598  0.1701  0.2536 -0.1067
 5097W        W23951   4.677  16.435   4.542  0.0357 -0.0103 -0.0473
 5098W        W23952   2.150  14.977  13.298 -0.1682 -0.0816  0.0899
 5099W        W23953   4.975  16.434   2.583  0.1005  0.0503 -0.0155
 5100W        W23954  15.064   1.398   2.530  0.0123  0.4268 -0.1191
 5101W        W23955  10.919   1.205  12.575 -0.1842 -0.3444 -0.1583
 5102W        W23956   4.120  13.263   1.458 -0.2428  0.1360  0.0094
 5103W        W23957   8.240   0.478  12.858  0.2106 -0.1957  0.0820
 5104W        W23958   0.172   5.470   3.020 -0.1803  0.0221  0.0583
 5105W        W23959  13.869  14.381  12.705  0.0926  0.3656  0.0717
 5106W        W23960  11.763  17.167  13.397  0.0583 -0.1978  0.2806
 5107W        W23961  15.960  17.512   4.207 -0.0869  0.1399 -0.1514
 5108W        W23962  12.922   0.053   3.354 -0.1711 -0.1271  0.0293
 5109W        W23963  10.425  12.116  15.788  0.3262 -0.2132 -0.0121
 5110W        W23964   6.948   3.370   1.334 -0.0826 -0.2239  0.0005
 5111W        W23965   8.022  16.865  12.023 -0.1946  0.0232  0.1270
 5112W        W23966   8.884  15.656   5.197  0.0299  0.0961  0.3107
 5113W        W23967   3.364  16.824   4.848  0.2378  0.1342 -0.0314
 5114W        W23968   1.548  15.894  12.084 -0.0317 -0.2765  0.1867
 5115W        W23969  17.874   0.364  11.891 -0.5208 -0.0434 -0.1084
 5116W        W23970   0.255  15.890  14.927  0.0512  0.1743 -0.0621
 5117W        W23971  10.177   5.849   0.634  0.1487  0.0954 -0.1695
 5118W        W23972   9.773  15.825  12.125 -0.1870 -0.1431 -0.3169
 5119W        W23973   5.346   0.094  13.086  0.0249 -0.2205 -0.2507
 5120W        W23974  13.805  11.056  12.555 -0.0414  0.2547 -0.1313
 5121W        W23975   1.274   0.276  14.224 -0.1354  0.0682  0.1442
 5122W        W23976   0.473  11.400   4.695  0.0227  0.0082 -0.1045
 5123W        W23977   3.218  17.489   0.815  0.1909  0.2150 -0.3074
 5124W        W23978   0.078   0.351  14.101  0.3911 -0.1095  0.0000
 5125W        W23979   6.171   3.412   4.682 -0.2260 -0.2453 -0.0801
 5126W        W23980  10.609   5.201   3.858 -0.0062  0.1725 -0.2006
 5127W        W23981   4.080   8.619  14.305 -0.2371 -0.0928  0.2615
 5128W        W23982  11.973   8.367  16.008 -0.0746 -0.0037  0.4621
 5129W        W23983  16.888   5.955  14.169 -0.0743  0.0818 -0.1336
 5130W        W23984   5.637  10.200  11.950 -0.0757  0.0915 -0.3633
 5131W        W23985   5.425  14.818  15.308  0.1379 -0.1180  0.1083
 5132W        W23986   1.464  15.464  12.362  0.0534 -0.1043  0.3376
 5133W        W23987   6.708  10.376   4.460  0.2961 -0.1852 -0.0879
 5134W        W23988  12.491  17.686  12.437  0.1780 -0.3269 -0.0769
 5135W        W23989   2.502   2.178  13.324 -0.1659 -0.0445  0.2487
 5136W        W23990   7.814  15.986  14.563 -0.2427 -0.2288 -0.1969
 5137W        W23991   9.270   5.758  11.857  0.1081 -0.1271 -0.3347
 5138W        W23992   3.214  17.230   0.321  0.5079  0.0920 -0.0586
 5139W        W23993  10.951   2.897  13.314 -0.1008 -0.3640 -0.0887
 5140W        W23994   1.340  13.474  15.080 -0.0312 -0.0058  0.4541
 5141W        W23995  17.179  17.114   4.718 -0.2806 -0.2130  0.1168
 5142W        W23996   5.452   3.847  12.088 -0.0061 -0.0741  0.1392
 5143W        W23997   8.806   4.962   4.067  0.0510 -0.0173  0.1248
 5144W        W23998  16.677   4.371  11.405 -0.0531 -0.1822  0.1800
 5145W        W23999  12.965   4.933  14.602  0.1326  0.0766  0.0278
 5146W        W24000  14.511  15.038  14.033 -0.1282  0.1692  0.1613
 5147W        W24001  11.345  16.169   0.994  0.0858  0.3020 -0.0224
 5148W        W24002  11.673   5.682   2.636 -0.0545 -0.3399 -0.1582
 5149W        W24003  16.836   3.732   0.751 -0.2307  0.1944  0.2352
 5150W        W24004   1.891  16.237  12.290 -0.2512 -0.1750  0.2822
 5151W        W24005   8.931  13.332  14.126 -0.4096  0.1487  0.1322
 5152W        W24006   3.083  11.652  12.648  0.0270 -0.1013  0.0595
 5153W        W24007  11.112  11.354  11.574  0.0237 -0.1137 -0.3271
 5154W        W24008  13.483   9.607   2.743  0.3031  0.1258  0.0007
 5155W        W24009  11.028   8.439  14.477 -0.2171  0.0911 -0.1216
 5156W        W24010   4.629   3.631   4.033 -0.2637 -0.3375  0.2586
 5157W        W24011   0.209  17.025  13.517 -0.0009 -0.1267 -0.0646
 5158W        W24012  10.409  11.163   1.194  0.3077 -0.3201 -0.0442
 5159W        W24013  11.090  16.997   0.652 -0.1993  0.0680  0.1014
 5160W        W24014   7.718   6.333  11.645  0.0128 -0.0773  0.0639
 5161W        W24015  14.092   3.891   3.862  0.0589  0.1212 -0.0223
 5162W        W24016  11.743   8.833   1.797 -0.2131 -0.2496  0.0555
 5163W        W24017   6.588  13.258  13.664 -0.2559  0.0538 -0.6509
 5164W        W24018   4.503  10.798   2.648  0.1558 -0.0160 -0.3350
 5165W        W24019  13.208   9.978   4.703 -0.2722  0.0447  0.2419
 5166W        W24020   7.813   8.929   4.188  0.0183 -0.0435  0.1032
 5167W        W24021  12.016  16.819  12.742 -0.1130  0.3281 -0.3247
 5168W        W24022   8.834  16.964  13.404  0.0355  0.1650  0.2764
 5169W        W24023   5.772   7.731  13.364  0.2616 -0.1048  0.1239
 5170W        W24024  11.895   1.816  14.864  0.1362 -0.2361 -0.0048
 5171W        W24025   0.465   4.161   3.060  0.1324 -0.1339 -0.0314
 5172W        W24026   8.559   6.201  15.790  0.1941 -0.2157 -0.2874
 5173W        W24027   1.752   5.119  15.224 -0.2711 -0.0301 -0.0607
 5174W        W24028   8.640   5.369  15.427 -0.0568  0.1669  0.3024
 5175W        W24029   6.493   2.782  12.985 -0.2906  0.2279 -0.2358
 5176W        W24030  13.708  15.615   0.809 -0.0437 -0.3175  0.2829
 5177W        W24031  15.913   0.837  11.943  0.0376 -0.3675  0.0086
 5178W        W24032  15.223  17.094   5.528 -0.0679  0.0550  0.2893
 5179W        W24033  12.737   1.786  11.656 -0.1614 -0.1649  0.1439
 5180W        W24034   0.289  11.670  15.338  0.1381  0.2061 -0.3685
 5181W        W24035  10.346  16.391   4.368  0.1613  0.1065  0.1588
 5182W        W24036  17.294   0.989  15.133 -0.1043 -0.2157  0.1584
 5183W        W24037   4.184  17.901   2.327  0.1409 -0.1404  0.0532
 5184W        W24038   4.656   5.408  12.965 -0.3039 -0.0400 -0.0056
 5185W        W24039  15.528  10.104   3.697 -0.4001  0.2686  0.0665
 5186W        W24040  16.963   0.234  14.720 -0.0257  0.0719 -0.0793
 5187W        W24041   8.881   1.536  11.831 -0.1807 -0.0426  0.2099
 5188W        W24042   2.992   1.966  15.888 -0.1824  0.0101 -0.0295
 5189W        W24043  11.463  15.541  14.954 -0.1336  0.0229  0.1165
 5190W        W24044   2.619  12.742   2.093  0.0978 -0.0860 -0.0511
 5191W        W24045  12.620   7.005   2.857  0.2454  0.1912 -0.0230
 5192W        W24046  14.139  16.967   1.656  0.2155 -0.0479  0.0798
 5193W        W24047  11.534   0.858  15.511 -0.0752 -0.3659  0.0746
 5194W        W24048   8.098  13.888   2.271 -0.1685  0.1644  0.0088
 5195W        W24049  15.509   1.815   2.682  0.1897  0.0529 -0.0143
 5196W        W24050   8.108   1.356  12.993 -0.1873  0.0233  0.0570
 5197W        W24051  12.425   7.209   1.623  0.3030 -0.0919  0.0045
 5198W        W24052   5.559  14.176   1.643  0.2262 -0.3322 -0.0493
 5199W        W24053   2.852  17.291   1.470  0.1088 -0.0635 -0.0229
 5200W        W24054  13.155   5.398   2.538 -0.1744  0.0879 -0.0761
 5201W        W24055   6.900  15.359  11.099 -0.0237 -0.0409  0.0469
 5202W        W24056   0.536   5.104   1.030  0.2227 -0.0325 -0.1457
 5203W        W24057   0.134  11.679   3.444 -0.3101  0.0930 -0.2650
 5204W        W24058  17.067  17.502  12.489 -0.1196  0.0606  0.2268
 5205W        W24059  13.205   0.451   0.288 -0.0054 -0.2027  0.2638
 5206W        W24060  16.380  16.766  15.912 -0.1801  0.0199 -0.0608
 5207W        W24061   8.348   6.933  14.449  0.4117  0.1022 -0.0985
 5208W        W24062  11.493   7.391   0.102  0.2646 -0.2170 -0.2104
 5209W        W24063   8.684   3.307  12.858 -0.0398 -0.2043  0.1849
 5210W        W24064  12.714   4.810   3.661 -0.2861 -0.1331  0.1651
 5211W        W24065   0.542   2.658   4.590 -0.0304 -0.3080 -0.1515
 5212W        W24066   9.065   4.003   0.246  0.1657 -0.0061  0.1164
 5213W        W24067  15.027   8.567  12.161 -0.2219  0.2449  0.2585
 5214W        W24068  15.313   4.968   4.773  0.1244  0.2261 -0.1804
 5215W        W24069  12.320  11.511  15.730  0.1044 -0.0472  0.0801
 5216W        W24070  14.843  10.712  10.284 -0.0050  0.0966 -0.2186
 5217W        W24071   5.179  12.068  12.491  0.2161 -0.0905 -0.1039
 5218W        W24072  16.521  13.137  13.173 -0.0782 -0.1487  0.3488
 5219W        W24073   2.435   7.499  13.861  0.4907 -0.0248 -0.3036
 5220W        W24074   1.533   7.562   0.716  0.1422 -0.1980 -0.3319
 5221W        W24075  13.476  17.692   1.768 -0.0664  0.1232  0.2001
 5222W        W24076   8.187   7.203   3.771  0.2529 -0.0517  0.0646
 5223W        W24077  13.840   9.520  15.065  0.0425 -0.1762 -0.0253
 5224W        W24078   0.187   1.278  14.145  0.3282  0.1205 -0.0929
 5225W        W24079   4.558   3.794  12.083  0.0214  0.2496  0.0623
 5226W        W24080   5.138   4.289   3.035 -0.0846 -0.0148 -0.1339
 5227W        W24081  15.303  15.477  13.476  0.0059  0.2204  0.0925
 5228W        W24082  18.024   6.253  10.983  0.1604  0.0458 -0.0151
 5229W        W24083   6.881   3.777  10.946 -0.2796 -0.1199 -0.3179
 5230W        W24084  16.059   9.177   1.118 -0.2691 -0.2751  0.1489
 5231W        W24085  14.516   0.400  14.721  0.1534 -0.2067 -0.2186
 5232W        W24086   9.301   0.149  13.304  0.1365 -0.3323 -0.5060
 5233W        W24087  17.364  16.746  11.638 -0.2521  0.1367 -0.0232
 5234W        W24088   9.536  11.906  12.008 -0.0699  0.4339 -0.1108
 5235W        W24089   8.966  10.158   1.433 -0.1181 -0.1068  0.2203
 5236W        W24090   4.290   5.409  13.344 -0.0083  0.0293 -0.0505
 5237W        W24091  13.081   3.267   1.061 -0.2201  0.2904  0.0074
 5238W        W24092  13.438   0.159   3.413  0.0576 -0.0217 -0.0607
 5239W        W24093   0.698  16.837  13.525 -0.2236 -0.1259  0.0417
 5240W        W24094   6.672   2.276  14.810 -0.0013  0.0891 -0.2163
 5241W        W24095   9.264  14.494   4.851 -0.0370  0.2386 -0.0642
 5242W        W24096   2.159   7.770  11.133  0.1754  0.2291 -0.0867
 5243W        W24097  13.330   6.980  13.179  0.1363 -0.0332  0.1334
 5244W        W24098   0.508   7.173   1.834  0.1199  0.2690  0.1529
 5245W        W24099   8.273   9.590  12.074 -0.2223 -0.0360  0.0906
 5246W        W24100   6.567  11.507  12.760  0.2564  0.0968  0.0126
 5247W        W24101  10.717   0.930   2.017 -0.4106  0.0251  0.1274
 5248W        W24102   1.708   1.030   1.048 -0.2762 -0.1283 -0.0706
 5249W        W24103   2.453   4.162  11.275 -0.1440  0.2435  0.0025
 5250W        W24104   3.664  14.708  12.178 -0.0422 -0.1016 -0.0166
 5251W        W24105  17.436   8.080  14.184  0.0146  0.0878 -0.1267
 5252W        W24106   2.378   2.704   4.655 -0.0052  0.1176 -0.2074
 5253W        W24107   8.345   7.564   1.629  0.0399 -0.1159  0.1179
 5254W        W24108   5.780   2.001   1.028 -0.1267  0.0182 -0.0457
 5255W        W24109   7.495   7.922   4.069  0.0937 -0.0893 -0.0553
 5256W        W24110   8.997   0.041  14.791 -0.4234 -0.1469  0.1712
 5257W        W24111   6.123   4.536  12.279  0.1723 -0.0573  0.1814
 5258W        W24112   6.322  17.378  12.217  0.1569  0.2022  0.1940
 5259W        W24113   7.779  14.659  13.076 -0.2070  0.0778 -0.0549
 5260W        W24114  12.773  10.071  13.773 -0.1766  0.0218  0.0473
 5261W        W24115  12.374  10.577   0.181  0.2243 -0.0116  0.1329
 5262W        W24116   2.624  13.204  15.058  0.3047  0.0545  0.1847
 5263W        W24117  17.447   0.849   0.397  0.0601  0.1764  0.2501
 5264W        W24118   2.716   7.364   3.543 -0.0564  0.1687  0.1413
 5265W        W24119  10.760  16.603   1.621 -0.3278  0.0459  0.0215
 5266W        W24120  13.300  17.506   4.624 -0.1503 -0.1055  0.1790
 5267W        W24121  10.251   2.296   0.694  0.2509  0.1812 -0.0892
 5268W        W24122  17.506   1.591  12.006 -0.1549  0.0877 -0.1605
 5269W        W24123   1.409   4.032  16.020  0.3102  0.1233 -0.1156
 5270W        W24124   9.841   9.605  14.103 -0.2522 -0.2188  0.2471
 5271W        W24125  11.971  11.498  14.395 -0.3123  0.2140 -0.0068
 5272W        W24126   5.219  13.923  12.074 -0.1158 -0.4678  0.1228
 5273W        W24127  14.901   0.426  11.592  0.1160 -0.0621  0.0520
 5274W        W24128   2.691  13.511   2.598 -0.1003 -0.0388 -0.0431
 5275W        W24129  10.728   7.414   3.673  0.0397  0.1345 -0.1505
 5276W        W24130   3.427   7.966   4.784 -0.1058 -0.1752  0.4243
 5277W        W24131   9.066  17.338   1.680  0.1815  0.2303 -0.1351
 5278W        W24132  11.675   9.086  15.210 -0.2732  0.1398  0.1682
 5279W        W24133   1.903   4.277  14.034 -0.3358  0.0589 -0.0831
 5280W        W24134   1.899   5.420   3.419 -0.0951 -0.2067  0.1685
 5281W        W24135   7.926  15.800  14.005 -0.0832  0.1777  0.2069
 5282W        W24136   7.785  13.540   3.087 -0.0821 -0.0502 -0.1866
 5283W        W24137  16.971   4.172   0.888 -0.1197 -0.2065 -0.0509
 5284W        W24138   9.074   1.945   1.550  0.0176 -0.0283  0.0946
 5285W        W24139   2.268  14.974  11.544  0.1672 -0.0565  0.1310
 5286W        W24140  15.377  17.911   1.170  0.0575 -0.3140 -0.1200
 5287W        W24141   6.964   5.073   2.170  0.1643  0.0638 -0.0835
 5288W        W24142  10.564  16.539   3.874 -0.0801 -0.1221  0.2011
 5289W        W24143   8.479  17.055  12.165  0.0370  0.2585  0.3031
 5290W        W24144  14.610   7.628  13.562 -0.1142  0.0038  0.0515
 5291W        W24145   2.429   8.550  11.774 -0.3781  0.3463 -0.0964
 5292W        W24146   4.320   8.899  12.688  0.0794 -0.0898 -0.3751
 5293W        W24147  11.543  16.879   3.193 -0.4183 -0.0598  0.0260
 5294W        W24148   2.945   0.240   3.297  0.2387 -0.0451 -0.2588
 5295W        W24149  13.612   3.689   4.005 -0.0103  0.1155  0.0097
 5296W        W24150   1.394   1.016   2.888 -0.1336 -0.1934 -0.2382
 5297W        W24151   1.396   8.594   1.023 -0.1339 -0.0947  0.0755
 5298W        W24152   3.762  10.904   4.039 -0.1690 -0.0463  0.0925
 5299W        W24153  17.693   4.134  16.112 -0.0748 -0.2372 -0.5534
 5300W        W24154  16.981  12.005   2.955 -0.1507  0.0136  0.1045
 5301W        W24155  14.127  14.570  13.183  0.0710  0.3391  0.0854
 5302W        W24156   8.029  13.220   0.093 -0.0809 -0.0583  0.3243
 5303W        W24157   3.072  17.293  13.702 -0.0178  0.1533  0.0045
 5304W        W24158   1.124  16.712  12.772  0.5119 -0.0198  0.1191
 5305W        W24159  12.955  15.766   3.601  0.1230 -0.0638  0.0278
 5306W        W24160   4.016  16.003  12.804 -0.0505  0.1117  0.2539
 5307W        W24161  14.492  17.366  16.152  0.2254 -0.1309 -0.4410
 5308W        W24162  13.379   0.663  15.185 -0.0926 -0.2641  0.1859
 5309W        W24163   0.715  15.928   3.076  0.0204  0.2373  0.0645
 5310W        W24164   0.022   5.875   1.176 -0.3581 -0.1777  0.1370
 5311W        W24165   1.951   8.397  11.211  0.1375 -0.2181  0.1683
 5312W        W24166  11.853   6.004  11.636 -0.0506 -0.2313 -0.0636
 5313W        W24167  11.141   8.647  13.965 -0.2324  0.1351  0.0553
 5314W        W24168   2.873   0.318   1.817 -0.0196 -0.0074  0.2181
 5315W        W24169   1.092   9.124   0.264 -0.2866 -0.1061 -0.1543
 5316W        W24170   9.088   0.028   4.042 -0.0949 -0.0002  0.0238
 5317W        W24171   9.432   6.185   4.261 -0.1078  0.3093  0.1444
 5318W        W24172   3.512   3.348   0.618 -0.0462  0.2428  0.3493
 5319W        W24173  10.813   4.733   4.224 -0.1281 -0.2867 -0.2469
 5320W        W24174   1.131  17.781   0.619  0.1923 -0.1529 -0.0035
 5321W        W24175   0.431   5.982   1.845 -0.0959  0.1834 -0.1559
 5322W        W24176   5.265  17.081  15.117  0.0398 -0.4081 -0.0223
 5323W        W24177  10.010  16.041  13.284  0.0624  0.0246 -0.2505
 5324W        W24178  17.943   7.180   0.705 -0.0882  0.0883  0.0684
 5325W        W24179  12.844  16.135   3.895  0.2952 -0.2796  0.0133
 5326W        W24180  13.929  16.228  14.614  0.2405  0.1251  0.1364
 5327W        W24181   5.622   3.957  12.620 -0.0608  0.1044 -0.0365
 5328W        W24182  15.841   8.601   3.600 -0.0407 -0.3230 -0.1118
 5329W        W24183  14.787   1.956  15.250  0.1815 -0.0259  0.0255
 5330W        W24184   4.601   8.415   1.594  0.2368 -0.2280  0.3223
 5331W        W24185   8.597   8.583   0.335  0.2360  0.3674 -0.2804
 5332W        W24186   0.312  16.205  12.193 -0.0316 -0.0599 -0.0234
 5333W        W24187   9.430   7.348   2.268  0.0925  0.2136 -0.1515
 5334W        W24188   5.235   3.613  12.563 -0.0929  0.0594 -0.0922
 5335W        W24189  13.124  14.805   1.541  0.1576  0.2128  0.0812
 5336W        W24190   0.048  12.391  13.664  0.1760  0.1421  0.0729
 5337W        W24191   7.165  17.493  15.228  0.3587  0.2799 -0.0493
 5338W        W24192   9.752   9.032  12.551 -0.1358 -0.1704 -0.1549
 5339W        W24193  10.641   7.523  13.570  0.2784  0.2211 -0.1406
 5340W        W24194   0.444   4.173  12.218 -0.0263  0.3620  0.1545
 5341W        W24195   3.910   8.913  15.522 -0.0689  0.0841  0.0916
 5342W        W24196   1.044   5.665  13.470  0.0480 -0.2107  0.1651
 5343W        W24197   9.130   5.233  13.863  0.1795  0.1225  0.1985
 5344W        W24198   8.959  11.142   1.177 -0.0395 -0.1143  0.2779
 5345W        W24199  14.683  11.229   1.761 -0.0605 -0.1812  0.0355
 5346W        W24200   2.337  17.205   1.195 -0.0280 -0.1184  0.0676
 5347W        W24201   6.311  12.159   0.713 -0.1881 -0.0530  0.0860
 5348W        W24202  10.110  11.295  12.071  0.2218 -0.2406  0.1281
 5349W        W24203   8.945   1.361   2.777  0.1837  0.2276 -0.0526
 5350W        W24204   3.903   8.093   2.790 -0.0979 -0.1610 -0.2724
 5351W        W24205  12.313  15.583  12.407  0.0396  0.3597 -0.0045
 5352W        W24206  12.554   6.632   4.108  0.1785 -0.1592 -0.1041
 5353W        W24207   4.958   8.008  15.992  0.0861 -0.2824  0.1430
 5354W        W24208   2.736  16.551  15.486 -0.1182 -0.3723  0.1253
 5355W        W24209   5.857   9.128   3.699  0.1936 -0.1904  0.0380
 5356W        W24210  10.517   1.457  11.777  0.0874  0.1195 -0.1309
 5357W        W24211  14.895  18.001   1.090  0.3594  0.0481 -0.0201
 5358W        W24212  12.058  16.912   1.369 -0.0161 -0.1903 -0.3312
 5359W        W24213   7.191   8.738   4.247 -0.2758  0.0984 -0.1359
 5360W        W24214   8.785  15.152  14.850 -0.3703  0.1122 -0.0562
 5361W        W24215  10.597  13.921   1.608  0.1679 -0.2843 -0.2125
 5362W        W24216   2.677  11.813   4.496  0.2064  0.0520 -0.1780
 5363W        W24217   5.453  15.214   2.601 -0.0465 -0.1601 -0.1899
 5364W        W24218   9.085   7.033   1.533 -0.4089  0.0912 -0.1420
 5365W        W24219   6.759   7.915   0.874 -0.2978  0.3451 -0.0504
 5366W        W24220  15.500  17.172   3.370 -0.1367 -0.0977  0.1660
 5367W        W24221   9.604  15.429   0.989  0.1295  0.0203  0.0057
 5368W        W24222   1.289  10.239  13.312 -0.2926 -0.0398  0.0086
 5369W        W24223   1.640  12.559   2.413 -0.1965 -0.1085  0.0465
 5370W        W24224   1.427  16.713  14.617 -0.1608  0.0715 -0.3981
 5371W        W24225  13.674   0.506   4.327 -0.0513  0.1340  0.0721
 5372W        W24226  10.266  12.054   4.642  0.0676 -0.2050 -0.1206
 5373W        W24227   9.353   2.798  12.052 -0.0629 -0.0063  0.1468
 5374W        W24228   8.477   1.706  12.232  0.1746 -0.0203 -0.0952
 5375W        W24229  17.129  17.564  13.515  0.0804  0.1899 -0.1831
 5376W        W24230   5.751   6.499   0.215  0.2454 -0.0000  0.0146
 5377W        W24231   5.380  17.482  16.044 -0.0044 -0.0703  0.1374
 5378W        W24232  10.798  14.104  13.817 -0.1184  0.0188 -0.0352
 5379W        W24233   8.790  11.862   4.202 -0.3262 -0.1328  0.0085
 5380W        W24234  14.353   9.780  14.069 -0.1471  0.0631 -0.1885
 5381W        W24235   5.305   4.275   4.691 -0.0431 -0.0552 -0.2012
 5382W        W24236   6.155  14.291  13.421 -0.1896  0.4037 -0.4003
 5383W        W24237   5.297   8.062   4.209 -0.0902  0.1308  0.0297
 5384W        W24238  10.375   1.746   1.994 -0.2847  0.0533  0.2308
 5385W        W24239  15.218  16.245   0.097  0.2209 -0.0151 -0.3010
 5386W        W24240   8.687   3.653   2.343  0.0329 -0.1676 -0.1637
 5387W        W24241   9.299  17.614  15.058 -0.0956  0.1280  0.0947
 5388W        W24242   8.345  10.370   1.232  0.0034 -0.1997 -0.1255
 5389W        W24243   2.433  11.034  12.334  0.1110 -0.1115  0.3288
 5390W        W24244  10.558   5.310   2.193 -0.0948 -0.2927 -0.2722
 5391W        W24245   6.247   2.661  13.717 -0.1989 -0.3058  0.1705
 5392W        W24246   0.676   1.445   4.517  0.0686 -0.2894  0.0821
 5393W        W24247  16.157  16.623  13.180  0.3021  0.2313  0.1732
 5394W        W24248   1.626  12.137   2.119  0.0471 -0.1944  0.0658
 5395W        W24249   2.832   2.269   1.590 -0.2908 -0.0659  0.4201
 5396W        W24250   7.836  16.393  11.960 -0.1152  0.1450 -0.2036
 5397W        W24251   7.453  11.650   2.216  0.0633  0.1663  0.0731
 5398W        W24252   4.330   3.035   2.152 -0.1964  0.1827  0.1904
 5399W        W24253  16.501  12.167   0.434 -0.1473 -0.2112  0.2182
 5400W        W24254   1.987  17.296   1.610  0.0667 -0.0619 -0.0468
 5401W        W24255   1.349  10.960  13.708  0.2487 -0.0987 -0.1030
 5402W        W24256  16.471  13.525  15.408  0.0342 -0.1872 -0.0342
 5403W        W24257   3.949   9.446  14.764 -0.1746 -0.1317 -0.0129
 5404W        W24258  15.006  16.277   4.763  0.0321 -0.0823 -0.1775
 5405W        W24259  16.885  16.899  15.603  0.1927  0.0118  0.1273
 5406W        W24260   1.037  10.917  11.885 -0.2395 -0.1066  0.1023
 5407W        W24261   8.964  11.481   4.933  0.3976  0.0673 -0.1269
 5408W        W24262   8.178   7.086   1.490 -0.1637  0.1585  0.2313
 5409W        W24263   7.524  12.404   4.242  0.0854 -0.0840  0.1168
 5410W        W24264   2.236  17.110   0.746  0.1266 -0.0487 -0.3895
 5411W        W24265  10.904   4.819   1.405 -0.1124 -0.1157 -0.2077
 5412W        W24266   6.277  17.788   0.089 -0.0338 -0.0154  0.0812
 5413W        W24267  10.936   4.144  12.426  0.1518 -0.0664  0.3826
 5414W        W24268  14.810   9.796  11.770 -0.0517 -0.2096  0.1335
 5415W        W24269   0.187   7.643  12.352  0.3298 -0.3431 -0.1929
 5416W        W24270  15.480   2.651   3.247  0.1511 -0.1935 -0.1023
 5417W        W24271  16.991   4.039  14.525 -0.0864 -0.0046  0.2042
 5418W        W24272  13.236   0.099   1.581 -0.0795 -0.0070  0.2208
 5419W        W24273  17.562   5.692   2.355  0.2390 -0.0535  0.0081
 5420W        W24274  12.489  16.626  12.631 -0.0265  0.0344  0.0630
 5421W        W24275  10.100  13.103  15.873  0.2394  0.3514  0.1041
 5422W        W24276   2.402  13.077   1.649  0.1854 -0.0320  0.0513
 5423W        W24277   1.169   9.521  11.567  0.2447  0.0281 -0.2513
 5424W        W24278  13.875  10.681  12.998  0.2389  0.2675  0.3483
 5425W        W24279   1.502  15.507   3.822  0.2013  0.0551  0.2495
 5426W        W24280  17.694  17.924   4.704  0.1332 -0.0646  0.0536
 5427W        W24281   0.932  11.004   0.983  0.1802 -0.1720  0.0471
 5428W        W24282   6.372   0.921   0.523 -0.1891 -0.3905  0.0340
 5429W        W24283  12.897   4.447  14.784  0.1198  0.0750 -0.3096
 5430W        W24284  11.077   0.105   0.429  0.1031  0.1297  0.0555
 5431W        W24285   8.642  16.581   5.002  0.0422  0.1219  0.3065
 5432W        W24286  17.061  14.324  12.423  0.3167 -0.1671  0.1029
 5433W        W24287   3.161  15.366  11.929 -0.3799 -0.1154  0.0357
 5434W        W24288  14.358   9.955  12.917 -0.1866  0.0945 -0.1873
 5435W        W24289   3.162  13.310   2.548 -0.0744 -0.0676  0.0972
 5436W        W24290   8.561   8.923  15.131  0.0542 -0.1218 -0.4135
 5437W        W24291  11.548  14.205  12.211  0.2757 -0.1396  0.1836
 5438W        W24292  15.806   1.027   4.790  0.1578 -0.0809  0.1273
 5439W        W24293   3.852  10.228  14.415  0.0564 -0.2301 -0.0728
 5440W        W24294   1.034  13.164   4.554  0.0668  0.2829  0.0137
 5441W        W24295   7.434   5.702   2.530  0.0446  0.0971 -0.0506
 5442W        W24296   4.182   3.986   1.679  0.0965  0.0573 -0.0919
 5443W        W24297  12.106   9.936  14.586  0.0765  0.2562 -0.0231
 5444W        W24298  11.415  12.485   4.551 -0.0802 -0.2444 -0.2601
 5445W        W24299  17.984  15.489  14.887 -0.1662  0.2309 -0.0380
 5446W        W24300  13.610   6.165   3.385 -0.0866  0.3561  0.1666
 5447W        W24301   2.525   8.688   1.800  0.0014  0.2461 -0.0604
 5448W        W24302  17.996   1.180  13.123  0.1443  0.3301  0.0473
 5449W        W24303   0.444  13.750  12.326  0.3831 -0.1125  0.1569
 5450W        W24304   9.644   7.838   0.528 -0.0201 -0.4180  0.1595
 5451W        W24305   3.435  17.685  13.582  0.2108 -0.1658 -0.1988
 5452W        W24306   5.584  11.149   1.700  0.2260 -0.3389 -0.1702
 5453W        W24307   6.609   7.579   3.857  0.2445 -0.5010  0.0372
 5454W        W24308  14.533  17.608  15.705 -0.0937  0.0225 -0.1079
 5455W        W24309  17.540  12.809   1.276 -0.1211 -0.0197  0.1858
 5456W        W24310   0.452   0.426  13.661 -0.0317 -0.1426  0.0362
 5457W        W24311   6.483  15.155   2.544  0.1446  0.0540 -0.0668
 5458W        W24312   0.962   0.505   3.763 -0.1785 -0.1333 -0.0729
 5459W        W24313  10.788   3.694  11.492  0.0427 -0.1497  0.0337
 5460W        W24314   5.084   6.723  14.862  0.0272 -0.0312  0.1661
 5461W        W24315   3.253   8.709  13.751 -0.0118  0.0710 -0.2836
 5462W        W24316  10.570   9.115  15.187  0.3806  0.0291  0.1556
 5463W        W24317   6.663  11.065   4.841 -0.4804 -0.3143 -0.0371
 5464W        W24318   8.447  12.665   3.108 -0.0790  0.0752 -0.0386
 5465W        W24319   2.260  12.973  12.675  0.3315 -0.1631  0.0432
 5466W        W24320  13.106  17.583   0.845 -0.0180  0.4345  0.0029
 5467W        W24321   0.529  17.500  12.696 -0.4795 -0.2113  0.0441
 5468W        W24322   4.219   0.094  15.257 -0.0552 -0.0501  0.1092
 5469W        W24323   4.956  10.636  15.280 -0.1471 -0.1291  0.0140
 5470W        W24324   8.579   4.902  12.066 -0.2533  0.0232 -0.0501
 5471W        W24325   7.858   9.569  13.864  0.0183  0.2132  0.0450
 5472W        W24326   7.296   8.478  15.075 -0.1721 -0.0672  0.2977
 5473W        W24327   5.401  17.699   2.351  0.1510 -0.0686  0.3051
 5474W        W24328  12.372   1.113  11.641  0.2686 -0.0489 -0.1616
 5475W        W24329   7.289  10.084   2.923 -0.0748  0.1526  0.4396
 5476W        W24330   3.457  11.422   1.736  0.0784 -0.2256 -0.0694
 5477W        W24331  15.942   8.821   3.136  0.0886  0.0051  0.0063
 5478W        W24332   4.941  13.081   2.988 -0.2855 -0.1777 -0.1120
 5479W        W24333   9.272  14.864  11.915 -0.2307 -0.0339  0.0242
 5480W        W24334  12.793  15.845   4.347  0.1556  0.0387 -0.0961
 5481W        W24335   6.251   6.225   0.925 -0.3215 -0.0316  0.2339
 5482W        W24336   3.540   6.650   2.614 -0.4053  0.0658 -0.0603
 5483W        W24337  11.637  13.728  13.859  0.1160 -0.3161 -0.0957
 5484W        W24338  12.413   9.711   4.806 -0.3374 -0.1702  0.1403
 5485W        W24339  17.514  11.832  11.373  0.1801 -0.3693  0.0293
 5486W        W24340  14.663  14.819   4.821 -0.0758  0.0418  0.0012
 5487W        W24341   1.423   4.932  15.538  0.0192  0.1765 -0.2772
 5488W        W24342  14.972  12.739  14.652 -0.1364 -0.2941  0.1305
 5489W        W24343   7.182   0.142   3.163  0.1808  0.1721  0.0020
 5490W        W24344  14.964  12.346  11.470 -0.0513  0.2685 -0.3083
 5491W        W24345   6.754   2.121  13.526 -0.1222 -0.1073  0.2701
 5492W        W24346  12.084  14.633  14.063 -0.1429 -0.0345  0.1217
 5493W        W24347   2.171  15.900  16.179 -0.1527 -0.0514  0.1011
 5494W        W24348   8.648  15.717   3.791 -0.0526  0.0472  0.2673
 5495W        W24349   7.682   9.399  13.171  0.1375 -0.1634  0.2183
 5496W        W24350   4.217   5.821   3.484 -0.2156  0.1006  0.0626
 5497W        W24351  14.394  10.066  11.573  0.0392 -0.2756 -0.1577
 5498W        W24352   1.445   9.396   3.583 -0.1237  0.3055 -0.0872
 5499W        W24353   5.948   0.294  12.424  0.1018  0.0136  0.0920
 5500W        W24354   7.348   3.611   3.464 -0.2201 -0.2867  0.0747
 5501W        W24355   3.989   3.037  11.737  0.0014 -0.2751 -0.0382
 5502W        W24356   1.700   0.848  11.661 -0.2389  0.5025 -0.0458
 5503W        W24357  14.501  15.820  13.309 -0.3639 -0.1189  0.2899
 5504W        W24358  14.620   9.872   3.689  0.3064  0.0439 -0.3409
 5505W        W24359   9.728   0.833  13.074 -0.0432 -0.1928  0.0926
 5506W        W24360  13.623   7.729   4.206 -0.0210  0.2797  0.0102
 5507W        W24361  11.969  10.107   1.024  0.1735 -0.0113 -0.3293
 5508W        W24362  14.769   4.215  14.277  0.0447 -0.2236 -0.0820
 5509W        W24363  10.189   4.300  11.952 -0.0766 -0.0262 -0.1862
 5510W        W24364  14.530  15.552   3.728 -0.0626  0.0712  0.0901
 5511W        W24365   7.405   0.536   1.411 -0.0883 -0.1758  0.3256
 5512W        W24366   8.993   9.309   5.725  0.0108 -0.0577 -0.0096
 5513W        W24367  11.292   7.315   4.286 -0.0532  0.2167  0.0133
 5514W        W24368  10.422  17.122   2.154 -0.3323 -0.1776 -0.0006
 5515W        W24369  10.484  11.739  14.469  0.0113 -0.1953 -0.3052
 5516W        W24370  15.749   8.454  10.959 -0.2748  0.0703 -0.3646
 5517W        W24371   0.645   9.845   2.920  0.3386  0.2514  0.2159
 5518W        W24372  12.845   8.951  14.663  0.1945 -0.0656 -0.1100
 5519W        W24373  13.368  12.747  14.485 -0.1843  0.1188 -0.2011
 5520W        W24374  16.387   0.212   0.790  0.1109 -0.1558 -0.2361
 5521W        W24375  13.882   1.210   4.093  0.3034 -0.0880  0.1192
 5522W        W24376  12.932   0.347   0.733 -0.0336 -0.2690  0.1993
 5523W        W24377   8.694  15.967   1.944  0.0276  0.6395  0.2396
 5524W        W24378   8.600  10.669  15.649 -0.1282  0.2892 -0.1397
 5525W        W24379   7.547  10.957  12.770  0.2403 -0.1148  0.1438
 5526W        W24380  15.079  13.613  15.637 -0.0571  0.0699  0.2512
 5527W        W24381  11.604  14.757  16.062 -0.1186  0.0970  0.0622
 5528W        W24382   0.991   4.886   1.749 -0.0277  0.0660 -0.0394
 5529W        W24383   4.478  10.719   3.323  0.1537 -0.0132 -0.0295
 5530W        W24384   1.676   8.006  12.939 -0.2468 -0.0356  0.0138
 5531W        W24385   7.221   4.490   2.915  0.1040  0.0398  0.0107
 5532W        W24386  10.726  15.101   4.656 -0.1313  0.2327  0.1003
 5533W        W24387  11.236  12.160  11.980 -0.0412 -0.1069 -0.0617
 5534W        W24388  16.551  14.120   1.485 -0.1583 -0.1436 -0.0026
 5535W        W24389   8.014  15.299  12.442 -0.1085  0.2936 -0.2473
 5536W        W24390  13.020  12.321  13.262 -0.1296 -0.1563  0.3761
 5537W        W24391   6.058  11.282  15.740  0.1497 -0.0450  0.0217
 5538W        W24392  13.508  15.582  15.175 -0.0625 -0.0535 -0.2192
 5539W        W24393   4.866   6.867   3.217 -0.1101  0.0742 -0.3590
 5540W        W24394   3.529   5.006  11.797 -0.1213  0.1648 -0.1752
 5541W        W24395   6.643  11.564  11.276 -0.1262  0.1024 -0.0348
 5542W        W24396  11.393   3.336   3.176  0.1470  0.2379  0.3103
 5543W        W24397   5.607   2.479   1.047 -0.4572  0.1763 -0.0406
 5544W        W24398   3.226  15.292  12.420  0.3755 -0.2357  0.2367
 5545W        W24399  17.588  10.786   1.918 -0.1250 -0.1110  0.0489
 5546W        W24400   2.009  11.058  12.566 -0.1380 -0.0303 -0.1868
 5547W        W24401   2.857  13.777   3.919 -0.0577  0.0288 -0.0122
 5548W        W24402   3.976   4.788  15.588  0.2842  0.0756 -0.3058
 5549W        W24403   4.248   5.210   2.771 -0.0636  0.1997  0.0444
 5550W        W24404  16.965  16.191  13.020  0.1698  0.1580 -0.0372
 5551W        W24405  14.347   8.052  12.791 -0.1039  0.0264 -0.0191
 5552W        W24406   5.297   7.030  15.451  0.0257  0.1228 -0.1312
 5553W        W24407  11.145   5.137  15.874 -0.2698  0.1337 -0.1762
 5554W        W24408   9.335   7.238   2.761 -0.1413 -0.0343  0.1736
 5555W        W24409   4.486  15.109  13.177  0.1470 -0.0854  0.1282
 5556W        W24410   4.430   1.876  16.088  0.1037  0.0767 -0.1723
 5557W        W24411  10.346  12.117   2.674 -0.1024  0.1155  0.1870
 5558W        W24412   5.335   8.947  12.950  0.1911  0.0833  0.2322
 5559W        W24413  12.270  16.955  11.855  0.0636  0.1563  0.1544
 5560W        W24414  10.975  16.143  15.205  0.1730  0.1872  0.0266
 5561W        W24415  15.400  11.254  14.991 -0.0513 -0.1143 -0.3848
 5562W        W24416   3.686   4.539  14.418 -0.0635 -0.3035 -0.1500
 5563W        W24417   0.192  15.567  14.432 -0.0532 -0.0193 -0.2014
 5564W        W24418  14.341  12.803   1.764 -0.1381 -0.0516 -0.1411
 5565W        W24419  16.833  14.235  15.921  0.0245 -0.2675 -0.0511
 5566W        W24420  11.077  10.993  12.946 -0.2509  0.0636 -0.0860
 5567W        W24421  14.281  11.099  13.551  0.1626 -0.2006  0.1099
 5568W        W24422   3.752  13.288   1.845  0.0201 -0.1878  0.1032
 5569W        W24423  15.798   0.963   0.750  0.0188  0.3696 -0.0285
 5570W        W24424   3.929   7.999   2.310 -0.2085 -0.2216  0.1659
 5571W        W24425   9.493   8.464   1.660 -0.1322  0.0059 -0.0432
 5572W        W24426   4.265  16.580   3.169 -0.2376  0.2462 -0.0705
 5573W        W24427   3.948  12.157   1.864  0.0904 -0.0057 -0.1973
 5574W        W24428   2.794  16.711   6.007 -0.0339  0.2091  0.0631
 5575W        W24429   5.113   1.067   3.317 -0.1429 -0.0751 -0.0786
 5576W        W24430   3.905   6.459   5.563 -0.0336 -0.0134  0.0394
 5577W        W24431   3.050   3.129   0.629  0.1050 -0.1472  0.3045
 5578W        W24432  13.836  11.012  11.258  0.1954  0.0325  0.1096
 5579W        W24433   5.598  12.303   3.683  0.0378 -0.1873 -0.2432
 5580W        W24434   9.617  12.872   4.584 -0.1485  0.2945 -0.0824
 5581W        W24435   2.797  13.652  13.897  0.3595  0.1529 -0.2185
 5582W        W24436   0.614   1.889  11.532  0.0120  0.3366 -0.1408
 5583W        W24437   2.791   4.727  16.109  0.1061 -0.0600 -0.2037
 5584W        W24438   6.274   8.610  10.454  0.0644  0.1058 -0.1141
 5585W        W24439  15.979   1.082  12.910 -0.1596  0.1313  0.0201
 5586W        W24440   1.773   6.604  16.118 -0.1883 -0.0836  0.0292
 5587W        W24441   7.983  10.867  11.703  0.1063 -0.0664 -0.0925
 5588W        W24442   9.185   3.238   1.562 -0.1543 -0.0560 -0.2008
 5589W        W24443   7.924  11.488   0.543 -0.3830  0.1915 -0.0240
 5590W        W24444  13.822  12.159   3.462  0.2436 -0.0358 -0.1610
 5591W        W24445   3.521  13.242  13.957  0.3710  0.0557  0.3384
 5592W        W24446  14.240  12.291  11.946  0.0137  0.0228  0.1372
 5593W        W24447   5.713   0.360   1.056  0.0661  0.4284  0.0119
 5594W        W24448  14.381   8.412   0.114 -0.0408 -0.1127 -0.0177
 5595W        W24449  16.184   6.961   3.011 -0.4146 -0.0163 -0.0403
 5596W        W24450   8.132  15.496   3.993  0.2387  0.2463 -0.1606
 5597W        W24451   7.502   7.911   0.281 -0.1847  0.1837  0.4158
 5598W        W24452   4.665  11.380  14.125  0.1816 -0.0956 -0.0950
 5599W        W24453   6.502  16.304   0.768  0.1583  0.1615  0.2218
 5600W        W24454  10.180  12.931  14.592  0.2549 -0.0223  0.1798
 5601W        W24455  13.401   8.015  10.416 -0.1566 -0.3210 -0.1741
 5602W        W24456  10.727  14.208   3.623  0.0090  0.3369  0.2057
 5603W        W24457  13.626   4.171   1.184  0.0725  0.1172 -0.2079
 5604W        W24458  16.202  10.984   4.360  0.0414  0.1958  0.1930
 5605W        W24459  10.338   2.964  14.415  0.1360 -0.0668 -0.2116
 5606W        W24460  15.139   6.840  10.753  0.0439 -0.1317 -0.3882
 5607W        W24461   5.686   5.547  11.587 -0.1512  0.2264 -0.3296
 5608W        W24462   5.691   8.611  14.635  0.2132 -0.2463 -0.1113
 5609W        W24463   4.416   0.546   2.898  0.2127 -0.1424  0.0870
 5610W        W24464  13.234   3.348   1.616 -0.1559  0.0278 -0.0495
 5611W        W24465  10.828   2.413  13.029  0.3544  0.2913  0.2976
 5612W        W24466   5.124  15.967   2.486 -0.1129 -0.0993 -0.3386
 5613W        W24467  15.876  12.545  11.928  0.1891  0.1188 -0.1285
 5614W        W24468  11.301   3.346  13.348  0.1271  0.1787  0.0921
 5615W        W24469   2.626   6.482   3.862  0.0339  0.1254 -0.0168
 5616W        W24470  13.072   4.163  12.549 -0.2232  0.0055  0.0979
 5617W        W24471   1.694   9.437   1.474 -0.2232 -0.0559 -0.0573
 5618W        W24472   6.079  17.837  12.356 -0.0478  0.1562  0.1282
 5619W        W24473  13.037   4.848   3.285  0.1290 -0.1666  0.1904
 5620W        W24474  16.227   3.220   0.897  0.2110 -0.0386  0.1749
 5621W        W24475   5.323   4.041  10.840 -0.3173 -0.2115  0.0768
 5622W        W24476  10.248   9.490  13.787 -0.1549 -0.0069  0.5430
 5623W        W24477   7.944   8.635   1.559  0.2877  0.0956 -0.0260
 5624W        W24478   7.969   1.570  10.981 -0.1666  0.0492  0.2869
 5625W        W24479  16.471  11.159  11.851 -0.2819 -0.0055 -0.3085
 5626W        W24480   8.440  16.140  15.941 -0.0769  0.0806 -0.2196
 5627W        W24481  16.246  14.837   3.847 -0.2001  0.0825  0.1713
 5628W        W24482   5.615   1.001  13.401 -0.0955  0.2054  0.2243
 5629W        W24483   2.871   4.907  12.552 -0.3744 -0.0864  0.0819
 5630W        W24484   7.503   8.054  13.922  0.0434 -0.1673 -0.2388
 5631W        W24485  11.827  11.840   1.920 -0.0570  0.1016  0.3497
 5632W        W24486   5.174   3.906  14.521 -0.0607 -0.0075 -0.1339
 5633W        W24487   2.486  14.285   1.226 -0.2139  0.0253 -0.1765
 5634W        W24488  10.873   7.428  12.221 -0.0789  0.1064 -0.1154
 5635W        W24489  12.751   1.080   1.998 -0.0312 -0.0377  0.0002
 5636W        W24490   9.428  11.740   1.638 -0.1593 -0.1076  0.2500
 5637W        W24491   2.706  15.154  13.260  0.0346 -0.1546  0.0668
 5638W        W24492   6.926  13.982  12.497  0.5097 -0.0592 -0.2177
 5639W        W24493  14.957  13.711  14.642 -0.2400  0.1393 -0.0099
 5640W        W24494  11.125  12.921  13.653  0.3074  0.0066  0.2634
 5641W        W24495   2.989   9.548  12.479 -0.3966 -0.1014 -0.1866
 5642W        W24496  11.337   4.625  11.021  0.0581  0.0600  0.0094
 5643W        W24497   7.162   2.339  15.179 -0.4113 -0.0675 -0.0156
 5644W        W24498  16.770  15.847   4.450  0.1896 -0.2303 -0.1685
 5645W        W24499  13.395  15.281   4.529 -0.0308 -0.0700 -0.1790
 5646W        W24500   2.449   3.591   0.095  0.0933 -0.1520  0.1699
 5647W        W24501  11.905  15.944   0.679 -0.2666  0.1629 -0.2789
 5648W        W24502  14.007   8.310   0.443  0.2275 -0.1289  0.0387
 5649W        W24503   7.342  16.467  11.969  0.0162 -0.0994  0.1232
 5650W        W24504   4.976  12.745  15.123 -0.1597  0.0224  0.0215
 5651W        W24505  11.611   8.764  13.040 -0.2342  0.0259  0.2326
 5652W        W24506   8.880   5.022  13.434  0.4553  0.0493 -0.2280
 5653W        W24507  16.503   6.698  10.084  0.1593  0.1638 -0.2039
 5654W        W24508  15.337   1.750   0.188 -0.3808  0.3785  0.0224
 5655W        W24509   9.526  16.577   1.604 -0.2667 -0.0392  0.5249
 5656W        W24510  12.067   7.892   2.256  0.0885 -0.0415  0.1099
 5657W        W24511   9.432  15.687   5.873  0.1767 -0.0744  0.0310
 5658W        W24512  10.429  12.451  11.508  0.0546  0.0214 -0.0203
 5659W        W24513  18.014  14.619   3.326 -0.4244  0.1747 -0.2794
 5660W        W24514   9.456  11.376  12.744  0.0107  0.2522 -0.0849
 5661W        W24515   9.267  10.339  12.075 -0.3852 -0.2660 -0.1922
 5662W        W24516   7.919  11.837   3.562 -0.0965  0.0297  0.0120
 5663W        W24517  16.323  16.733  14.355 -0.1706  0.1809 -0.0764
 5664W        W24518  17.774   1.653  12.479 -0.1429 -0.0683  0.2688
 5665W        W24519  11.320  16.413   2.004 -0.1584 -0.1667 -0.2894
 5666W        W24520   6.312  10.218  12.391 -0.0224 -0.0287  0.0217
 5667W        W24521  12.541  17.180  12.936 -0.1830 -0.0650  0.2435
 5668W        W24522   1.843  15.454   1.602  0.3811 -0.0905 -0.1260
 5669W        W24523  11.395  12.680   0.896 -0.2010  0.1316 -0.0425
 5670W        W24524   4.002   0.645   4.006 -0.2034  0.0253 -0.2811
 5671W        W24525   5.246  17.400  11.653  0.1740 -0.2753 -0.1392
 5672W        W24526  15.042  17.952   4.530  0.0587  0.0175 -0.0772
 5673W        W24527   8.667   5.509  13.854  0.0918 -0.0591  0.0740
 5674W        W24528   7.997  15.391  11.575  0.0425 -0.0620 -0.0704
 5675W        W24529   6.568  11.371  14.189  0.1489  0.2483 -0.0253
 5676W        W24530   3.876  13.101  15.177  0.0749  0.1513 -0.0478
 5677W        W24531  17.065   6.346  13.750 -0.1853  0.1071  0.0616
 5678W        W24532   1.479  15.714  11.394 -0.4634  0.2186 -0.0553
 5679W        W24533  11.297  11.535  13.757  0.0649  0.1703 -0.0204
 5680W        W24534   9.869   2.962  14.652 -0.1804  0.0380 -0.0005
 5681W        W24535   1.570   7.978   3.832 -0.0894 -0.0553 -0.1519
 5682W        W24536  15.206  13.811   2.665 -0.0330  0.0758 -0.0241
 5683W        W24537   1.999   1.874  16.037  0.0042 -0.0074 -0.1404
 5684W        W24538  12.985  11.170  14.046  0.0959 -0.2909 -0.0075
 5685W        W24539   4.588   2.410  13.957 -0.1958 -0.3232 -0.2373
 5686W        W24540   1.120   4.942  12.410  0.1349  0.1558  0.0113
 5687W        W24541  17.317  15.718   2.288 -0.1204 -0.3335 -0.1205
 5688W        W24542  16.663   8.258  11.799 -0.2327  0.0646  0.0702
 5689W        W24543  13.392  17.012   4.699  0.0364  0.1001  0.1933
 5690W        W24544  13.792  10.793  11.683  0.1861  0.0571 -0.3774
 5691W        W24545   9.613  12.780  11.860 -0.0068  0.1245 -0.0519
 5692W        W24546   4.512   9.063  12.197  0.1478  0.0916  0.2671
 5693W        W24547   2.519   9.611  12.441  0.1488 -0.2636 -0.0552
 5694W        W24548   2.045   8.100   3.185  0.0293  0.1217  0.1930
 5695W        W24549  11.161   6.845  12.460  0.1923  0.1501 -0.0805
 5696W        W24550  11.105  10.314  15.672  0.1688 -0.3167  0.1928
 5697W        W24551  17.456  12.910  14.720 -0.0148 -0.0359  0.1210
 5698W        W24552   7.977  14.559  15.956  0.0143  0.0642  0.0111
 5699W        W24553  16.848  17.223   3.799  0.0180 -0.1651 -0.2130
 5700W        W24554   6.169   7.880   0.099 -0.1727  0.0692  0.1700
 5701W        W24555  11.950  15.665   3.259 -0.1422  0.2029 -0.2212
 5702W        W24556   8.936   8.945  12.884 -0.1185  0.0985 -0.5273
 5703W        W24557   6.828  16.463  11.326 -0.0269 -0.1741  0.2071
 5704W        W24558   1.009   9.241  15.006 -0.0256  0.0044  0.0294
 5705W        W24559   8.310  16.202  13.383  0.1368 -0.0067 -0.0155
 5706W        W24560  13.212   5.896  13.858  0.0075  0.0505 -0.3860
 5707W        W24561   0.799  14.075  13.745  0.3262  0.1132  0.1557
 5708W        W24562   0.563   9.709   4.461  0.1157 -0.0587  0.0408
 5709W        W24563   0.159  15.497  15.915 -0.0787  0.0497 -0.2631
 5710W        W24564  11.550   7.463  10.490 -0.2890 -0.0271  0.3503
 5711W        W24565   7.599  11.940  12.600  0.0685  0.0423 -0.2551
 5712W        W24566   0.931  10.118  16.049  0.2894 -0.0270  0.0211
 5713W        W24567   5.169   4.876  16.015 -0.3298 -0.0741 -0.0378
 5714W        W24568   2.486  14.284   2.155 -0.0009  0.2880 -0.3029
 5715W        W24569  17.664  15.585   4.660 -0.0575  0.1198  0.0518
 5716W        W24570  14.729  13.778   0.738  0.1080  0.3040 -0.0916
 5717W        W24571  13.634   0.560   4.900 -0.1364  0.0428 -0.1409
 5718W        W24572  11.878  14.011   1.366 -0.1587  0.0354  0.1292
 5719W        W24573   2.086   2.682   0.146  0.1921 -0.0959 -0.1584
 5720W        W24574  16.916   6.234  12.230 -0.4804 -0.0200 -0.0727
 5721W        W24575   8.689  13.795   1.853 -0.1234 -0.2837  0.1265
 5722W        W24576  15.544   1.240  11.896  0.0175 -0.1115  0.1366
 5723W        W24577  11.979  12.398  14.118 -0.1112  0.0662 -0.0135
 5724W        W24578   1.557  12.624   4.095 -0.1762 -0.2977  0.0737
 5725W        W24579   9.235   4.745  15.970  0.2152  0.0469 -0.1699
 5726W        W24580  13.833  14.907   6.021  0.0109  0.1994 -0.1298
 5727W        W24581   9.160   7.061   4.003 -0.2111  0.0881  0.0527
 5728W        W24582  14.350   0.219   1.741  0.1557  0.2170 -0.0676
 5729W        W24583  16.124  10.493   2.022  0.1118 -0.0090 -0.2883
 5730W        W24584  15.802  16.323  14.879  0.0147 -0.1640  0.0385
 5731W        W24585   7.359  12.502  16.165  0.1969 -0.1638  0.0988
 5732W        W24586   5.491  15.758  15.863  0.1633 -0.2712  0.3304
 5733W        W24587   6.714  16.664   2.132 -0.3371  0.0057 -0.1240
 5734W        W24588  16.583   2.658   1.691 -0.0427 -0.3377 -0.1053
 5735W        W24589   0.780   1.523   0.995  0.0844 -0.3372  0.0412
 5736W        W24590   5.761   8.970  15.750 -0.0017 -0.0838 -0.0394
 5737W        W24591  12.324   5.967  15.211  0.0941  0.0084  0.2790
 5738W        W24592  17.067   0.303   1.503 -0.2090  0.1225 -0.2911
 5739W        W24593  15.961  17.307  11.894  0.1105 -0.6358 -0.1484
 5740W        W24594   0.698  17.945   1.384 -0.1180  0.1495  0.2573
 5741W        W24595  14.245  15.041  15.694 -0.0972  0.0607 -0.3197
 5742W        W24596   6.421  14.389  15.686  0.1521  0.1250  0.4580
 5743W        W24597  12.345   1.146   4.680 -0.1498  0.0680  0.0962
 5744W        W24598   3.067  14.739   2.028  0.4692  0.1351 -0.0261
 5745W        W24599   0.319  12.349  14.905  0.2179 -0.0846  0.0608
 5746W        W24600  16.688   4.910  11.208 -0.1674  0.1076 -0.0717
 5747W        W24601   8.998   4.970  14.624 -0.2139 -0.2778  0.2462
 5748W        W24602  16.602   0.582   4.231 -0.1038  0.0023  0.0741
 5749W        W24603   0.569  14.947   3.824  0.1281 -0.0227  0.2870
 5750W        W24604   0.585  15.252   4.289 -0.0585  0.0468  0.4462
 5751W        W24605  17.381   1.026  15.733 -0.1111  0.0696  0.2370
 5752W        W24606  14.269   9.462   2.344  0.2550  0.0493  0.3244
 5753W        W24607  13.903  13.861  13.694  0.0223  0.1221  0.1618
 5754W        W24608  17.302   7.873  10.106  0.0138 -0.1362  0.1629
 5755W        W24609   6.413  13.724   2.777 -0.0798 -0.1773 -0.1963
 5756W        W24610  13.000   2.400  12.331  0.0166 -0.1574 -0.0195
 5757W        W24611  13.758   8.933   0.569 -0.0334 -0.4255  0.0071
 5758W        W24612  11.551  15.779   2.981 -0.0215 -0.2384  0.0320
 5759W        W24613   7.603   9.012  11.927 -0.1383  0.1405  0.2108
 5760W        W24614  13.502   3.832  11.331 -0.0865 -0.0391  0.1836
 5761W        W24615   3.874   2.455   0.631 -0.0476 -0.1327  0.3382
 5762W        W24616  13.452  14.413  13.004  0.2071 -0.2223  0.2105
 5763W        W24617   4.548  12.359  14.275 -0.0254 -0.1289 -0.2535
 5764W        W24618   4.241  12.293   0.406 -0.1116  0.2078 -0.1487
 5765W        W24619  14.972  12.805  11.844 -0.0542  0.2486 -0.2238
 5766W        W24620  10.022  14.927   4.922 -0.2280 -0.1390  0.1272
 5767W        W24621   7.007  12.587  12.706  0.1930 -0.2461  0.2081
 5768W        W24622   6.847   1.268   4.602 -0.2008 -0.2307  0.5344
 5769W        W24623  13.334  12.677   1.021 -0.1287  0.2525  0.0648
 5770W        W24624   4.361   1.849   4.881 -0.3484 -0.2993  0.2454
 5771W        W24625   0.712  15.750  12.856  0.1959 -0.1703  0.0044
 5772W        W24626   3.917  10.712   0.039 -0.1369 -0.0266  0.0624
 5773W        W24627  15.456  15.913   0.458 -0.1056  0.0870  0.1552
 5774W        W24628   1.150   7.705   2.808 -0.1617  0.1687  0.0425
 5775W        W24629  11.580   5.983  12.572 -0.0663  0.2441  0.1009
 5776W        W24630  14.773   4.372   4.157 -0.2342  0.0553  0.3928
 5777W        W24631   4.737   1.582   4.585  0.1034  0.0169 -0.0541
 5778W        W24632   7.367  17.409   4.179 -0.0570  0.4921 -0.1806
 5779W        W24633  15.062  13.040   3.794 -0.0172 -0.0273  0.1035
 5780W        W24634   2.107   1.275  14.254  0.2852 -0.1846  0.0065
 5781W        W24635  10.750  13.707   3.998 -0.0509 -0.3152 -0.1219
 5782W        W24636   9.974  12.657  11.503  0.0130 -0.4339  0.1297
 5783W        W24637  14.398  11.616  15.070  0.2581 -0.0939 -0.0595
 5784W        W24638   7.628   9.155  15.929 -0.0054  0.1604 -0.3522
 5785W        W24639   3.201   0.263  12.742  0.1789  0.0639 -0.4237
 5786W        W24640   0.996   5.850  12.870  0.1917  0.1377  0.2604
 5787W        W24641  14.098   7.599   1.164 -0.0029 -0.2353 -0.0357
 5788W        W24642  15.119  14.950   5.005 -0.1882 -0.2323 -0.0591
 5789W        W24643  16.135  10.972   1.816 -0.0694  0.1724  0.2281
 5790W        W24644   7.636  17.283   1.598  0.0539  0.1927 -0.0055
 5791W        W24645   0.592  14.323  14.172  0.2440  0.0179  0.0259
 5792W        W24646   9.007  13.406  11.430  0.2542 -0.0165  0.0835
 5793W        W24647   0.320   6.122  15.134 -0.1139 -0.0436  0.0492
 5794W        W24648   6.711   9.939   3.745  0.2113 -0.0914  0.1456
 5795W        W24649  13.766   9.549  13.776 -0.0714  0.1170 -0.0392
 5796W        W24650   9.912  11.870   1.721 -0.3469  0.0867  0.0928
 5797W        W24651  12.702  14.179   0.797  0.0661  0.0624 -0.1657
 5798W        W24652   2.836  12.004   2.469 -0.1203  0.0040 -0.2694
 5799W        W24653   6.561  12.466  12.845  0.1027  0.0313 -0.1870
 5800W        W24654  15.362   5.066  12.200 -0.2278  0.1373 -0.4151
 5801W        W24655   7.808   4.864   4.597  0.0345  0.0533 -0.1181
 5802W        W24656   8.340  12.784  13.976 -0.0910  0.1013 -0.0283
 5803W        W24657   8.311  14.250   2.768  0.2087  0.3037 -0.2914
 5804W        W24658  18.036  17.128  12.059 -0.3323 -0.2880 -0.2052
 5805W        W24659   4.236   4.665  12.151  0.0118  0.1229  0.0896
 5806W        W24660  10.149   2.518   3.733  0.2582  0.1126  0.2242
 5807W        W24661  15.709  11.793   0.152  0.0309 -0.1720  0.2000
 5808W        W24662   1.946   5.885  14.387 -0.3279 -0.1694 -0.0763
 5809W        W24663   5.347  12.642  13.840 -0.0154 -0.0215  0.0132
 5810W        W24664  10.952  17.082   0.017 -0.0260 -0.1744  0.2780
 5811W        W24665   2.497   3.215  15.360  0.1509  0.0824  0.0453
 5812W        W24666  10.298   5.379   3.002  0.3445  0.0807  0.1714
 5813W        W24667  15.948   3.648  15.987 -0.1223 -0.1077 -0.1437
 5814W        W24668   4.228   9.808   4.532  0.1382  0.0381 -0.1703
 5815W        W24669  17.146  15.090  15.978 -0.0750 -0.0380 -0.3567
 5816W        W24670   2.857  10.971  11.593 -0.1506  0.0392 -0.1496
 5817W        W24671  14.326   1.034  12.635 -0.1819  0.1503  0.0373
 5818W        W24672  13.241   4.872   2.519  0.2054 -0.0321  0.0069
 5819W        W24673   1.816   2.130   1.869  0.1659 -0.1484  0.2452
 5820W        W24674   8.571  17.415   4.876  0.1575  0.0264 -0.2383
 5821W        W24675   1.510  14.055  12.169 -0.0705 -0.1232  0.0840
 5822W        W24676   0.609  15.432   3.617  0.1183 -0.1641 -0.0460
 5823W        W24677   4.983  12.365   4.500 -0.2271  0.2239  0.1658
 5824W        W24678   7.648  17.967  15.885  0.0363 -0.1618 -0.0610
 5825W        W24679   2.301  13.565  11.534  0.0942 -0.3615  0.0806
 5826W        W24680   2.799  10.893   0.969  0.0533  0.0018 -0.2793
 5827W        W24681  11.462   9.404   1.497  0.1543  0.0470 -0.2263
 5828W        W24682  16.868  10.226   2.653  0.0355 -0.0848  0.1791
 5829W        W24683  16.681   7.127   1.135 -0.0805 -0.1267  0.1518
 5830W        W24684   0.660   7.133  13.550  0.1248  0.0495  0.1119
 5831W        W24685  11.186   2.890  16.217 -0.0200 -0.2568 -0.0195
 5832W        W24686  16.237   8.981   0.244 -0.2350 -0.0345  0.0060
 5833W        W24687   5.422   1.645  14.849  0.0825  0.0615 -0.1059
 5834W        W24688   6.120   7.459   3.346  0.0210 -0.1431  0.1418
 5835W        W24689  10.349   5.783  15.918 -0.3772 -0.1910  0.2325
 5836W        W24690   9.012  13.519   2.154 -0.0290 -0.2107 -0.2670
 5837W        W24691  14.926  16.869   4.389 -0.1031 -0.3802  0.1753
 5838W        W24692   8.747   4.212   4.133 -0.2231 -0.0843 -0.1814
 5839W        W24693  13.405   9.306  12.343  0.2216 -0.1885 -0.1319
 5840W        W24694  17.318  17.028   5.191 -0.1518  0.0886 -0.1878
 5841W        W24695   6.311   3.745   3.305  0.0745  0.0278  0.1858
 5842W        W24696  10.978  10.805   2.008 -0.3309 -0.1959 -0.0462
 5843W        W24697   2.798   7.289  14.555  0.0020  0.2784 -0.4224
 5844W        W24698   5.049   5.003  12.576 -0.2842  0.0460 -0.1067
 5845W        W24699  15.566   3.478  15.110 -0.0924 -0.2175 -0.2423
 5846W        W24700   7.975  12.651  14.411  0.1248  0.1077 -0.1894
 5847W        W24701   3.079  13.244   3.852 -0.2304  0.0764 -0.0547
 5848W        W24702   5.490   8.533   2.670 -0.0372  0.2950  0.0264
 5849W        W24703   4.221   7.734   1.926  0.2773 -0.1770  0.1279
 5850W        W24704  17.442   0.577   4.257  0.3917 -0.0614 -0.1430
 5851W        W24705   1.543  17.686  15.560 -0.2599 -0.0179 -0.3023
 5852W        W24706  12.161   6.708  12.705 -0.0432 -0.1643  0.0283
 5853W        W24707   3.416   2.331   2.665  0.0388 -0.0150 -0.2404
 5854W        W24708   3.467   4.398   4.413  0.2150  0.1728 -0.0695
 5855W        W24709  11.345   6.301   3.822 -0.0818  0.0404  0.0117
 5856W        W24710   8.359   9.621  13.832 -0.0099  0.0096 -0.2730
 5857W        W24711   8.430  16.577  15.258 -0.1144  0.3402 -0.0903
 5858W        W24712  13.721  10.218   0.599 -0.2612 -0.1582  0.2152
 5859W        W24713  13.886   9.718   0.638  0.1199  0.2015  0.1476
 5860W        W24714  15.271   5.402  13.898 -0.3840 -0.0284  0.1693
 5861W        W24715  15.951  15.929  14.414 -0.3304 -0.1386 -0.0897
 5862W        W24716  16.376   7.151  11.159  0.0116  0.3754 -0.0525
 5863W        W24717   0.410   3.957  15.577  0.2731 -0.4595 -0.0242
 5864W        W24718   1.047  13.484   2.113  0.1422 -0.1945  0.1513
 5865W        W24719  12.295   4.034   2.331 -0.3585  0.1431 -0.0224
 5866W        W24720   2.493   9.452   2.806 -0.0813 -0.0349  0.1287
 5867W        W24721  12.752  10.339   3.365  0.3081 -0.5044  0.0678
 5868W        W24722   1.270  17.367   3.632  0.0964 -0.2850  0.2067
 5869W        W24723   5.933   7.836  12.573  0.1195  0.0925 -0.0185
 5870W        W24724   9.056  13.464  15.868 -0.3829  0.2231  0.1618
 5871W        W24725  14.290   1.785  11.442 -0.2071 -0.2268 -0.0335
 5872W        W24726   1.982   3.461   2.242  0.0386 -0.0534 -0.2037
 5873W        W24727   2.375  14.530   2.595  0.1587  0.0329 -0.0319
 5874W        W24728  11.450  12.708   0.002 -0.3046 -0.1296  0.1845
 5875W        W24729   7.616   2.061  13.587 -0.2808  0.1316 -0.0076
 5876W        W24730  13.966  11.728  14.156 -0.1150 -0.1279 -0.2307
 5877W        W24731   5.495  16.992   3.276  0.0100  0.1491 -0.1819
 5878W        W24732   5.433  15.924   4.782  0.1245 -0.3235 -0.2485
 5879W        W24733  10.637   8.285  12.522 -0.2622  0.1617 -0.3017
 5880W        W24734   3.955  13.568   3.321 -0.0924  0.2422 -0.0981
 5881W        W24735  15.559  13.884  11.460 -0.1013 -0.0015 -0.1448
 5882W        W24736  14.288  14.076  13.358  0.0609 -0.0844 -0.1531
 5883W        W24737  10.627   0.677  14.314  0.0774 -0.0710 -0.2422
 5884W        W24738   7.904   2.914   4.934  0.0611  0.0531  0.2988
 5885W        W24739   3.759   8.295  12.025 -0.2379  0.0938  0.0801
 5886W        W24740   5.308   4.048  15.397  0.1164 -0.3004 -0.1460
 5887W        W24741  16.962   2.394   3.564  0.0633 -0.2065 -0.2795
 5888W        W24742  17.773   7.549  12.138 -0.0493 -0.3939 -0.3073
 5889W        W24743  14.352   8.466  13.420 -0.0795 -0.2241  0.1065
 5890W        W24744   6.491  16.031  16.221 -0.0016 -0.3227  0.3967
 5891W        W24745   7.446   9.760  12.295 -0.0976 -0.2321  0.1920
 5892W        W24746  12.755  15.070  13.269 -0.0450  0.4172 -0.2525
 5893W        W24747  12.092  17.394  12.612  0.1445  0.1396  0.0484
 5894W        W24748   5.418   2.876   3.116 -0.2181  0.0331 -0.1570
 5895W        W24749  17.697   4.676  15.732  0.0036 -0.0264 -0.1814
 5896W        W24750  11.956  11.713  12.637  0.1754  0.0747  0.0498
 5897W        W24751  11.188   4.737  14.047 -0.1773 -0.2125 -0.1313
 5898W        W24752  16.443  11.309   1.323  0.0607  0.0072 -0.0979
 5899W        W24753  14.053   5.882   2.604 -0.0792  0.0963  0.1238
 5900W        W24754   5.095  13.320   1.531  0.2231 -0.1429  0.0891
 5901W        W24755  14.523  11.572   2.256 -0.2235 -0.1991  0.0272
 5902W        W24756  11.346   0.733   2.629  0.2115  0.3111 -0.0141
 5903W        W24757   3.598   9.129  13.065  0.1208  0.1554 -0.1944
 5904W        W24758   4.496   1.394  15.835  0.1498 -0.0751 -0.4014
 5905W        W24759   1.115  10.976  12.834  0.1616  0.0609 -0.0290
 5906W        W24760   0.237  14.529   2.006  0.0819 -0.3434  0.1691
 5907W        W24761  16.824  10.514  10.708 -0.3111  0.0097 -0.1583
 5908W        W24762   6.254   3.819  15.145 -0.0271 -0.1681  0.0144
 5909W        W24763  15.982  10.297  11.965  0.1932  0.1378  0.0845
 5910W        W24764  16.540  17.553  15.406  0.0927 -0.1756  0.0490
 5911W        W24765  16.104  15.056  14.150 -0.1837  0.1519  0.3246
 5912W        W24766   9.405  17.203   0.503  0.4706 -0.2779  0.1944
 5913W        W24767  12.464  11.429   2.533  0.0681 -0.0320 -0.0462
 5914W        W24768   4.125  14.856  14.954 -0.1167 -0.3136  0.1829
 5915W        W24769   5.411  11.618  12.708  0.1983  0.1260 -0.0524
 5916W        W24770   6.078   8.842   4.875  0.0170  0.2775  0.1162
 5917W        W24771  12.640   2.133  15.261  0.0893  0.2489  0.1400
 5918W        W24772   1.468   0.111   0.703  0.0565  0.2153  0.0384
 5919W        W24773  11.440   4.151   3.154  0.1320 -0.0256 -0.0523
 5920W        W24774   0.325  17.845  13.696 -0.1253 -0.3409  0.3508
 5921W        W24775  17.659   5.389   0.407 -0.1319  0.1069  0.3965
 5922W        W24776  11.523   5.170   2.462 -0.0740  0.0479  0.2559
 5923W        W24777   5.706  10.366   5.061 -0.0151 -0.0165  0.0938
 5924W        W24778  12.204   5.759  11.383  0.1629 -0.1333 -0.1929
 5925W        W24779   3.947   0.415  15.575  0.1020 -0.3222  0.0226
 5926W        W24780  12.389  10.381   1.936 -0.4399 -0.1731 -0.1550
 5927W        W24781  10.003  16.002   4.167 -0.0316 -0.2580  0.1112
 5928W        W24782  11.663  12.625  12.559 -0.2517  0.1416 -0.3075
 5929W        W24783   0.282   9.808   3.292  0.2257 -0.0627 -0.1613
 5930W        W24784   3.929  11.562  14.061 -0.0972  0.0030  0.0985
 5931W        W24785   6.674  11.379   4.058 -0.1815 -0.1726  0.4569
 5932W        W24786  10.482   8.371   2.085 -0.3899 -0.0915 -0.1132
 5933W        W24787   3.842   7.197  12.560 -0.0261  0.0825  0.0283
 5934W        W24788  11.878  17.995  15.578  0.3207  0.1392  0.2445
 5935W        W24789   8.317   2.747  11.570  0.0110  0.0129  0.2791
 5936W        W24790  14.557   7.276   3.721  0.1128  0.1848  0.0401
 5937W        W24791   9.423   8.279   4.246 -0.1489 -0.2405  0.2204
 5938W        W24792  13.811  16.407  13.130  0.0166 -0.2268  0.2805
 5939W        W24793  10.779   0.405  15.905  0.0771 -0.1680 -0.0140
 5940W        W24794  15.844  17.653  14.023  0.2050 -0.1665 -0.1701
 5941W        W24795  14.664  12.753  16.076 -0.0917 -0.1531 -0.1069
 5942W        W24796   7.004  13.306   4.951  0.0153  0.2345 -0.0126
 5943W        W24797  13.529   6.335  11.672 -0.0491 -0.2401 -0.5133
 5944W        W24798  11.921  13.328   2.675  0.1562  0.0903 -0.0247
 5945W        W24799   5.905   6.969   0.215 -0.1957 -0.1529  0.0636
 5946W        W24800  10.201   4.836   5.668  0.0538 -0.1693 -0.2976
 5947W        W24801   3.190   5.570  14.147  0.2333 -0.0442 -0.1509
 5948W        W24802   4.792  15.561  14.139  0.3320  0.1498 -0.0470
 5949W        W24803   0.527  10.824  11.713  0.1814 -0.4472 -0.1208
 5950W        W24804   9.570  13.854  13.226  0.0820  0.0619  0.0116
 5951W        W24805   3.582   1.471  12.148 -0.0809  0.1348  0.0890
 5952W        W24806   5.007   6.632  15.785  0.1936 -0.2338 -0.2280
 5953W        W24807  10.376   0.096  13.022 -0.0887 -0.2652  0.2120
 5954W        W24808   6.165  17.918  13.360 -0.1756 -0.2717 -0.0394
 5955W        W24809  10.403   1.070   4.665 -0.1221 -0.0509 -0.1851
 5956W        W24810   4.748  11.742  12.406 -0.2118  0.2667 -0.0156
 5957W        W24811   4.805  17.721   1.701  0.2376 -0.3053 -0.0302
 5958W        W24812   4.812  11.165  16.073 -0.1100  0.0315 -0.0463
 5959W        W24813  16.347  14.618  12.966  0.1276  0.0771  0.1273
 5960W        W24814   6.256  14.860  15.940 -0.0154  0.0720  0.1394
 5961W        W24815  13.733  15.154   4.883  0.1548  0.0602  0.2259
 5962W        W24816  11.672   0.774  13.986  0.0812  0.0616  0.1703
 5963W        W24817  17.122   6.599  14.166 -0.1718 -0.1821  0.2006
 5964W        W24818   8.411   9.950  14.361 -0.2216 -0.2133  0.0714
 5965W        W24819   7.169   1.752  12.764 -0.1901 -0.2010  0.2946
 5966W        W24820   0.083  12.391   2.539  0.2122 -0.2626 -0.1369
 5967W        W24821   4.714  13.622   3.387  0.1533  0.0734  0.0228
 5968W        W24822   9.643   9.206  11.102  0.3188 -0.1168 -0.3843
 5969W        W24823   9.734  12.644  12.357  0.0189 -0.3475  0.1439
 5970W        W24824  10.996   9.417  13.121 -0.0529  0.0090  0.0704
 5971W        W24825   5.598   7.087  16.044  0.3064 -0.0088  0.1592
 5972W        W24826   2.775  10.716  15.771  0.2130  0.1464 -0.2620
 5973W        W24827   3.757   1.021   4.875  0.1191  0.0253  0.0438
 5974W        W24828   8.146  11.506   3.902  0.0676 -0.3385  0.0830
 5975W        W24829   8.458   9.059  14.350  0.1029 -0.3812 -0.2993
 5976W        W24830   9.826  13.798  15.373  0.1228  0.2857 -0.2204
 5977W        W24831  15.205   7.564   2.944  0.0075  0.1370  0.0687
 5978W        W24832  17.586   9.352   2.554 -0.0684 -0.0765  0.3450
 5979W        W24833   6.669   3.554  14.980  0.0192 -0.4070 -0.1124
 5980W        W24834  13.734  11.271  15.559  0.0076  0.0191 -0.0585
 5981W        W24835  12.586   0.043   0.572  0.2387  0.0970 -0.1980
 5982W        W24836   5.333   4.091   5.180  0.2337  0.1141 -0.0257
 5983W        W24837  11.618   0.723   5.068 -0.3693  0.2109  0.1188
 5984W        W24838  17.566  16.427   4.503  0.0357 -0.0948  0.0105
 5985W        W24839   3.158   9.095  12.408 -0.1972 -0.3886 -0.1317
 5986W        W24840  16.597   8.173   4.211  0.3459 -0.2697 -0.0027
 5987W        W24841   4.335   8.867  15.228  0.1103  0.0013 -0.2797
 5988W        W24842  10.698  17.818  12.746 -0.1175  0.1627  0.0042
 5989W        W24843   8.745   3.533   2.933 -0.3149  0.0663  0.0872
 5990W        W24844   0.250   8.545   4.409  0.2271 -0.1691  0.0343
 5991W        W24845  10.961  17.227  14.005  0.0723  0.1048 -0.1442
 5992W        W24846  10.386  12.416   3.227 -0.3679  0.3489 -0.0373
 5993W        W24847   8.981   9.977  11.531  0.1866 -0.0596  0.1661
 5994W        W24848  12.752  10.999   0.549 -0.0993  0.2566  0.1882
 5995W        W24849   1.599  11.629   1.967 -0.0036  0.1404 -0.2483
 5996W        W24850  15.901   4.806  15.098  0.0048 -0.1926 -0.2943
 5997W        W24851  15.645  10.725   4.553  0.1077  0.2614 -0.1670
 5998W        W24852   4.763   0.054  15.858  0.3426  0.1463 -0.1450
 5999W        W24853  11.998   8.598  13.867  0.0897  0.1018 -0.2483
 6000W        W24854  11.843  11.538   5.205 -0.0236 -0.2939  0.3470
 6001W        W24855  12.090   7.947  15.696 -0.5228  0.0363  0.1464
 6002W        W24856  16.558  12.326   2.159  0.3967 -0.3760  0.2100
 6003W        W24857   9.072   0.722   0.274  0.0100 -0.0269 -0.0769
 6004W        W24858   2.187   5.996  15.301 -0.0838  0.3342 -0.0868
 6005W        W24859   0.579  11.373   0.691  0.0222 -0.0940 -0.0222
 6006W        W24860  12.884  11.234  12.444  0.0626  0.0191 -0.1176
 6007W        W24861   7.401  14.534  13.461  0.0924  0.0747 -0.0973
 6008W        W24862  14.129  11.526   0.922  0.5007  0.0343 -0.1323
 6009W        W24863  15.359   2.274  11.448 -0.3308 -0.0501  0.0115
 6010W        W24864   7.026  16.193   0.736  0.0061  0.3410  0.0010
 6011W        W24865  13.232   2.406   1.525 -0.0366 -0.1069 -0.1461
 6012W        W24866  11.751   3.248   0.828 -0.0744  0.0106 -0.0594
 6013W        W24867  12.236  12.133  13.228  0.2255 -0.0766  0.0012
 6014W        W24868  10.625  15.648  14.556 -0.1878 -0.2402  0.1308
 6015W        W24869  11.807   3.575   3.862  0.1799  0.0646 -0.0787
 6016W        W24870  16.414   6.129   9.882 -0.1846  0.0450  0.0637
 6017W        W24871  14.265   5.445   3.480 -0.0588  0.0438 -0.0394
 6018W        W24872  16.559   5.158  14.249 -0.0571 -0.0096  0.0874
 6019W        W24873   5.215   3.394   1.831  0.4449 -0.0253 -0.0848
 6020W        W24874  12.057  17.567  15.354 -0.0092 -0.0500 -0.1288
 6021W        W24875   6.257  11.731  15.766  0.0996  0.2317 -0.3694
 6022W        W24876   8.447  13.495  13.957  0.0619 -0.2830  0.2617
 6023W        W24877  13.767  17.382  14.175  0.1488  0.1263 -0.1788
 6024W        W24878   2.077   8.565   0.962  0.0432  0.0309 -0.1827
 6025W        W24879   4.486  10.746  15.197  0.0437 -0.0477  0.0240
 6026W        W24880  11.513   1.674  15.907  0.1849  0.0865 -0.3368
 6027W        W24881  14.391  13.740  12.452  0.1220  0.1151 -0.2950
 6028W        W24882   5.877  14.967   3.827 -0.0422  0.0317  0.1906
 6029W        W24883  12.104  17.734   3.772  0.1945  0.0147 -0.1855
 6030W        W24884  10.316   9.469  14.299  0.3286 -0.1436  0.1430
 6031W        W24885   8.106   4.761  11.902  0.0887 -0.2171  0.2486
 6032W        W24886  18.036   6.835   5.180  0.1123 -0.1228 -0.1391
 6033W        W24887  16.841   7.957   2.391 -0.0929 -0.1690 -0.0652
 6034W        W24888   6.921   0.261   1.561 -0.0340  0.2641  0.0687
 6035W        W24889   1.498  11.375   0.329 -0.4382 -0.0925 -0.2387
 6036W        W24890  16.219   8.335   1.181 -0.1188  0.0485 -0.3705
 6037W        W24891   8.955   8.091   0.754  0.1073 -0.2214 -0.2215
 6038W        W24892  17.603   5.177   2.573  0.0111  0.0409  0.0237
 6039W        W24893   9.543   8.125   0.074  0.1353  0.0974 -0.0808
 6040W        W24894   8.410  13.756   4.991 -0.2303  0.1836  0.1602
 6041W        W24895   2.425   6.936   3.565  0.0982 -0.0174  0.0794
 6042W        W24896   1.210   9.614   2.339  0.0770  0.2541 -0.0214
 6043W        W24897  11.599   7.828   4.501  0.0040 -0.0634  0.0385
 6044W        W24898   7.256  12.584  12.296 -0.1893 -0.2587 -0.0799
 6045W        W24899  16.440   9.610  14.784 -0.0914  0.1235  0.0966
 6046W        W24900  17.444  15.017   1.147 -0.2158 -0.2704 -0.1975
 6047W        W24901   9.265  14.108  14.576 -0.1695 -0.2296  0.0268
 6048W        W24902   7.618   1.062   4.646  0.1833 -0.0234 -0.0845
 6049W        W24903   0.535  17.812   3.764 -0.3368 -0.3953 -0.2394
 6050W        W24904   7.620   0.240   1.035  0.2743 -0.0953  0.1614
 6051W        W24905   3.254   0.740   2.056 -0.0873 -0.1415  0.1663
 6052W        W24906  15.385  16.300   1.229 -0.0961 -0.0253  0.1454
 6053W        W24907   5.786   6.035  11.630 -0.0334  0.1551  0.1679
 6054W        W24908  13.405   6.309   0.287 -0.1149 -0.3080  0.0088
 6055W        W24909   3.237  14.876  11.940 -0.1506 -0.0114 -0.0169
 6056W        W24910   4.048  12.305  16.081  0.0785 -0.0175 -0.0126
 6057W        W24911  14.451   5.437   0.516  0.0252 -0.1617 -0.2436
 6058W        W24912  11.223   9.012  13.006 -0.1036 -0.1313 -0.0741
 6059W        W24913   2.123   4.648   3.496  0.0187  0.0527  0.2213
 6060W        W24914   9.946  12.971   2.284  0.2064 -0.1894  0.0537
 6061W        W24915  17.089   1.732  11.792 -0.0052  0.0964  0.2821
 6062W        W24916  16.990  13.862  14.919 -0.4724  0.2500  0.1967
 6063W        W24917   9.333   1.929   0.516  0.3160  0.2135  0.1025
 6064W        W24918   2.751  12.811  13.550  0.2395 -0.1710 -0.0053
 6065W        W24919  13.050  12.144   2.909  0.0181  0.0596 -0.1497
 6066W        W24920   7.480   8.382  12.329  0.2063  0.0295 -0.0384
 6067W        W24921   1.324  11.174  13.250 -0.1739 -0.1854 -0.0539
 6068W        W24922   2.924  15.672   4.278  0.3996  0.0840  0.0177
 6069W        W24923   1.298  13.592  12.145  0.1880 -0.1090  0.2612
 6070W        W24924  13.009  16.427  15.988  0.0081 -0.4872  0.1756
 6071W        W24925   1.198  11.758   0.012  0.2787  0.0845 -0.0559
 6072W        W24926   2.857   4.011   2.339 -0.2853  0.1303 -0.0668
 6073W        W24927  13.841   7.929  15.757  0.3617  0.1731 -0.0419
 6074W        W24928   7.307   3.153  11.689 -0.0933 -0.2054  0.0152
 6075W        W24929  10.401   6.756  10.681  0.3716  0.2259  0.0163
 6076W        W24930  17.131   0.384  15.210 -0.1151 -0.0647  0.0320
 6077W        W24931  16.258   5.207   1.967  0.3457 -0.1849  0.2084
 6078W        W24932   1.084   8.749  15.134 -0.1879 -0.0611  0.0929
 6079W        W24933   1.382  16.105  15.799  0.1410  0.0575 -0.1763
 6080W        W24934   5.109  11.560   0.391  0.2314 -0.0775 -0.5204
 6081W        W24935   5.310  15.289  15.165  0.0515 -0.1044  0.0702
 6082W        W24936   3.703   2.709  12.137  0.0553 -0.0467  0.1653
 6083W        W24937   4.546   0.065   2.036  0.0207 -0.1071  0.0898
 6084W        W24938  10.690  10.240   2.185  0.5778  0.0524 -0.0177
 6085W        W24939   1.766   2.269  15.159 -0.1846 -0.1032  0.0128
 6086W        W24940  10.919  10.365  11.700  0.0429  0.0968  0.1450
 6087W        W24941   1.623   0.906  13.155  0.0740 -0.0277 -0.1911
 6088W        W24942  12.548  12.470   3.348  0.1148 -0.1282  0.0070
 6089W        W24943  10.134   5.280  13.145 -0.1487 -0.1853 -0.2349
 6090W        W24944   8.306  12.237   0.266 -0.0886  0.1310  0.0427
 6091W        W24945   9.232   9.743  13.989  0.2320  0.1375  0.1358
 6092W        W24946  10.924  12.885  16.219  0.3234 -0.3116 -0.1041
 6093W        W24947  12.738   0.370  14.370  0.0853 -0.2134 -0.1355
 6094W        W24948  12.694  10.245   2.399 -0.1536  0.1138  0.1217
 6095W        W24949  10.033   4.430   2.331  0.1637  0.0183  0.0526
 6096W        W24950   6.337   2.335   5.081  0.0897 -0.0739  0.0947
 6097W        W24951  11.745   9.119   0.248  0.1979  0.0162  0.1756
 6098W        W24952  11.993  14.465  13.570 -0.0375  0.3220 -0.1156
 6099W        W24953  12.848   1.501   1.549 -0.1694  0.3405 -0.2457
 6100W        W24954  15.343  13.313  12.586 -0.0207  0.0498  0.1601
 6101W        W24955   9.722   2.058   0.886 -0.1566  0.2504 -0.0670
 6102W        W24956  13.404   6.294   4.235 -0.1449 -0.0651 -0.0818
 6103W        W24957   3.687   5.538  15.257 -0.1206 -0.1382  0.1325
 6104W        W24958  14.654   0.734  13.877 -0.2006  0.2810 -0.2456
 6105W        W24959  15.415  11.630  12.097 -0.0746 -0.1292 -0.0568
 6106W        W24960   3.519   7.094   2.899  0.3191 -0.0897  0.0309
 6107W        W24961   6.688  15.383   0.281  0.2673 -0.0157  0.0738
 6108W        W24962  17.963  16.932   0.667 -0.0670  0.0126 -0.1006
 6109W        W24963   8.461   1.765  12.975 -0.0799  0.1050 -0.1759
 6110W        W24964   5.672  10.001  13.170  0.2960  0.0658  0.2038
 6111W        W24965   1.159  14.296   1.507  0.0744  0.1523 -0.1948
 6112W        W24966  12.112  11.730   0.822  0.1735  0.2473 -0.1877
 6113W        W24967  10.251   5.911  12.005  0.3639 -0.1191  0.1139
 6114W        W24968   1.829  13.523  14.946 -0.0884  0.0905  0.0772
 6115W        W24969   5.179   1.651  12.613  0.0286 -0.1334 -0.2415
 6116W        W24970   8.564  16.932   1.626  0.1406  0.0246  0.0698
 6117W        W24971   1.398   9.463   0.947 -0.2263 -0.1016 -0.1092
 6118W        W24972  17.314  11.913   4.413 -0.0558 -0.0593 -0.4358
 6119W        W24973  12.157  10.262   1.477 -0.1381  0.1778 -0.4636
 6120W        W24974  10.614  10.455   6.097  0.2001  0.1373  0.2614
 6121W        W24975   3.381  10.872   3.210  0.2081  0.1541  0.0266
 6122W        W24976   7.898  15.838  13.050  0.3942 -0.0187 -0.2042
 6123W        W24977  17.667   9.323   1.012  0.1262 -0.0411  0.1149
 6124W        W24978   4.971  13.819  11.622  0.0358  0.2881 -0.1369
 6125W        W24979   1.548   3.901   4.579 -0.1769 -0.0462  0.1660
 6126W        W24980   3.508   3.082  15.630  0.1725 -0.3331 -0.1701
 6127W        W24981   2.347  11.152  13.362 -0.1541  0.1076 -0.2183
 6128W        W24982  13.889   6.157   4.271 -0.0825 -0.1524  0.0704
 6129W        W24983   1.923   9.173  16.178 -0.1516  0.1305  0.1097
 6130W        W24984  11.116   9.149  11.631 -0.0094  0.0055 -0.1605
 6131W        W24985   9.850  14.251  15.839 -0.2524  0.0844  0.2158
 6132W        W24986  12.412   7.896   1.717  0.0863  0.2044 -0.1236
 6133W        W24987   6.585  13.406  15.640 -0.0960  0.0770  0.0753
 6134W        W24988   1.855  11.470   3.198  0.0466 -0.1060 -0.1401
 6135W        W24989  10.609   1.511   5.510  0.0248 -0.0471  0.0126
 6136W        W24990  14.130  16.191  13.539 -0.0455 -0.1394  0.2191
 6137W        W24991   8.258  14.873  14.485  0.0425 -0.4030  0.2891
 6138W        W24992   0.938  11.798   0.524 -0.1968 -0.0055  0.1437
 6139W        W24993   3.085  12.085   4.705 -0.1728  0.1604 -0.1405
 6140W        W24994  11.890   1.408   1.911 -0.1491  0.0392  0.0757
 6141W        W24995  13.750   0.521   0.266  0.2018  0.1541  0.0573
 6142W        W24996  14.678   1.041   3.383 -0.0285 -0.0879 -0.0740
 6143W        W24997   0.907  14.618  15.977 -0.2529 -0.0138  0.1599
 6144W        W24998   8.439  14.947   4.587  0.1599  0.3202  0.1001
 6145W        W24999   7.519   5.047   1.265 -0.2100  0.2875  0.1676
 6146W        W25000   5.328   4.944  15.026  0.3826 -0.0643 -0.1699
 6147W        W25001   5.350   3.050   4.589 -0.0980  0.1465 -0.2654
 6148W        W25002   5.490   4.839  14.272 -0.0370  0.2757 -0.1471
 6149W        W25003   2.693   4.171   3.902  0.0096  0.3507  0.0489
 6150W        W25004   6.560  15.484   4.125 -0.2218 -0.0096  0.1753
 6151W        W25005  10.869  17.569  15.880  0.0312 -0.3830 -0.1037
 6152W        W25006  11.210   4.587   0.895 -0.0748 -0.2426  0.1055
 6153W        W25007  13.901  11.696   4.668  0.0397  0.1222 -0.0714
 6154W        W25008   1.689   9.849   6.048 -0.2957  0.1658 -0.1026
 6155W        W25009  14.125   3.022  12.883 -0.2374  0.0986  0.0103
 6156W        W25010  13.688   4.806   0.443 -0.1765 -0.0379  0.3028
 6157W        W25011  15.499  11.507  14.559  0.0725 -0.2361  0.0916
 6158W        W25012  11.185  15.357  13.258 -0.1803 -0.3011  0.1442
 6159W        W25013  17.933  11.488  11.622 -0.0786 -0.0500 -0.2143
 6160W        W25014   3.659  16.044   2.530  0.0556 -0.2803  0.0634
 6161W        W25015   7.909   9.667   4.462  0.0824  0.0624  0.2990
 6162W        W25016   7.771  13.079   4.811 -0.0029  0.2210  0.0431
 6163W        W25017  16.877   5.657  11.144 -0.2079 -0.0004 -0.1697
 6164W        W25018  15.499   4.531  15.339 -0.1185  0.2058 -0.1034
 6165W        W25019  17.152  13.464  13.439 -0.3433 -0.1745 -0.2476
 6166W        W25020  13.294  16.472  12.252  0.0260  0.2553 -0.0742
 6167W        W25021   7.794  17.738  12.628 -0.0035 -0.0491 -0.2284
 6168W        W25022  13.168  14.436   0.665  0.0229 -0.0212  0.2133
 6169W        W25023  11.485  11.046   5.846  0.0100 -0.2459  0.2095
 6170W        W25024   4.310   9.702   3.170  0.0607  0.0044  0.1998
 6171W        W25025  14.510  14.920  13.200  0.2831  0.0522 -0.0336
 6172W        W25026   3.200   1.969  11.479 -0.1751 -0.0765  0.0318
 6173W        W25027   9.375  12.720   0.140  0.1174  0.0888  0.0275
 6174W        W25028   4.593   1.348   1.124  0.0820  0.0816  0.0360
 6175W        W25029  16.114   2.590  16.181  0.3759 -0.1493 -0.0570
 6176W        W25030  15.518   0.358  14.994  0.1007  0.0467  0.1049
 6177W        W25031  13.706   2.440  15.012 -0.1384  0.0845  0.1535
 6178W        W25032  16.317  16.229  14.580  0.1431 -0.2164 -0.4679
 6179W        W25033   8.766   1.717   3.072  0.0180 -0.2115 -0.0871
 6180W        W25034  15.450   6.986   1.489 -0.0967  0.0277  0.0068
 6181W        W25035  17.262  16.409  13.937  0.0638  0.1745 -0.0768
 6182W        W25036  10.887  14.646   6.005  0.0832 -0.1154 -0.1904
 6183W        W25037   8.165  15.332   0.091 -0.0773  0.2808  0.1231
 6184W        W25038   3.214  13.858   1.812 -0.0905  0.0960  0.0041
 6185W        W25039   5.607  15.903   4.221  0.0989 -0.1181  0.0205
 6186W        W25040   4.297  17.205  14.633  0.0562 -0.1033 -0.1158
 6187W        W25041   9.194   5.488   1.159 -0.0165  0.0861 -0.1498
 6188W        W25042   2.989   5.090  14.128 -0.1888 -0.0774  0.0386
 6189W        W25043   7.335   9.394  11.629 -0.3911  0.0948 -0.0704
 6190W        W25044  14.456  10.635  14.010 -0.2085 -0.2263 -0.0442
 6191W        W25045   3.522  13.789   3.254  0.0881 -0.2199 -0.3333
 6192W        W25046   7.441   1.294  13.698  0.1162  0.0290 -0.2783
 6193W        W25047   2.813   8.524   1.381  0.3666 -0.2768 -0.1798
 6194W        W25048   1.484   6.515  13.300  0.1846  0.1914 -0.2075
 6195W        W25049   2.711  13.826   2.109  0.1069  0.3833 -0.1423
 6196W        W25050   3.576   6.020  12.989  0.0621  0.0774 -0.0533
 6197W        W25051  13.066  10.084   4.170  0.1878 -0.1091 -0.0946
 6198W        W25052  13.986   8.416   4.119 -0.0295 -0.4050  0.2271
 6199W        W25053  13.618   2.101  14.356  0.0085 -0.2341  0.1165
 6200W        W25054  17.155  12.074  13.618 -0.0594  0.0673 -0.2199
 6201W        W25055  10.399  10.447  11.853  0.2662  0.1750  0.2477
 6202W        W25056   1.608  11.823  10.910 -0.0680 -0.2407 -0.0093
 6203W        W25057   8.295   5.268  12.102 -0.1111  0.3778 -0.2689
 6204W        W25058   3.362   0.313   1.793  0.0290 -0.1225  0.3752
 6205W        W25059  16.622   6.717   2.877  0.2708 -0.0377  0.1376
 6206W        W25060   8.427   2.006   0.116 -0.0023 -0.2355 -0.0774
 6207W        W25061  15.018  13.425   4.086  0.0190 -0.2289 -0.0703
 6208W        W25062  10.480  11.479   0.383 -0.1288  0.0898 -0.2424
 6209W        W25063   5.754   4.167  13.893  0.2524 -0.0690 -0.2475
 6210W        W25064  15.159   8.952  14.360  0.0531  0.1419 -0.0308
 6211W        W25065  10.615   4.253  13.860 -0.2900  0.0415  0.2245
 6212W        W25066   9.329  12.500   4.823 -0.0500 -0.1304  0.1999
 6213W        W25067  11.258   8.968   1.646  0.0219 -0.0193  0.0263
 6214W        W25068   9.695   9.501  13.124 -0.2386  0.0693  0.0827
 6215W        W25069  11.474   1.487   0.467  0.1462 -0.1851 -0.1883
 6216W        W25070   3.681   2.810  14.808 -0.2843 -0.0475  0.3421
 6217W        W25071   8.481  14.471  14.189 -0.0594  0.1892  0.4294
 6218W        W25072  11.075   8.450  12.282  0.1274 -0.0688 -0.0081
 6219W        W25073  15.341   4.184  15.629  0.0340 -0.0376  0.2299
 6220W        W25074  10.456  16.838  12.538  0.0493  0.1006  0.3227
 6221W        W25075  16.359  12.727  14.071 -0.0869 -0.2070 -0.2119
 6222W        W25076  11.391  14.386  14.058 -0.0443 -0.1031 -0.0495
 6223W        W25077   4.169  16.480   0.659 -0.1524 -0.1129  0.1369
 6224W        W25078  16.222   0.889   1.536  0.2384 -0.1682  0.0020
 6225W        W25079  13.788  12.853   0.878 -0.2367 -0.2055  0.2284
 6226W        W25080  14.843   7.996   0.703 -0.0001  0.3649  0.0769
 6227W        W25081  15.475  14.972  14.978 -0.1862  0.0386  0.1286
 6228W        W25082  14.351   1.984  14.574  0.2518 -0.0381  0.0899
 6229W        W25083  13.965   4.721   4.153  0.2458 -0.0895  0.2484
 6230W        W25084   3.260   2.652  15.514 -0.3004  0.1061  0.3100
 6231W        W25085  12.995   8.652   0.989 -0.2750  0.1095 -0.2025
 6232W        W25086   0.021   5.805  15.391  0.2375  0.0957 -0.0956
 6233W        W25087   4.703   2.537  15.728 -0.0945 -0.2123 -0.1417
 6234W        W25088   8.614   6.633   3.241 -0.2969 -0.1104 -0.0906
 6235W        W25089   0.626  13.280  13.948  0.0641  0.1699  0.1557
 6236W        W25090  13.004  13.767   3.437 -0.1788 -0.1897 -0.0609
 6237W        W25091  14.726   4.590   3.183  0.1074  0.0716 -0.1390
 6238W        W25092   5.647  17.934  12.735  0.0803  0.2481  0.0784
 6239W        W25093   9.490  12.869   4.077 -0.4226 -0.1357 -0.0500
 6240W        W25094   9.634   1.371   3.160 -0.3557 -0.2906  0.1208
 6241W        W25095  11.762   7.944   2.679  0.1158 -0.2163 -0.0290
 6242W        W25096   6.987  10.194  15.013 -0.0261  0.0640  0.1116
 6243W        W25097  16.027  11.100  11.607  0.2205 -0.2997  0.0632
 6244W        W25098   8.486   3.913   1.403 -0.0156 -0.0318 -0.1554
 6245W        W25099   2.123   9.312  15.072 -0.2960  0.1761 -0.1423
 6246W        W25100   1.448   8.302  11.200  0.2062  0.2575 -0.0794
 6247W        W25101   3.160  11.617   2.334  0.1970  0.2736 -0.1924
 6248W        W25102  17.685  12.362  13.382 -0.1447 -0.1253 -0.0372
 6249W        W25103  16.512   9.082  16.032 -0.1599 -0.3066 -0.1380
 6250W        W25104  14.319  14.177   2.860 -0.3524  0.0847  0.0189
 6251W        W25105  12.879   8.899  15.364  0.1767 -0.0127 -0.3879
 6252W        W25106   3.515  10.791  13.832  0.1218 -0.1330  0.0032
 6253W        W25107  15.719   3.828  14.717  0.1133 -0.1009 -0.0661
 6254W        W25108   3.406  13.444   0.201 -0.0107 -0.2351  0.0016
 6255W        W25109   2.584   0.874  15.027  0.1521  0.1184 -0.0351
 6256W        W25110   7.223   2.408  15.744 -0.0738  0.1168  0.3025
 6257W        W25111   6.107  17.666  15.812  0.1779 -0.0904 -0.3225
 6258W        W25112   3.314  14.218   0.921  0.1300 -0.2294 -0.0645
 6259W        W25113  15.470  12.614  14.542  0.0699  0.0700 -0.0036
 6260W        W25114  11.298  11.857  15.685  0.1362 -0.0492  0.0031
 6261W        W25115  14.803  14.924  13.627  0.0797 -0.0318  0.0630
 6262W        W25116   6.677   1.025   0.008  0.2807  0.1160 -0.0234
 6263W        W25117   7.109  11.556   1.773 -0.1243 -0.0651  0.1891
 6264W        W25118  10.259   2.707  16.023 -0.1584 -0.0519 -0.1356
 6265W        W25119   4.463   6.244   4.796 -0.1735  0.0751  0.1863
 6266W        W25120   7.292   1.341   4.236 -0.1259  0.1195 -0.4566
 6267W        W25121   3.087  12.906   3.437 -0.0905 -0.0818  0.1501
 6268W        W25122  16.690   7.008  14.345  0.2507 -0.0292 -0.1994
 6269W        W25123  10.300  17.033   2.741 -0.0515 -0.0431  0.1980
 6270W        W25124   4.909  10.954   3.457 -0.3921 -0.1365  0.1086
 6271W        W25125  12.886  15.185   1.881 -0.1480  0.1003  0.1888
 6272W        W25126   8.427  14.817  13.157 -0.0157  0.1797  0.1423
 6273W        W25127  14.284  13.807   3.261 -0.2865 -0.2243 -0.1353
 6274W        W25128   2.819   5.364  13.184  0.1216  0.1349  0.0831
 6275W        W25129   6.055   5.187  14.448  0.1989  0.2813  0.0123
 6276W        W25130   6.128  12.457   2.051  0.0390 -0.1157 -0.1036
 6277W        W25131   5.208  18.009  14.978 -0.3200 -0.1174  0.0984
 6278W        W25132  17.627  17.543  13.315  0.0661 -0.0818 -0.2526
 6279W        W25133   8.110   4.388   0.154 -0.2903 -0.1087 -0.1191
 6280W        W25134   8.462   2.959  14.539 -0.1577  0.0232 -0.0242
 6281W        W25135  12.741   0.050  14.857  0.3232  0.2986  0.2383
 6282W        W25136  12.534   6.623  11.144 -0.0735  0.1453  0.1585
 6283W        W25137  11.552   6.697  12.854  0.0586  0.1349 -0.0023
 6284W        W25138   7.450  11.679   0.629 -0.2467  0.1515  0.2887
 6285W        W25139  13.123   7.821   4.235 -0.1785  0.1434  0.2900
 6286W        W25140   2.215  12.028   2.341  0.0191  0.1523  0.2786
 6287W        W25141   4.687  16.394  15.640 -0.0187  0.0737 -0.1683
 6288W        W25142  14.782   4.396  14.712  0.0435  0.0592  0.0217
 6289W        W25143  16.364   3.690   3.468 -0.0045 -0.0096 -0.0128
 6290W        W25144   4.360   0.035   0.590 -0.1348 -0.1869 -0.0736
 6291W        W25145   1.353  10.965  16.213  0.1069  0.1865 -0.0585
 6292W        W25146   6.901   0.612  13.009 -0.1469  0.0285 -0.3040
 6293W        W25147   6.350  12.097  13.228 -0.1447 -0.1743  0.3101
 6294W        W25148   3.313  14.969   5.043 -0.0579  0.0498 -0.3797
 6295W        W25149   8.570  11.781  15.681  0.0295 -0.1669  0.1026
 6296W        W25150  10.737  14.917  14.457  0.2367 -0.0789 -0.1488
 6297W        W25151   2.892  11.598  14.959 -0.1662 -0.0632 -0.0995
 6298W        W25152   8.193   3.257  14.807 -0.1362 -0.0844 -0.0307
 6299W        W25153  14.572   3.739  11.581 -0.1285 -0.1025 -0.1574
 6300W        W25154   9.428   1.633   1.765  0.2161 -0.2267 -0.0354
 6301W        W25155  12.237   2.209   1.424  0.1802  0.0205  0.1435
 6302W        W25156   4.878   2.287  11.755  0.0217 -0.2086  0.1301
 6303W        W25157  15.458   5.724   3.735 -0.2975  0.1535 -0.0805
 6304W        W25158   3.613  10.354  12.671 -0.0238  0.0447  0.4173
 6305W        W25159  17.066  15.398   2.639 -0.1781  0.0438  0.0803
 6306W        W25160  16.649  17.349  13.681  0.0285  0.0994 -0.3306
 6307W        W25161   0.478  13.199   3.661 -0.0654  0.2656 -0.0465
 6308W        W25162  12.469  16.733   2.773 -0.0649 -0.0004 -0.4152
 6309W        W25163   8.102   5.200  11.611 -0.1395  0.1586  0.2380
 6310W        W25164  11.982  15.506   0.841  0.0411 -0.1905 -0.0112
 6311W        W25165   6.852   1.634  12.321 -0.2812 -0.0065  0.2785
 6312W        W25166   1.126  10.589   4.969  0.0916  0.0087  0.0216
 6313W        W25167   1.874  10.090  15.788 -0.1706  0.1927 -0.2844
 6314W        W25168   3.609   4.764   3.900  0.2541 -0.0687 -0.0990
 6315W        W25169  16.828   9.058   4.393 -0.0184  0.4505  0.1591
 6316W        W25170   8.901   3.413   0.005  0.1029 -0.0391  0.0021
 6317W        W25171  15.337  16.565  12.027 -0.2784 -0.0086 -0.1389
 6318W        W25172   5.850   9.541  15.183  0.0375 -0.0571 -0.0200
 6319W        W25173  11.723   4.042   0.967  0.0335  0.3694  0.0016
 6320W        W25174  15.147   0.911  13.972 -0.2353 -0.3014  0.1048
 6321W        W25175   8.493  10.495   2.234 -0.5473  0.0782 -0.1158
 6322W        W25176  11.742  15.721  11.261  0.1398 -0.0081  0.0806
 6323W        W25177   8.601   7.088  14.944  0.0107 -0.0103 -0.1077
 6324W        W25178   0.287   9.865  13.283  0.1644 -0.2824  0.2403
 6325W        W25179  13.752   9.268   1.935  0.0164 -0.0896 -0.1298
 6326W        W25180  12.342   5.370   4.162  0.2560  0.1532 -0.0095
 6327W        W25181   1.486   9.337  14.410  0.2875  0.1859  0.1358
 6328W        W25182   2.982  11.422  11.298 -0.0777  0.4423  0.2451
 6329W        W25183  11.051  14.122   1.674 -0.0611  0.0584 -0.1046
 6330W        W25184  14.232   7.229   2.024 -0.0318 -0.1427  0.0511
 6331W        W25185  12.253  10.097  12.592  0.2880  0.0804  0.3369
 6332W        W25186   7.071   8.412   2.452  0.1757 -0.0160 -0.0060
 6333W        W25187  13.090   5.961  13.381 -0.2127  0.0413 -0.1286
 6334W        W25188   5.268   6.756   0.099  0.2098  0.0892  0.0781
 6335W        W25189   1.505   0.993   2.329  0.0939  0.5915 -0.0046
 6336W        W25190   3.231   9.233   3.992 -0.1353  0.0672  0.1236
 6337W        W25191  12.061   1.828   2.162  0.2788 -0.2338  0.2449
 6338W        W25192  11.960   2.196  13.945 -0.2058  0.1393 -0.0807
 6339W        W25193   2.069  14.072   2.802  0.1229 -0.1236 -0.2467
 6340W        W25194  17.261   4.994   0.712 -0.1894 -0.1856  0.1105
 6341W        W25195   6.349  12.735   0.359  0.4192 -0.1337 -0.0768
 6342W        W25196  17.563   6.718   0.370  0.2063  0.1016  0.1228
 6343W        W25197  10.161   8.122   1.167 -0.1655 -0.2700  0.1168
 6344W        W25198   4.101   5.640   4.030  0.2567  0.1355 -0.0080
 6345W        W25199  15.836  17.626  12.253 -0.3450  0.1186 -0.0957
 6346W        W25200  11.185   3.491   1.659  0.1182 -0.0409  0.1148
 6347W        W25201  16.712   3.230  16.018  0.0455  0.0326  0.0300
 6348W        W25202   3.309   7.464  12.865 -0.1294 -0.3959  0.1113
 6349W        W25203  11.599   2.928   2.407  0.2143 -0.1114 -0.2561
 6350W        W25204   6.151  13.334   3.010  0.1267  0.1601  0.1523
 6351W        W25205  12.442   8.506   3.016  0.1650 -0.1875 -0.0898
 6352W        W25206  15.109   0.088   3.178 -0.2146  0.1922  0.0026
 6353W        W25207   9.896   5.994   4.541  0.2766 -0.4562 -0.2107
 6354W        W25208   7.600   1.646  15.074 -0.3020 -0.0565 -0.0953
 6355W        W25209   6.215  10.960  14.129  0.1729 -0.1054 -0.1275
 6356W        W25210   8.618  14.231   0.074  0.1634  0.1922 -0.0381
 6357W        W25211  11.103  14.236  11.732  0.0588  0.2028 -0.1653
 6358W        W25212   1.570   3.339  14.171  0.1342 -0.1745 -0.0835
 6359W        W25213  12.602   7.792  11.746  0.1059  0.2753 -0.1226
 6360W        W25214   1.228  10.640   1.867  0.1305 -0.0807  0.2216
 6361W        W25215  10.068  11.428  14.346 -0.0630 -0.0787 -0.0447
 6362W        W25216   3.079  15.365   1.529 -0.1789  0.1644  0.0638
 6363W        W25217   1.990   2.244  13.334 -0.0577  0.0650  0.1307
 6364W        W25218  10.792  14.377  12.106 -0.1081 -0.1508 -0.0724
 6365W        W25219   9.677  12.304  15.163 -0.3026  0.1323 -0.1573
 6366W        W25220   3.957  13.478   2.818  0.0754 -0.0811  0.3382
 6367W        W25221   6.988  17.051   2.227  0.0865  0.0521  0.2320
 6368W        W25222  11.931  17.145  15.551 -0.1254  0.1306 -0.0926
 6369W        W25223   2.943   2.229   0.956 -0.2647  0.0308  0.1830
 6370W        W25224  16.068   3.155  16.054  0.1864  0.0123 -0.1082
 6371W        W25225  14.277   6.170  11.373 -0.1617  0.2796 -0.1126
 6372W        W25226   2.950   8.497  12.051  0.3038 -0.1770  0.4572
 6373W        W25227  12.910  10.736  15.553  0.1239 -0.1339 -0.0111
 6374W        W25228  11.494   9.022   4.939  0.0672  0.0898 -0.1499
 6375W        W25229   4.277  10.368  12.125 -0.0759  0.0088 -0.1819
 6376W        W25230   6.633  17.210  15.062 -0.1723  0.0052 -0.2420
 6377W        W25231  17.026   3.293   0.275  0.0272 -0.2533 -0.0388
 6378W        W25232   7.135   2.486  14.543  0.2373 -0.1264 -0.2129
 6379W        W25233   2.916   0.952  12.327 -0.1711 -0.0118  0.2440
 6380W        W25234   3.508   4.737  14.882 -0.1787  0.4290  0.2633
 6381W        W25235   9.697   8.206  11.665 -0.3934  0.0821  0.0934
 6382W        W25236   3.246  11.117   1.020  0.4396  0.0633 -0.2266
 6383W        W25237   8.338  13.254  15.428 -0.0247 -0.1686  0.1188
 6384W        W25238  12.784   5.634   4.840 -0.2457 -0.2798 -0.4455
 6385W        W25239   5.886   2.265   2.302 -0.0374  0.2534  0.2002
 6386W        W25240   6.001   1.870   1.969  0.1501  0.1452 -0.0822
 6387W        W25241  12.990   2.069  14.133  0.4704  0.3934  0.2718
 6388W        W25242   1.719  14.693   4.831 -0.0949  0.1183 -0.1949
 6389W        W25243  17.258  16.129  13.480 -0.2122 -0.1118 -0.1146
 6390W        W25244   9.084  14.099   1.366  0.2951 -0.1019  0.0218
 6391W        W25245  14.978   3.493  15.206 -0.1768  0.1097 -0.0165
 6392W        W25246   1.046   0.417  16.160 -0.0964  0.1636  0.1236
 6393W        W25247  13.290   4.666   6.137  0.1165 -0.3162 -0.0395
 6394W        W25248   1.222   1.463   0.783  0.0329  0.1125 -0.1494
 6395W        W25249  16.834  13.122   1.895  0.0167  0.2173 -0.1484
 6396W        W25250  15.265   9.799   5.302  0.1949  0.1143 -0.1946
 6397W        W25251  17.193   6.527  11.109  0.2523  0.1738 -0.2984
 6398W        W25252   2.993   4.132  13.093  0.1717 -0.3085  0.1003
 6399W        W25253  11.007   4.663  13.128  0.2358 -0.0909  0.1842
 6400W        W25254   2.038  15.979   2.514  0.4788 -0.0284  0.6413
 6401W        W25255   1.092   0.313   4.316 -0.2013  0.3957  0.0365
 6402W        W25256  13.004  16.334  14.191 -0.0455 -0.2284 -0.0151
 6403W        W25257   9.941  17.518   5.086  0.1141 -0.0788 -0.1345
 6404W        W25258  14.170  15.726   4.147  0.3326  0.0915  0.1476
 6405W        W25259   6.172   5.870   3.740 -0.1743  0.3435  0.0470
 6406W        W25260   5.874   7.630  11.856  0.1001 -0.0642  0.2078
 6407W        W25261  17.426   0.652   2.790  0.1916 -0.0698  0.0719
 6408W        W25262  16.616   5.481   2.290 -0.2942 -0.0861 -0.1241
 6409W        W25263   1.967  17.434  14.532  0.2644  0.3819  0.0587
 6410W        W25264   6.963  16.930  11.152 -0.3408  0.2892  0.1793
 6411W        W25265  11.094   5.043  15.402 -0.0748 -0.0208 -0.1604
 6412W        W25266   5.142  13.620  12.970 -0.1779 -0.1284 -0.1038
 6413W        W25267   3.502  13.464  13.233 -0.0304  0.1011 -0.2262
 6414W        W25268  16.686  13.333   4.968 -0.0729  0.0100  0.1312
 6415W        W25269  12.058  13.546   0.111 -0.0459 -0.0593  0.0253
 6416W        W25270   4.128   1.723  11.312  0.0620  0.1762 -0.0262
 6417W        W25271  16.274  14.592   2.866  0.3984  0.3460 -0.3434
 6418W        W25272  17.183  16.135   4.630  0.2282  0.3477  0.0172
 6419W        W25273  13.382  17.740  11.820 -0.0768  0.0509  0.0329
 6420W        W25274   7.692  13.827   5.169 -0.1346 -0.1449  0.4478
 6421W        W25275   4.571  13.533  13.746  0.2376  0.0115  0.0880
 6422W        W25276   4.762  17.224  13.541  0.1039 -0.0952 -0.0201
 6423W        W25277   7.693   1.098   2.757  0.0763  0.0718  0.2598
 6424W        W25278   3.753  12.955   0.365 -0.0621 -0.4264  0.0452
 6425W        W25279   8.175  10.368   2.568  0.0391 -0.1740 -0.0313
 6426W        W25280   3.808  14.234  13.135 -0.1890 -0.1699 -0.0180
 6427W        W25281   3.778   9.159   2.893 -0.3354 -0.0161  0.2126
 6428W        W25282   6.227   6.714   2.119  0.1171 -0.3316 -0.2510
 6429W        W25283  10.687  11.217   2.142  0.0219 -0.2288 -0.1232
 6430W        W25284   5.636  16.695   4.111 -0.4388  0.3627 -0.2050
 6431W        W25285  12.062   2.333   0.841  0.1333 -0.1632 -0.1769
 6432W        W25286   0.906   0.331   3.267  0.1116 -0.1479 -0.0466
 6433W        W25287   7.016  11.189   4.478  0.0606  0.0871 -0.1457
 6434W        W25288   8.937   9.982   0.641  0.0334 -0.0666  0.1068
 6435W        W25289  13.913  11.495  12.380  0.0409 -0.3822  0.1691
 6436W        W25290   4.916   8.450   4.169  0.1266  0.1009 -0.2626
 6437W        W25291  15.763  16.346   5.673  0.0115  0.1569 -0.1202
 6438W        W25292  14.455   0.376  14.210  0.2365 -0.2021 -0.1098
 6439W        W25293  15.493   4.638  11.969 -0.2054  0.2131  0.2892
 6440W        W25294   5.654  12.166  13.843  0.0977 -0.1732  0.3637
 6441W        W25295   3.155   1.487  16.009 -0.2502  0.1553  0.0370
 6442W        W25296   1.823   9.155   3.845 -0.0060 -0.1686  0.0296
 6443W        W25297  12.155  16.322   2.607  0.2478 -0.0026 -0.0780
 6444W        W25298   4.929   9.075  16.088 -0.0151 -0.0461 -0.4405
 6445W        W25299  16.877   8.514   4.469 -0.0543  0.1335 -0.0846
 6446W        W25300  17.474   6.464   2.710 -0.0868  0.0289 -0.4824
 6447W        W25301  14.720  10.262   2.510  0.1036  0.0071  0.4638
 6448W        W25302   0.336   5.619  14.791  0.1199  0.4401 -0.0838
 6449W        W25303   7.057   0.973  15.591 -0.3010 -0.0747  0.1390
 6450W        W25304  14.048  14.216   1.262 -0.1064  0.2664 -0.2077
 6451W        W25305   2.080  11.163   1.199 -0.0726 -0.1070  0.3129
 6452W        W25306   5.412   1.945  14.464  0.3191  0.1533 -0.1307
 6453W        W25307   3.647   6.497  15.592  0.0604  0.1197  0.1716
 6454W        W25308  16.180   3.180  14.198  0.0610  0.0789 -0.2385
 6455W        W25309   2.450   2.194   3.493 -0.1119 -0.0008  0.1302
 6456W        W25310  15.124   6.946   3.025  0.0225 -0.1000 -0.1246
 6457W        W25311  17.821  11.222  15.881 -0.1514 -0.1128 -0.2009
 6458W        W25312  13.476   3.923  14.271 -0.1438  0.0076 -0.0316
 6459W        W25313   3.312  14.413  13.022 -0.4846 -0.0244 -0.0615
 6460W        W25314  17.805   0.767   3.775 -0.0197 -0.1388  0.3530
 6461W        W25315  10.688   5.347  15.430 -0.1527  0.1717 -0.0756
 6462W        W25316  10.574   6.086  13.399  0.1879 -0.0570 -0.2472
 6463W        W25317  15.886   0.844   5.760 -0.1381 -0.0211  0.2173
 6464W        W25318   2.045   8.915   4.649 -0.3003 -0.1284 -0.2444
 6465W        W25319  17.715   2.899  12.826  0.1122 -0.1062  0.0448
 6466W        W25320   4.002   3.321   0.605 -0.0064  0.0585  0.0759
 6467W        W25321  16.685   5.367  15.809  0.0994  0.1432  0.2041
 6468W        W25322   2.062  11.922  13.446 -0.2638 -0.2059  0.0160
 6469W        W25323  14.082  11.115  12.961  0.0800 -0.0816  0.1118
 6470W        W25324  17.252  12.457   1.005 -0.1757  0.1474  0.1827
 6471W        W25325   1.948  13.553   4.730  0.0483  0.0572 -0.1910
 6472W        W25326   3.531   6.005   0.657 -0.0906  0.1788 -0.0175
 6473W        W25327  12.164   4.631  13.389 -0.1858  0.1044  0.0627
 6474W        W25328  13.970   6.140   3.720  0.0761 -0.3052 -0.0356
 6475W        W25329   4.664   9.789  13.244 -0.0607 -0.2036  0.1999
 6476W        W25330  16.302   0.379   3.598 -0.1201 -0.0414  0.1280
 6477W        W25331  13.858   2.027   2.636 -0.0487  0.0720 -0.1076
 6478W        W25332   6.925   5.235   4.255  0.0234  0.0168  0.1222
 6479W        W25333  13.442  10.939  12.834 -0.0541  0.1337  0.1466
 6480W        W25334  12.966  17.746   1.834  0.1116  0.2690 -0.1157
 6481W        W25335   7.101  16.008   3.754 -0.2011  0.1191  0.2396
 6482W        W25336  10.901   5.714  12.666 -0.0674 -0.0744  0.0268
 6483W        W25337   2.615  11.726  16.038  0.2217  0.1011  0.0139
 6484W        W25338   3.576   2.176   3.501  0.2581 -0.3905 -0.1512
 6485W        W25339  10.339   7.034   1.150 -0.1610  0.0648 -0.1607
 6486W        W25340   5.801  17.735   4.028 -0.1274 -0.0187  0.0510
 6487W        W25341  10.481   0.958   5.145  0.4137 -0.1549 -0.2621
 6488W        W25342   4.045  15.827  14.773  0.2887  0.0898 -0.0390
 6489W        W25343   9.464  14.891  13.030 -0.0491 -0.1156 -0.0275
 6490W        W25344   2.414   6.104   1.373  0.3518 -0.0009  0.4582
 6491W        W25345  16.792   9.697   0.079  0.1642 -0.0318 -0.1943
 6492W        W25346   0.848   6.976   0.497 -0.1173  0.0826 -0.2136
 6493W        W25347  17.290   1.731   0.048 -0.3347  0.0078  0.2037
 6494W        W25348   5.775  15.794  14.235 -0.1150  0.0246 -0.4331
 6495W        W25349  15.465  11.689   2.484 -0.0241 -0.0611  0.0570
 6496W        W25350   0.450  15.910   2.658  0.0545  0.2263 -0.0366
 6497W        W25351   9.254   3.930  14.020  0.1497  0.1472 -0.0865
 6498W        W25352  11.444   8.955  12.529 -0.2201 -0.1050 -0.0983
 6499W        W25353   5.483   9.798  12.396  0.0079 -0.0570 -0.1719
 6500W        W25354  15.646  13.247   1.002 -0.0068 -0.0668 -0.0925
 6501W        W25355   2.770   3.966  13.992 -0.0068 -0.2143 -0.1602
 6502W        W25356   0.370  13.026  13.068  0.1910  0.0085  0.0241
 6503W        W25357   3.821  17.599   3.375 -0.1367  0.0812 -0.1752
 6504W        W25358   2.852   9.430  13.724  0.1161  0.1236  0.0894
 6505W        W25359   5.534   4.554   2.219 -0.1529  0.1186 -0.0974
 6506W        W25360   2.128  14.613  16.119  0.1020 -0.2524 -0.0078
 6507W        W25361  13.989   7.276  12.689 -0.1007  0.1254 -0.2011
 6508W        W25362   7.575   7.935   2.639 -0.0195 -0.0275 -0.0727
 6509W        W25363  10.035   6.989   5.006 -0.0900  0.0224 -0.1780
 6510W        W25364  11.138   0.822   1.605  0.2031 -0.4064 -0.3072
 6511W        W25365   9.508   5.780  12.739  0.2517 -0.0149  0.0944
 6512W        W25366   3.409  16.207  12.401 -0.2263  0.2352 -0.3287
 6513W        W25367   4.844   6.639   2.021 -0.2801  0.6218 -0.0551
 6514W        W25368   3.517   1.389  15.429  0.1968 -0.1384 -0.1142
 6515W        W25369   1.045  15.895  13.318 -0.0786 -0.1717 -0.1909
 6516W        W25370   1.824  10.308  13.294 -0.0472  0.1080 -0.3903
 6517W        W25371  16.364   6.551   0.052 -0.1284  0.2399  0.1061
 6518W        W25372   7.149   0.946   1.183 -0.2207 -0.0493 -0.2431
 6519W        W25373  16.052   1.698   1.763  0.1761  0.4131 -0.2961
 6520W        W25374   3.279   5.607   4.549 -0.0791 -0.0026  0.2345
 6521W        W25375   6.081   5.244  11.493  0.3130 -0.1391  0.0690
 6522W        W25376   7.826  12.867   2.025 -0.1768  0.1051 -0.0402
 6523W        W25377  14.249  15.420  13.094 -0.0368  0.0746 -0.2582
 6524W        W25378   6.449  15.660   4.586  0.0663  0.0162 -0.0195
 6525W        W25379  12.161   9.829   4.267  0.0268 -0.0197 -0.2379
 6526W        W25380   4.678   1.052   4.583  0.3677  0.3189 -0.1347
 6527W        W25381   2.471  17.741   4.745  0.2537 -0.2468 -0.3969
 6528W        W25382   0.430  13.845  14.987 -0.0828  0.0653 -0.1290
 6529W        W25383   7.963   0.739  12.472  0.1056  0.0658 -0.0083
 6530W        W25384  10.177   1.722  15.736  0.0106  0.1181  0.1119
 6531W        W25385   5.577   1.859  15.826  0.0880  0.2256  0.1098
 6532W        W25386  12.165  14.319   2.450  0.1523  0.1031 -0.1035
 6533W        W25387   1.866   5.875   4.175  0.0286 -0.2694 -0.0626
 6534W        W25388   7.914  12.890  15.459 -0.0637  0.0877  0.1325
 6535W        W25389   6.643   7.017   3.841 -0.3027 -0.0144  0.1715
 6536W        W25390   4.478   9.309  15.030  0.4891  0.0543 -0.1218
 6537W        W25391  14.017   7.436   2.744  0.4259 -0.1027 -0.0557
 6538W        W25392   8.491  17.361   4.335  0.0553 -0.0871 -0.0600
 6539W        W25393   9.263   0.628  12.918 -0.0214 -0.2572  0.2028
 6540W        W25394   5.117   6.903  13.094  0.1284  0.1340  0.1927
 6541W        W25395   2.829  16.904  14.403 -0.0583 -0.2386 -0.0174
 6542W        W25396   3.398   1.335   4.861 -0.1549  0.4632  0.1359
 6543W        W25397  13.205  14.530  13.365  0.2834 -0.1058 -0.1522
 6544W        W25398   5.845   9.275   2.757 -0.1712  0.1412 -0.0669
 6545W        W25399  15.680   4.582   4.059 -0.0791  0.0548 -0.2306
 6546W        W25400   3.227   7.352   3.678  0.0742  0.1656 -0.0904
 6547W        W25401   8.186  18.001   4.062 -0.1397  0.0839 -0.1003
 6548W        W25402  15.369  10.249   5.132  0.1509 -0.0604  0.0436
 6549W        W25403  14.880  10.472  15.179  0.0745  0.0153 -0.2602
 6550W        W25404  13.931  16.253   2.177  0.1409  0.2520 -0.0936
 6551W        W25405   5.528   5.222  12.729 -0.0918  0.0437  0.2573
 6552W        W25406   1.244   3.735  13.441 -0.0809 -0.1376  0.0648
 6553W        W25407   5.837  12.993  11.115  0.0260  0.0478  0.0771
 6554W        W25408   5.363   5.095   1.746 -0.1193 -0.1762  0.0261
 6555W        W25409   5.747   8.288  12.497  0.1147 -0.0025 -0.0178
 6556W        W25410   6.139   6.779   4.016  0.0283  0.0173  0.2529
 6557W        W25411  11.779   0.724   4.154 -0.0314  0.0072  0.0707
 6558W        W25412  16.835   1.787   0.908 -0.0735 -0.0945 -0.0666
 6559W        W25413   1.468   1.185  15.531 -0.3418  0.0948 -0.1134
 6560W        W25414   9.634   9.113   3.590 -0.2389  0.0471 -0.2479
 6561W        W25415   5.489  17.752  14.001  0.0791 -0.0215 -0.0276
 6562W        W25416  13.858   7.995  12.753  0.1994  0.2337  0.3512
 6563W        W25417  17.977   3.771  13.475  0.3616 -0.0682 -0.1607
 6564W        W25418   4.785  14.647   1.557  0.1346 -0.0150 -0.1601
 6565W        W25419  12.783   9.212   4.618 -0.1448  0.0123  0.0154
 6566W        W25420   2.866   6.573  13.274 -0.1934 -0.3334  0.1301
 6567W        W25421  12.111  10.001  14.065 -0.0207 -0.0219 -0.0769
 6568W        W25422  16.697   7.646   2.854 -0.0784 -0.1447 -0.3631
 6569W        W25423   8.669  10.903   0.651 -0.1845 -0.2775 -0.1314
 6570W        W25424  15.294  17.155   1.675  0.1830 -0.0262 -0.3173
 6571W        W25425  10.827  16.641  15.044 -0.1936 -0.3714  0.2765
 6572W        W25426  13.312   2.244  14.789  0.0562  0.2238 -0.0420
 6573W        W25427  12.098   0.447  14.081 -0.1999  0.1007  0.2035
 6574W        W25428  17.735   5.753  12.655  0.1597 -0.0575  0.2102
 6575W        W25429  16.877   6.420  10.009  0.1302  0.3407  0.0540
 6576W        W25430  17.616  11.782   2.098 -0.0019 -0.1095 -0.0533
 6577W        W25431   9.842   7.325  13.500  0.0260  0.2021  0.0628
 6578W        W25432  15.084   4.116  12.909  0.1133  0.0886 -0.0393
 6579W        W25433   4.354   4.627  15.971  0.0720  0.0792 -0.0866
 6580W        W25434   3.174   0.348   5.633  0.0810  0.1667 -0.4023
 6581W        W25435   9.851  12.635   0.809 -0.0677  0.0413 -0.0083
 6582W        W25436  14.347   2.198  15.033  0.0865  0.1250 -0.0864
 6583W        W25437  11.593   4.375  15.264  0.2293 -0.0176 -0.1014
 6584W        W25438   9.631  12.338  12.749 -0.1066  0.2567 -0.1586
 6585W        W25439   9.623   2.512  14.744  0.2205  0.1984 -0.1282
 6586W        W25440   7.243   8.180   0.639  0.2508 -0.0576  0.0694
 6587W        W25441   1.594   6.247   1.252  0.0963 -0.1226 -0.3085
 6588W        W25442   7.960  15.189   0.654  0.1751 -0.0812  0.1693
 6589W        W25443   5.252   6.683  14.140  0.1032 -0.1467  0.0261
 6590W        W25444   2.421   3.633  14.340 -0.2837  0.0140  0.0052
 6591W        W25445   7.387  16.286   2.091 -0.1965  0.0210  0.0500
 6592W        W25446   4.003  17.625   4.196  0.2628  0.2075 -0.1085
 6593W        W25447  13.436   0.147  13.230  0.0007  0.2424  0.0436
 6594W        W25448  16.467   3.864   0.445  0.0642 -0.1363  0.2178
 6595W        W25449   0.048   0.954   0.412 -0.2394  0.1513  0.1434
 6596W        W25450  16.448   8.861   0.780 -0.2969  0.0515  0.0995
 6597W        W25451  13.323  15.424   1.877 -0.0041  0.1503  0.1454
 6598W        W25452  13.776   8.122   2.462 -0.0143  0.0809 -0.0660
 6599W        W25453  14.458   4.889   0.200 -0.1841  0.1774  0.1035
 6600W        W25454   8.095   7.258   2.838  0.1604  0.0625  0.0444
 6601W        W25455   4.692   1.442  14.490  0.1244  0.0443  0.0569
 6602W        W25456   4.970  16.187   4.852 -0.2777  0.3091 -0.0593
 6603W        W25457  14.252   5.760  14.256 -0.0108  0.1933  0.2219
 6604W        W25458   3.572   8.410   3.375 -0.0419 -0.2172 -0.1220
 6605W        W25459   2.261   6.132   3.977 -0.0232  0.3035  0.0194
 6606W        W25460  16.887   3.540   4.474 -0.0246  0.0512 -0.0200
 6607W        W25461   4.653   0.096   3.651  0.1558 -0.5019 -0.1648
 6608W        W25462  10.219  15.243  14.550  0.0734 -0.0491  0.1848
 6609W        W25463  11.854   0.965  12.873 -0.1739  0.1523  0.1352
 6610W        W25464   4.752   4.389   2.719 -0.2038  0.1552 -0.3197
 6611W        W25465  11.578  15.898   0.143  0.0656 -0.2813 -0.2267
 6612W        W25466   2.285   6.009   1.963 -0.0997  0.1212  0.1224
 6613W        W25467  11.568   7.331  11.920  0.0275  0.0110 -0.0623
 6614W        W25468  14.629  17.207  12.261  0.2105  0.2674 -0.1064
 6615W        W25469   3.746  13.057  13.467  0.2260 -0.0782 -0.1528
 6616W        W25470  12.248  10.058  13.586 -0.0618 -0.0967  0.1371
 6617W        W25471   3.322   9.274  11.085 -0.1042 -0.3612  0.0730
 6618W        W25472  17.928   6.821  12.528 -0.0679 -0.1644 -0.0940
 6619W        W25473  18.018  12.408  12.533 -0.1813  0.0529  0.0248
 6620W        W25474  11.732   7.588   1.951  0.0179  0.1434 -0.2751
 6621W        W25475   0.421   3.970   4.264  0.0298  0.0562  0.3952
 6622W        W25476  14.357   4.033  14.867 -0.1297  0.0864 -0.2084
 6623W        W25477   6.448   6.238   0.454  0.1235  0.0777 -0.1928
 6624W        W25478  17.582  17.417   4.395 -0.4908  0.3771 -0.1372
 6625W        W25479   1.394   0.143   1.858  0.1833 -0.4230  0.2011
 6626W        W25480  12.150  13.404  13.487 -0.0448 -0.1453 -0.1701
 6627W        W25481  12.327   4.354  14.855  0.0563  0.1670 -0.0219
 6628W        W25482  13.025   4.045  15.094 -0.0447 -0.1147  0.1183
 6629W        W25483   1.553   3.283   1.557 -0.1490  0.0490  0.0573
 6630W        W25484  16.386  10.744  11.572 -0.1788 -0.2890 -0.1356
 6631W        W25485   9.860  10.456   2.731  0.3607  0.0652 -0.0283
 6632W        W25486   0.338  12.140  12.786 -0.0231  0.4045  0.0165
 6633W        W25487  13.185   5.464  16.181  0.1284  0.1420 -0.1309
 6634W        W25488   6.489   9.616  14.560  0.1341 -0.1335  0.0081
 6635W        W25489   3.247   4.572   0.145 -0.0747 -0.0228  0.0015
 6636W        W25490  13.939   9.874   3.483  0.1560  0.2823 -0.0538
 6637W        W25491   7.945   9.218  12.785 -0.2198  0.1103 -0.2665
 6638W        W25492   4.369   5.952  12.658  0.1269 -0.1773 -0.1311
 6639W        W25493  12.666  14.996   4.793  0.2099  0.0057 -0.3463
 6640W        W25494  10.922  14.599   0.906 -0.3493  0.1563 -0.2194
 6641W        W25495  17.556   2.064  12.259  0.3641  0.2546  0.0969
 6642W        W25496   9.853   8.574  12.018 -0.1790  0.0518  0.2860
 6643W        W25497   4.945   5.259  15.059 -0.0351 -0.0239  0.0024
 6644W        W25498   0.042  10.878   2.020  0.0853  0.0458  0.3013
 6645W        W25499  11.910   6.278  14.895 -0.1423  0.0626  0.1736
 6646W        W25500  14.601   9.245  12.835  0.1283  0.2865 -0.1291
 6647W        W25501  13.512  11.605  13.376  0.2296  0.0056  0.2279
 6648W        W25502  12.685  13.695   2.306  0.0690  0.2163 -0.0872
 6649W        W25503   5.759   0.498  11.853  0.0933 -0.1009 -0.1155
 6650W        W25504   0.392   5.917  11.541 -0.2496 -0.0098 -0.1376
 6651W        W25505  12.034  16.683   3.000 -0.0732 -0.1991  0.1861
 6652W        W25506   0.060   5.661  11.829  0.0458 -0.0353 -0.0289
 6653W        W25507  14.481   2.552  16.025  0.1902  0.1283  0.0184
 6654W        W25508   3.400  15.618   1.801  0.3275  0.1177  0.0781
 6655W        W25509   9.986  12.687  13.766 -0.3145 -0.1450 -0.1114
 6656W        W25510   9.515   3.104   2.616  0.3415  0.1492  0.0702
 6657W        W25511  16.625  17.677  12.914  0.1745  0.3621  0.3047
 6658W        W25512   7.030  16.979   2.737 -0.1419  0.2381 -0.0779
 6659W        W25513  16.057  15.693   0.599  0.0605  0.1813  0.1680
 6660W        W25514  15.327  15.230   0.289  0.2404 -0.1336  0.1593
 6661W        W25515  14.350   1.730  15.545 -0.1962  0.1086  0.3434
 6662W        W25516   9.186   5.870  13.214  0.1650  0.0061 -0.2659
 6663W        W25517  14.188   3.587   1.635 -0.3568  0.0224 -0.0556
 6664W        W25518   0.170   4.112   0.956 -0.2406  0.1136 -0.0682
 6665W        W25519   8.123  13.760   4.033 -0.1465  0.0253  0.1716
 6666W        W25520   2.849  12.434  14.542  0.1418  0.3434  0.0819
 6667W        W25521   1.909   4.048  11.231 -0.1012 -0.3432 -0.0287
 6668W        W25522   1.779   9.964   4.975  0.1983  0.0057 -0.0907
 6669W        W25523   4.396  13.316   3.026 -0.2475  0.0803  0.3902
 6670W        W25524   4.094  18.001  12.551 -0.0858  0.0350  0.3610
 6671W        W25525  15.967  10.552   2.568  0.0396  0.0382  0.0522
 6672W        W25526   6.922   5.494  12.437 -0.0112 -0.0441 -0.0326
 6673W        W25527  16.626   6.522   0.470 -0.1682 -0.0474 -0.2512
 6674W        W25528  16.283   4.074   4.370  0.1907 -0.1703  0.1540
 6675W        W25529   3.978   2.126  14.675 -0.0407 -0.0881  0.0023
 6676W        W25530  17.914   1.597  14.524 -0.2294  0.1664  0.2031
 6677W        W25531  13.810   2.727  11.471 -0.2533 -0.0397 -0.0201
 6678W        W25532   3.530   0.110  15.285 -0.0704  0.0451  0.0142
 6679W        W25533  15.230  13.786   1.721  0.0352 -0.2041  0.2518
 6680W        W25534  15.942  12.090   3.662  0.1958  0.1705  0.0498
 6681W        W25535   3.995   3.192   1.098 -0.0075  0.2278  0.0287
 6682W        W25536  12.939   1.923  13.529 -0.0777 -0.1087  0.4003
 6683W        W25537   1.892   2.881   1.379 -0.1433 -0.5663  0.0587
 6684W        W25538   9.456  13.079   2.202 -0.0446 -0.1432 -0.2309
 6685W        W25539  13.263  16.822   3.463 -0.1305  0.0407 -0.0089
 6686W        W25540   4.771   6.718  15.289  0.1704  0.0094  0.2337
 6687W        W25541   6.565  11.005  12.745  0.1208  0.3649 -0.0595
 6688W        W25542   6.480   4.956  11.666  0.2219 -0.3549  0.1111
 6689W        W25543   0.785  15.934  15.005 -0.2833 -0.1563  0.2796
 6690W        W25544  10.993   1.269  13.937  0.1039  0.0645  0.0594
 6691W        W25545   4.266  16.570  11.336 -0.1492  0.0860 -0.1670
 6692W        W25546  14.593   1.562   0.450  0.2729  0.0860 -0.0710
 6693W        W25547   0.033  14.316   4.766  0.3019  0.1238  0.1960
 6694W        W25548   7.368   2.822  12.454  0.1657 -0.0057  0.2031
 6695W        W25549  14.025   2.073  13.399 -0.1759 -0.3945 -0.0450
 6696W        W25550   4.317  17.479   1.618  0.2419 -0.0908  0.0110
 6697W        W25551  13.686   3.824   3.466  0.0002 -0.0650  0.0338
 6698W        W25552   2.073   6.339  15.757  0.1788 -0.0046 -0.1947
 6699W        W25553   9.406   7.678  13.365 -0.0332  0.1692 -0.1338
 6700W        W25554  10.004  13.688  13.492  0.1803  0.0200 -0.1768
 6701W        W25555   2.346   7.028   1.264  0.2762  0.2641 -0.0751
 6702W        W25556  12.846  10.668  11.414  0.4510  0.4827  0.3983
 6703W        W25557  14.897   6.044   5.502  0.0403  0.2429  0.1079
 6704W        W25558   1.662   0.483   2.236  0.0561 -0.0977 -0.1015
 6705W        W25559   6.017   6.957  14.349 -0.1083 -0.3406  0.1260
 6706W        W25560   9.705  15.012   0.019  0.0528 -0.0102  0.1162
 6707W        W25561  10.301   8.890  13.468 -0.2015 -0.0808  0.1960
 6708W        W25562   5.809   6.219  13.590  0.2605 -0.2435 -0.1038
 6709W        W25563  15.180  10.490   4.642 -0.1114 -0.0582  0.0984
 6710W        W25564   7.823  16.432  15.371  0.4169 -0.1713 -0.0737
 6711W        W25565  17.632   0.123  15.148 -0.4137  0.1350  0.0586
 6712W        W25566  12.850  14.917   3.458 -0.1009  0.1388 -0.2050
 6713W        W25567  17.168  13.503   1.999  0.2090 -0.3147  0.0595
 6714W        W25568  17.822   5.349  15.696 -0.2526 -0.4139  0.1217
 6715W        W25569   3.940   8.574   4.650  0.0458 -0.0871 -0.3256
 6716W        W25570   6.087  18.015  15.403  0.0028 -0.4434  0.1041
 6717W        W25571   8.993  15.620   2.165  0.1710  0.2222 -0.0900
 6718W        W25572  13.063  17.867  13.167  0.0511  0.1652  0.2453
 6719W        W25573   1.324  15.277   1.534  0.0526 -0.0701 -0.0698
 6720W        W25574  11.101  15.141   3.253 -0.0166  0.2075  0.2590
 6721W        W25575  17.266   3.850   0.507  0.3380  0.4933  0.0739
 6722W        W25576  17.966  11.850  12.570 -0.0593 -0.0527 -0.0141
 6723W        W25577   3.565  10.740   0.373 -0.0790  0.1287 -0.2612
 6724W        W25578  14.300   8.109  14.329 -0.2816  0.0861  0.5346
 6725W        W25579   9.829   5.349   0.093  0.0291 -0.1800 -0.0416
 6726W        W25580  14.066   5.994  14.834  0.1867  0.0708  0.1177
 6727W        W25581  16.082   0.281   2.759 -0.1261 -0.0155  0.2377
 6728W        W25582   6.573   8.285  12.150 -0.1804  0.1346 -0.0010
 6729W        W25583  13.622  14.798   3.010  0.1444 -0.2402  0.0229
 6730W        W25584   9.047  17.686  14.462  0.1709 -0.0392  0.0835
 6731W        W25585   4.013  14.112  14.385 -0.0092  0.3038 -0.0969
 6732W        W25586   3.055  10.836   2.611  0.2205 -0.0795 -0.0424
 6733W        W25587  12.256   3.564  13.332 -0.2250 -0.0490  0.2380
 6734W        W25588  15.214   0.502  14.608 -0.2019  0.0065  0.0583
 6735W        W25589   5.021   0.455  15.096  0.0034  0.3355 -0.1884
 6736W        W25590  11.038   2.379  11.238  0.1588 -0.0214 -0.2441
 6737W        W25591   1.708   4.994  13.576  0.0516  0.0336 -0.0172
 6738W        W25592   4.643   9.031   2.363 -0.0029  0.0400  0.3240
 6739W        W25593  17.149  15.669  11.870  0.5318 -0.0333 -0.0038
 6740W        W25594  17.613   9.577   5.713  0.1852  0.2207 -0.0670
 6741W        W25595   7.845  16.144   0.639  0.2408 -0.0054 -0.1000
 6742W        W25596   8.601  17.037   1.140 -0.0654 -0.1124 -0.1961
 6743W        W25597   7.320   7.467   1.790  0.0981  0.3752 -0.2226
 6744W        W25598  10.826  14.460  13.288  0.0706  0.1267  0.0434
 6745W        W25599   0.618   9.552  15.864 -0.1302 -0.0380  0.0696
 6746W        W25600   8.765   4.797   0.733 -0.0491  0.0536  0.0624
 6747W        W25601   3.014  12.895  10.336  0.3594  0.4040  0.2268
 6748W        W25602   4.790   2.890   0.869  0.0660 -0.0873  0.0410
 6749W        W25603  14.749   0.132  12.494 -0.2546 -0.1881  0.0825
 6750W        W25604   4.804   8.551  12.134  0.0173  0.2204 -0.2603
 6751W        W25605  15.446   6.398   1.293  0.0881  0.1924  0.1392
 6752W        W25606  11.225  14.409   1.255  0.0663 -0.1109  0.1205
 6753W        W25607  17.852   2.358  11.903 -0.2523 -0.0100 -0.1827
 6754W        W25608   0.890  11.119  15.961 -0.2598  0.0221 -0.3444
 6755W        W25609   2.092  15.169  13.813 -0.0914  0.1702  0.1581
 6756W        W25610  16.561   9.906   5.118 -0.1075  0.0693 -0.1583
 6757W        W25611   7.717   2.653  15.906 -0.0031  0.1076 -0.3321
 6758W        W25612  10.656   9.596   3.842  0.0488  0.2318 -0.0854
 6759W        W25613  12.785  14.439  14.806  0.2802 -0.2358 -0.1343
 6760W        W25614  17.278   5.953  11.936 -0.1185 -0.0476  0.0000
 6761W        W25615  17.841  11.927  13.580  0.1129  0.2127 -0.3847
 6762W        W25616   1.771   6.691   2.986 -0.0190 -0.0624 -0.0594
 6763W        W25617  11.455   8.784  11.643 -0.1143  0.1156 -0.0360
 6764W        W25618   5.656  15.599   2.095  0.0033  0.0416 -0.0287
 6765W        W25619  11.370   4.578   5.061  0.1133 -0.1661 -0.2134
 6766W        W25620   7.157  15.933   1.163 -0.0804 -0.3067 -0.0495
 6767W        W25621  17.184   8.820  14.778  0.0794  0.0180 -0.0247
 6768W        W25622  11.407  12.319  13.424  0.3306  0.0079 -0.1824
 6769W        W25623   7.500  14.558  11.314  0.0625 -0.2411 -0.0818
 6770W        W25624  10.924  12.051  12.662 -0.2235 -0.6445  0.2771
 6771W        W25625   8.067  14.755   1.355 -0.2211 -0.1034 -0.1280
 6772W        W25626   2.745  17.373   3.756  0.1972  0.1270  0.2857
 6773W        W25627  11.384  11.350  12.498 -0.0407 -0.2019  0.0664
 6774W        W25628  10.788  11.784   0.175  0.2955  0.0980  0.0301
 6775W        W25629   9.447   2.429   4.474 -0.0702  0.0565  0.3577
 6776W        W25630  17.153  16.714   4.425 -0.0989  0.0866 -0.2437
 6777W        W25631   1.864  17.948  11.921 -0.3765  0.1944 -0.1771
 6778W        W25632   2.557   2.037   1.257 -0.2315  0.1897 -0.0435
 6779W        W25633   3.795   7.396  12.043  0.1483  0.0117  0.3279
 6780W        W25634   5.458   7.098   3.348  0.1650 -0.1366  0.0579
 6781W        W25635  17.423  13.991  14.664 -0.0299 -0.0657  0.0700
 6782W        W25636   8.891  10.087   0.017  0.2400  0.0349 -0.1330
 6783W        W25637  10.394  12.613  12.398 -0.0347 -0.1512  0.0080
 6784W        W25638  15.974   4.802  11.912 -0.0529  0.1523  0.0677
 6785W        W25639  16.211   7.597   1.676 -0.1638  0.1623 -0.3407
 6786W        W25640  13.386   3.571   3.036 -0.0916  0.0613  0.0694
 6787W        W25641  13.668  10.672   3.762 -0.0358  0.0687  0.3276
 6788W        W25642   4.533  13.567  11.695 -0.0736 -0.0203 -0.1633
 6789W        W25643  11.893  11.153   3.860 -0.0850 -0.0492 -0.0146
 6790W        W25644   3.758   8.629   1.321  0.3344  0.0319 -0.2558
 6791W        W25645   6.137  13.878   4.848 -0.1824 -0.0045 -0.1046
 6792W        W25646  13.655   9.316  10.416  0.0897  0.0470  0.0109
 6793W        W25647   1.693  13.691  11.876 -0.0925  0.1716 -0.2761
 6794W        W25648   6.549   4.968   4.047  0.1023  0.3496 -0.1730
 6795W        W25649  11.700  14.700  14.832 -0.0458 -0.0681 -0.1887
 6796W        W25650   5.205  11.794  15.798 -0.0927 -0.2285 -0.0007
 6797W        W25651  13.998   8.263  12.390 -0.0686  0.1855  0.1591
 6798W        W25652  16.540   1.096   2.530 -0.2531  0.2126  0.0903
 6799W        W25653   0.557  11.308  11.674  0.0625 -0.0587  0.1073
 6800W        W25654   7.989   5.271   1.935  0.1541 -0.1588 -0.0822
 6801W        W25655   8.830  13.446   2.620  0.0530  0.2221 -0.2813
 6802W        W25656  11.605   7.225   0.609 -0.0355 -0.0968  0.0284
 6803W        W25657  12.983   8.229   4.522  0.2055  0.3400 -0.0812
 6804W        W25658  13.072   3.864  13.917  0.2391  0.0906  0.1290
 6805W        W25659   5.698   1.781   0.516  0.1902 -0.1098  0.1525
 6806W        W25660   1.061   7.736  16.187  0.0579 -0.3712 -0.1536
 6807W        W25661  10.096  13.015  13.366 -0.0726  0.2609 -0.0358
 6808W        W25662   3.856   8.168  15.150 -0.0098 -0.2150 -0.0046
 6809W        W25663  11.083  12.744   3.023  0.0481  0.3675 -0.0502
 6810W        W25664  12.399  12.639   4.049 -0.2333  0.2214 -0.1932
 6811W        W25665   2.745  16.730   3.609  0.3721 -0.1732 -0.0210
 6812W        W25666   3.071   9.925  14.675 -0.0191  0.1044 -0.0393
 6813W        W25667   7.321  16.724  15.434 -0.0025 -0.1376  0.0363
 6814W        W25668  14.791  18.032  15.809 -0.1904 -0.2741  0.0572
 6815W        W25669  15.987  11.258  15.317  0.1499 -0.2372  0.0184
 6816W        W25670   9.712   5.949  15.431  0.4790  0.1440 -0.1167
 6817W        W25671  12.234   3.566   1.416 -0.0318 -0.1070  0.0012
 6818W        W25672   5.533  14.048  15.768  0.0172 -0.0249 -0.0351
 6819W        W25673  17.853   5.647  14.894 -0.0415  0.0557  0.0122
 6820W        W25674  10.331   8.357   3.160 -0.0372 -0.0162  0.0016
 6821W        W25675   1.612  12.110   4.169  0.0190 -0.2012 -0.0313
 6822W        W25676   9.075   1.267   6.316 -0.1301  0.1828 -0.1211
 6823W        W25677   5.518   0.357  11.459  0.1015 -0.1235 -0.1118
 6824W        W25678   3.177  12.496   0.002  0.1867  0.4393  0.0017
 6825W        W25679   4.171   9.710  15.636  0.1339 -0.2776  0.3176
 6826W        W25680   9.980  14.179   1.563  0.1023  0.2545 -0.2378
 6827W        W25681  15.171  17.285   3.950  0.0021  0.0651  0.0613
 6828W        W25682   3.350  17.594  16.065 -0.1384  0.3026  0.0446
 6829W        W25683   9.394  11.117   1.605 -0.1266  0.1182 -0.0003
 6830W        W25684   6.785   4.182   4.610  0.2175 -0.0161  0.0293
 6831W        W25685  12.484   0.317  12.662  0.1761  0.1398 -0.0521
 6832W        W25686  10.909   8.930  16.100 -0.0885 -0.0595  0.0751
 6833W        W25687   2.587   5.954  11.857 -0.0355  0.3877  0.1366
 6834W        W25688   6.819   5.591   1.648  0.1696  0.1005 -0.0721
 6835W        W25689   7.762   6.936  13.374 -0.3018 -0.1267 -0.3453
 6836W        W25690   4.501  16.850  13.943  0.1337 -0.0131  0.1399
 6837W        W25691   0.529   5.097   0.171  0.1474  0.0808 -0.1235
 6838W        W25692   2.078  11.123   2.925  0.2302  0.0043 -0.1994
 6839W        W25693   3.737   5.618   2.391  0.2648 -0.0181  0.0244
 6840W        W25694   9.057   8.586  15.738  0.0926 -0.3208  0.0286
 6841W        W25695   8.105   5.731   4.634  0.2870 -0.0375 -0.1659
 6842W        W25696  10.871  13.928   1.168 -0.1254  0.2092  0.2305
 6843W        W25697   6.396  17.914  13.867 -0.0594  0.1382 -0.3304
 6844W        W25698  11.087   3.236  11.334 -0.2247  0.0345  0.1729
 6845W        W25699  17.313   5.838   0.524 -0.0942 -0.0104 -0.1599
 6846W        W25700   3.418   6.551  11.615  0.1270 -0.0982 -0.0005
 6847W        W25701   1.228  14.842   1.162  0.1207  0.0141  0.2314
 6848W        W25702  10.557  12.030  13.632 -0.1100  0.3014  0.4666
 6849W        W25703  16.532   2.669   2.743  0.2320 -0.1467 -0.3579
 6850W        W25704   9.719   2.223  14.345  0.0084 -0.0889  0.2017
 6851W        W25705   9.083   2.678   3.435 -0.1743 -0.2466 -0.0364
 6852W        W25706   6.461  10.472  14.359 -0.3611  0.1924 -0.1396
 6853W        W25707  17.836  14.289  13.344  0.0506  0.0489 -0.2270
 6854W        W25708   2.854   9.780   3.346 -0.0806 -0.1957  0.3803
 6855W        W25709  11.891   4.849  13.872 -0.3372 -0.0673 -0.1343
 6856W        W25710   6.406   7.870  15.191 -0.3497 -0.2658  0.0068
 6857W        W25711  11.675   9.666   0.236 -0.3110 -0.0313 -0.1686
 6858W        W25712   0.192   8.973  14.278  0.1408  0.0165  0.2225
 6859W        W25713  16.189   1.947   3.164 -0.0165  0.1786  0.0955
 6860W        W25714  16.281  13.335  14.661  0.2419 -0.1234  0.0352
 6861W        W25715  17.985  12.509   1.534 -0.0558 -0.0199 -0.1912
 6862W        W25716  17.479  15.017  14.200 -0.0252  0.0055 -0.0936
 6863W        W25717  10.752   7.072   2.875 -0.0695  0.3671 -0.3566
 6864W        W25718  13.429  14.157  13.618  0.1006 -0.0753  0.3917
 6865W        W25719   6.363  13.880   2.165  0.0417 -0.2945 -0.1337
 6866W        W25720   6.124  10.515   5.339  0.0554  0.2166  0.0670
 6867W        W25721   2.989  15.111   0.943 -0.2091  0.0557  0.0963
 6868W        W25722   9.674  12.781   3.493 -0.1096  0.0329 -0.1823
 6869W        W25723  14.400  13.796  13.823  0.0754 -0.1243 -0.0998
 6870W        W25724   2.196  13.869  14.376 -0.0434  0.2261 -0.2076
 6871W        W25725   5.212  13.834  15.436 -0.1828  0.1318  0.1441
 6872W        W25726   4.583  11.488   3.860 -0.2363  0.0513  0.0284
 6873W        W25727  13.484   8.613   0.186  0.2296 -0.1325 -0.2382
 6874W        W25728  18.018  14.345   2.652 -0.1372  0.0074 -0.0669
 6875W        W25729   8.349  14.435   4.406 -0.0760  0.1067 -0.1625
 6876W        W25730  14.728  17.015   5.361 -0.0018  0.0055  0.0802
 6877W        W25731   6.768  11.193   3.565  0.0910  0.1111 -0.0521
 6878W        W25732   1.839  17.324   3.623 -0.1247  0.0665 -0.0643
 6879W        W25733  16.337   5.018  14.924 -0.0239 -0.1401  0.0354
 6880W        W25734  15.531  11.253   0.440 -0.0433 -0.1556 -0.1496
 6881W        W25735   9.045  12.944  11.771 -0.0468  0.1168  0.2810
 6882W        W25736   9.184   2.684  14.977 -0.0806 -0.3040 -0.2130
 6883W        W25737   7.261  15.708   2.307  0.2071  0.0338  0.1070
 6884W        W25738  15.044  12.045  15.777 -0.2227 -0.0382 -0.0340
 6885W        W25739   5.830  10.802   1.960  0.1223 -0.0952  0.2353
 6886W        W25740   6.108  11.250   2.863 -0.0886 -0.1987  0.0818
 6887W        W25741   5.860   2.002  15.339 -0.2102  0.0186 -0.1424
 6888W        W25742   4.290  17.407   4.569  0.2224 -0.1697  0.0457
 6889W        W25743  15.532  16.224   4.300 -0.2065 -0.0608  0.2131
 6890W        W25744  14.961   4.759   4.531 -0.4000  0.0192 -0.0514
 6891W        W25745   7.602  11.428   4.015  0.0731  0.0987  0.1256
 6892W        W25746  15.946  16.917   3.487 -0.0340  0.1335 -0.0697
 6893W        W25747   8.549   9.338   1.203  0.0607  0.4753  0.0332
 6894W        W25748   4.186  16.786  14.384  0.1594  0.0714  0.2448
 6895W        W25749   8.479  10.253   1.737  0.0126 -0.2750 -0.0920
 6896W        W25750   3.808  15.375   1.608 -0.1678 -0.3175  0.1493
 6897W        W25751   4.101  12.692  15.107 -0.2390  0.2678 -0.1007
 6898W        W25752  17.474   1.211   3.477  0.2938 -0.0882 -0.2731
 6899W        W25753   1.762   6.875   1.479 -0.1447 -0.1743  0.0122
 6900W        W25754  10.049   3.784   1.703 -0.0459 -0.0337  0.1922
 6901W        W25755  13.133  13.723   0.036 -0.2383  0.0581 -0.0594
 6902W        W25756   3.983   5.522   4.477  0.0826 -0.0318  0.1131
 6903W        W25757  16.139   3.122   4.173  0.0780 -0.2740  0.3452
 6904W        W25758  12.881  12.482  16.196 -0.2434  0.0025 -0.2822
 6905W        W25759   1.002  15.929  11.542 -0.0473 -0.0040  0.0449
 6906W        W25760   6.124   8.052   0.975  0.1641 -0.1118 -0.0363
 6907W        W25761  12.819   6.892  14.301  0.0372 -0.0920 -0.1075
 6908W        W25762   7.426  15.751  13.773  0.1944 -0.1005 -0.0457
 6909W        W25763   9.754   9.099  14.215 -0.0992 -0.0066  0.1205
 6910W        W25764   8.385   0.805   1.146 -0.1201 -0.2193 -0.0299
 6911W        W25765  15.314  14.974  13.643  0.1254 -0.0793 -0.3008
 6912W        W25766  12.679  17.180   0.124 -0.1109  0.2824 -0.2900
 6913W        W25767  10.714  10.469   4.105 -0.1494 -0.4122 -0.1202
 6914W        W25768   7.991   7.773   0.736  0.2165  0.0535 -0.1385
 6915W        W25769   4.271   4.382   2.489 -0.0368 -0.4312  0.2414
 6916W        W25770  17.663  13.560   0.564  0.0137  0.0287 -0.4056
 6917W        W25771  12.900   3.614   4.926 -0.1994  0.1851 -0.0683
 6918W        W25772   0.553   4.830   1.461 -0.1558 -0.1263 -0.2780
 6919W        W25773  17.653  11.317  15.016  0.0549  0.0613 -0.2479
 6920W        W25774   0.657  17.909  11.889 -0.2192 -0.1486 -0.0670
 6921W        W25775   3.673  13.594   4.307 -0.2487 -0.2152 -0.0408
 6922W        W25776  17.482  16.530   5.172 -0.0459  0.2915  0.1892
 6923W        W25777  10.330  13.342   4.125  0.3869  0.0835 -0.1441
 6924W        W25778  15.852  10.166  13.932 -0.1895  0.0365  0.1194
 6925W        W25779   1.984  17.933  14.659 -0.3084 -0.1262  0.1465
 6926W        W25780  14.153  14.627  15.453 -0.1094 -0.0727  0.0979
 6927W        W25781  17.751  13.649  12.076 -0.1624 -0.1972  0.0713
 6928W        W25782  10.330  16.855   0.469 -0.0714  0.1021 -0.1117
 6929W        W25783   0.781   1.690   2.477  0.0543  0.1241 -0.2141
 6930W        W25784   3.704  14.165  13.976  0.0630  0.1066  0.0941
 6931W        W25785   6.037   1.316   4.903 -0.0459  0.0445  0.2182
 6932W        W25786   7.320   4.158   1.967  0.0123 -0.0563  0.3236
 6933W        W25787  11.318   4.080   3.922 -0.2961  0.2449  0.0267
 6934W        W25788   7.478  11.503  12.801  0.1563 -0.0373 -0.1119
 6935W        W25789  17.437  10.091  13.447 -0.1626 -0.0977 -0.0101
 6936W        W25790   0.893  12.297  12.073 -0.1588 -0.1430 -0.1638
 6937W        W25791  13.333  10.405   1.968  0.1508  0.3920 -0.1271
 6938W        W25792   2.476   6.112   2.978 -0.0022  0.1195  0.3023
 6939W        W25793   0.027  17.457  12.668  0.2227 -0.2486 -0.1285
 6940W        W25794   4.355  17.996   4.435  0.0666  0.0152 -0.1920
 6941W        W25795  10.273   0.202   2.766  0.1491 -0.0106 -0.0017
 6942W        W25796  11.471  15.376  15.535 -0.0366  0.1681 -0.0058
 6943W        W25797   3.963   6.131   4.045  0.2465 -0.2536  0.1398
 6944W        W25798  15.558   4.840  10.818 -0.0917 -0.2836  0.1123
 6945W        W25799  14.232  15.559   0.738  0.1087 -0.0034 -0.2102
 6946W        W25800  16.383  13.396  15.887 -0.2325  0.2935 -0.1725
 6947W        W25801  17.669  14.348  15.615 -0.1180  0.0031  0.0048
 6948W        W25802  13.747   1.394   2.966 -0.1860  0.1989  0.0114
 6949W        W25803  12.511   5.860   0.563 -0.1430  0.1581 -0.0324
 6950W        W25804  17.318   3.203  13.011 -0.1183  0.2443 -0.0432
 6951W        W25805  10.019   5.931  14.991 -0.0020  0.1034 -0.0103
 6952W        W25806   0.794  14.883   1.467  0.0176 -0.0692  0.4432
 6953W        W25807   0.500   5.564  16.176  0.2775 -0.0610 -0.0522
 6954W        W25808  17.061   7.381  10.032 -0.0411 -0.1716 -0.0217
 6955W        W25809  13.769   0.937  15.407  0.1392 -0.0219 -0.0043
 6956W        W25810  16.734   1.360  11.652 -0.0348 -0.0525  0.1544
 6957W        W25811  10.820   3.895   1.200  0.1759 -0.1568 -0.0109
 6958W        W25812  16.519   3.386  14.772  0.0628 -0.2393  0.0145
 6959W        W25813  17.885   8.582   1.770  0.0579  0.1091  0.0045
 6960W        W25814   8.935  11.721  13.398 -0.0505 -0.2335  0.0811
 6961W        W25815   0.725  17.940   3.069  0.0836 -0.3619  0.1305
 6962W        W25816   8.937  16.621   2.470  0.0107  0.2571  0.1320
 6963W        W25817   0.087   1.908   0.271  0.1833 -0.2339 -0.0041
 6964W        W25818   1.503   0.985  12.072  0.0910 -0.0095 -0.0581
 6965W        W25819   3.229  15.765   3.944 -0.0416 -0.2750  0.3610
 6966W        W25820   2.416   6.510   4.342  0.0329 -0.0902  0.2671
 6967W        W25821   7.722   5.201   3.221 -0.0752  0.0075 -0.2151
 6968W        W25822  12.056   6.540   0.227 -0.1382 -0.2014 -0.0491
 6969W        W25823  10.631   6.968  14.340  0.1906 -0.1017  0.1085
 6970W        W25824   8.188   7.336  13.117  0.0393  0.0180 -0.0075
 6971W        W25825  14.984   5.702  14.830 -0.0153 -0.0156 -0.3965
 6972W        W25826   9.807   0.925   2.974 -0.1347  0.5154 -0.0271
 6973W        W25827  13.792  15.168   0.589  0.2580 -0.0718 -0.0093
 6974W        W25828  16.928   4.184  11.004 -0.0318  0.1171  0.1046
 6975W        W25829   3.326   6.643  12.398 -0.0099  0.1382 -0.1297
 6976W        W25830  13.080  14.327   3.706  0.2101  0.2701  0.0369
 6977W        W25831  17.622  14.036   5.561 -0.0270  0.0159 -0.0078
 6978W        W25832   3.346  12.716   1.597  0.1156 -0.0395  0.2198
 6979W        W25833   3.075  12.477   2.335  0.0146 -0.0104 -0.1054
 6980W        W25834  16.905   9.901  14.141  0.1254  0.2442 -0.0287
 6981W        W25835  16.417   6.532   3.819  0.1294 -0.0025 -0.0654
 6982W        W25836   7.235  12.877  14.995  0.2545  0.2488  0.0853
 6983W        W25837   6.898   5.262   0.536  0.2507  0.1966 -0.0029
 6984W        W25838   6.752   2.845   1.178 -0.1878  0.0405  0.1837
 6985W        W25839   0.356  12.734  12.635  0.1141  0.0537 -0.2169
 6986W        W25840   5.822   2.028  14.835 -0.2255 -0.5232 -0.0076
 6987W        W25841  14.621   0.262   0.771 -0.1399 -0.1504 -0.1402
 6988W        W25842   1.698   1.818  13.418  0.0734  0.2114 -0.3736
 6989W        W25843   5.262  16.934  11.842 -0.2124 -0.2789 -0.4249
 6990W        W25844  13.975  15.286   3.908  0.2840  0.4197 -0.2151
 6991W        W25845  13.368   4.680  14.376  0.1678  0.0712 -0.0361
 6992W        W25846   3.419  17.858   4.849  0.0466 -0.0639  0.1798
 6993W        W25847  18.003   2.102  13.860 -0.0348  0.0974 -0.0245
 6994W        W25848   2.093  13.955  14.871 -0.5864 -0.3246  0.1849
 6995W        W25849  17.272  16.898   2.186 -0.0173  0.0387 -0.0457
 6996W        W25850  16.984  13.008  11.704 -0.0227  0.0330  0.3441
 6997W        W25851   7.891  14.894   5.110 -0.0081  0.0841  0.0574
 6998W        W25852  10.640  12.651   1.723 -0.1299  0.0395  0.0840
 6999W        W25853   7.970  16.767   3.620 -0.0144 -0.1415  0.0868
 7000W        W25854   0.311   6.553  15.453  0.1593 -0.1623 -0.1088
 7001W        W25855  10.335   6.531  13.576  0.0234  0.4067  0.2452
 7002W        W25856   4.942  13.124   3.788 -0.1050  0.0911 -0.0794
 7003W        W25857  16.993   8.650  13.660 -0.0460  0.0794  0.0161
 7004W        W25858  16.870  12.490   4.280 -0.0231  0.2183 -0.0395
 7005W        W25859  16.488  17.252   3.282  0.1618 -0.2032 -0.0126
 7006W        W25860   2.246  16.871  15.287 -0.1842 -0.0646  0.0361
 7007W        W25861  15.190   0.339  12.014 -0.1159 -0.0138  0.1378
 7008W        W25862   9.646   0.635  13.875 -0.0946 -0.0880 -0.0282
 7009W        W25863   6.364   0.854  14.025  0.4165 -0.0027  0.2478
 7010W        W25864   1.274  11.488  15.783 -0.1762  0.2103 -0.2013
 7011W        W25865   5.576  11.065  11.903 -0.0978  0.2314 -0.2252
 7012W        W25866   0.487   7.119  16.140 -0.2313 -0.0927 -0.0343
 7013W        W25867   5.426   0.715   3.576 -0.4035 -0.1395  0.1211
 7014W        W25868   8.482  11.306   2.818 -0.3062 -0.0576 -0.1686
 7015W        W25869   6.822   5.737  15.963 -0.0131 -0.1333 -0.2389
 7016W        W25870   8.289  10.532  11.916  0.1168 -0.1205 -0.4026
 7017W        W25871  12.606  12.671  14.783  0.1019  0.1961  0.0794
 7018W        W25872  17.337   5.198  11.481  0.0989 -0.1817  0.0937
 7019W        W25873  17.073   5.297  16.119  0.1200 -0.0056  0.0034
 7020W        W25874   3.752  17.462   1.444  0.2615 -0.0415 -0.1018
 7021W        W25875   7.565   7.545   0.645 -0.1103 -0.0992  0.1814
 7022W        W25876  13.550  13.362  15.423 -0.3763  0.1440 -0.2012
 7023W        W25877   4.476  12.726  13.921  0.0450 -0.3792 -0.1732
 7024W        W25878  17.326  17.553  15.282  0.0800 -0.1590  0.0340
 7025W        W25879   7.524  11.816   1.731 -0.1371 -0.1364  0.1168
 7026W        W25880   5.104   2.282   4.812  0.0024 -0.0020  0.2661
 7027W        W25881   9.570  13.073  16.009 -0.1750  0.0562 -0.0686
 7028W        W25882  13.854  17.149  14.570 -0.0322  0.0126  0.0984
 7029W        W25883   5.275  14.237  14.584  0.0491 -0.0389  0.3438
 7030W        W25884   8.898   5.489  14.918  0.0796 -0.2978  0.3456
 7031W        W25885  15.043   5.627   3.432 -0.3078 -0.1469  0.0933
 7032W        W25886  14.982  12.357   3.313 -0.1731  0.1277  0.0722
 7033W        W25887   7.010   8.276   3.433 -0.1804  0.2956 -0.0142
 7034W        W25888   8.562  11.898  12.425 -0.3151  0.2696  0.2168
 7035W        W25889   3.885  10.143  13.133 -0.1795  0.0436 -0.2700
 7036W        W25890  14.808  14.805   1.692  0.3147 -0.1153 -0.4411
 7037W        W25891   9.416   6.013   0.194  0.1292  0.0658 -0.2097
 7038W        W25892   6.965   1.731  13.281 -0.3932 -0.0606  0.2810
 7039W        W25893   9.550  16.460   0.721  0.0536 -0.2857  0.2507
 7040W        W25894   9.142   6.445   0.464 -0.1036 -0.0980 -0.6651
 7041W        W25895   3.030   8.862  15.946 -0.2866  0.1326 -0.1140
 7042W        W25896  10.075  10.723  14.911  0.2386 -0.3204  0.0596
 7043W        W25897   4.942  15.624  11.881  0.0424 -0.0083 -0.0655
 7044W        W25898   4.797  13.621  15.122 -0.2326 -0.2899 -0.0940
 7045W        W25899  11.861   2.668  11.087 -0.2598 -0.4371 -0.1452
 7046W        W25900  15.672   3.322  14.644  0.0804 -0.1134  0.2490
 7047W        W25901   2.763   3.781  11.450 -0.2499 -0.0504 -0.1663
 7048W        W25902   7.978  10.097  15.336  0.1799 -0.1548 -0.1706
 7049W        W25903  17.209  14.464   3.081 -0.1638 -0.1391 -0.4374
 7050W        W25904  11.578   1.402   0.984 -0.2694  0.2928  0.2177
 7051W        W25905  17.189   5.460   2.661 -0.2817  0.0205  0.2052
 7052W        W25906   1.290   9.177  15.502 -0.0690  0.0292 -0.3545
 7053W        W25907  14.568  12.729  12.647 -0.0492  0.0286 -0.1044
 7054W        W25908  15.366  14.936   4.229  0.1003 -0.0962  0.1980
 7055W        W25909  13.228   1.211  15.351 -0.1982 -0.0942  0.2513
 7056W        W25910  16.482  14.069  11.751 -0.0975 -0.0506 -0.0459
 7057W        W25911   3.271   6.260  11.991 -0.0198  0.1245  0.3475
 7058W        W25912   1.475   1.865   2.424  0.0631  0.3896 -0.0683
 7059W        W25913   0.068  13.043   4.502 -0.0526  0.1298  0.0463
 7060W        W25914   2.915  11.907  15.435  0.0976 -0.2842  0.1459
 7061W        W25915   1.851  11.852  15.166 -0.0260  0.1539  0.0823
 7062W        W25916   0.726  14.056   1.369 -0.2818 -0.0083 -0.0297
 7063W        W25917   4.107  16.490   3.830  0.0021 -0.1573 -0.0563
 7064W        W25918  12.478  15.583   4.946 -0.0247 -0.1344  0.0688
 7065W        W25919   9.282  10.691  13.319  0.3625  0.0256 -0.0123
 7066W        W25920  11.814   0.280   0.069  0.3076 -0.2073  0.2743
 7067W        W25921  12.499  12.235  14.536 -0.0024 -0.0461 -0.1678
 7068W        W25922   5.859  13.176   5.180 -0.3115  0.3989  0.1532
 7069W        W25923   7.211   0.485   4.986 -0.1868 -0.0738 -0.2166
 7070W        W25924  10.301   7.583   2.460 -0.0850 -0.0722  0.0363
 7071W        W25925  15.257  12.418   4.887 -0.0585 -0.1398  0.1090
 7072W        W25926   2.037   2.639   1.765  0.0412 -0.1478 -0.0042
 7073W        W25927   3.084   6.699   0.496 -0.0054 -0.4150 -0.0709
 7074W        W25928   2.622  12.870  13.094  0.1675  0.0708  0.1378
 7075W        W25929   9.460   0.666   2.764 -0.0076  0.0170  0.1882
 7076W        W25930  14.278   3.416  14.755  0.2989  0.2149  0.0439
 7077W        W25931  17.928   8.887   3.404  0.2851  0.4856  0.0413
 7078W        W25932  16.201  16.133  15.243  0.4126 -0.3279 -0.2415
 7079W        W25933  13.108   6.534   5.072  0.0807 -0.2125  0.0717
 7080W        W25934   5.572   2.559  14.048  0.1643  0.0045  0.1482
 7081W        W25935   5.383   0.407  15.822  0.1077 -0.1548 -0.1650
 7082W        W25936   7.999  17.346  15.405  0.0211  0.4453 -0.1132
 7083W        W25937   7.863  12.704  12.244 -0.3098  0.2509 -0.1237
 7084W        W25938   4.433   4.233  15.067  0.3371  0.0048 -0.0818
 7085W        W25939  15.736   1.510   4.018 -0.3174 -0.1271  0.1948
 7086W        W25940  17.150   8.790  15.416 -0.0102  0.4524 -0.0034
 7087W        W25941  12.358   0.643  11.456  0.1641  0.1002  0.1663
 7088W        W25942   5.689   4.614  11.956  0.1388 -0.2385  0.2397
 7089W        W25943  14.029   0.624   1.446 -0.0913  0.1727 -0.2211
 7090W        W25944  13.833  13.108   3.375  0.1784  0.0106 -0.4178
 7091W        W25945   4.334   8.000  15.255 -0.0374 -0.0333  0.2218
 7092W        W25946   8.306  16.754  13.574  0.1271 -0.1009  0.0619
 7093W        W25947   7.961   4.544   1.433 -0.3239  0.2283 -0.0107
 7094W        W25948  14.736  16.009   0.127 -0.2580 -0.1094  0.0638
 7095W        W25949   5.546   4.198  13.080 -0.2011  0.2925 -0.0874
 7096W        W25950   2.044  15.706  15.469  0.1385 -0.1607 -0.0829
 7097W        W25951   1.805   5.457  11.395  0.0458 -0.1155  0.0268
 7098W        W25952  17.631  14.383   0.019 -0.1686  0.1082  0.0223
 7099W        W25953   7.831   0.314  14.574  0.0154 -0.1093  0.1411
 7100W        W25954  15.021  14.830   2.453 -0.0269 -0.0123 -0.2171
 7101W        W25955  15.851   4.185   1.268 -0.0866 -0.0508 -0.0902
 7102W        W25956   0.590  15.053  12.456  0.1389 -0.1019 -0.3115
 7103W        W25957  14.259  10.969  11.617 -0.1517  0.2437  0.0130
 7104W        W25958   4.304   0.074   3.152  0.3118 -0.1256 -0.0015
 7105W        W25959  17.690   1.239   0.606  0.1960 -0.1252 -0.3306
 7106W        W25960   0.001  13.655  14.773  0.0910  0.0828 -0.1875
 7107W        W25961  11.816  10.565  11.266  0.2118  0.1053 -0.1677
 7108W        W25962   9.049  13.864   2.661  0.1826  0.0849  0.1403
 7109W        W25963   1.860   0.447  14.421  0.0249  0.1017 -0.2251
 7110W        W25964  11.523   8.681   0.366 -0.2863 -0.0267 -0.4070
 7111W        W25965   2.583  11.263  15.152  0.0341  0.0418 -0.0566
 7112W        W25966   4.677  17.156  14.281  0.0580 -0.2060  0.1151
 7113W        W25967  11.538   2.675  12.564  0.1181 -0.2667  0.1724
 7114W        W25968   0.634   6.333   1.519  0.0253  0.0435  0.0358
 7115W        W25969   3.049  11.228   1.521 -0.1706 -0.0171 -0.1249
 7116W        W25970  10.258   3.922   2.628 -0.3161  0.0098  0.2158
 7117W        W25971   0.939   5.430   0.277  0.2861 -0.3656  0.1485
 7118W        W25972   3.557   2.396   4.496 -0.0287 -0.0285  0.0017
 7119W        W25973  10.201   3.179  15.964 -0.0011 -0.0234  0.2095
 7120W        W25974  12.290   7.590   4.620  0.3679  0.0076 -0.0189
 7121W        W25975   9.042  10.463   4.500  0.0171 -0.1735  0.1564
 7122W        W25976   9.545   1.844  11.361 -0.1589  0.3540  0.0596
 7123W        W25977  10.530   2.603   1.898 -0.1537 -0.0715  0.2130
 7124W        W25978   4.665   0.755  12.652 -0.1182 -0.0162 -0.1214
 7125W        W25979   7.247  15.767  15.776 -0.0218 -0.1477 -0.0277
 7126W        W25980  10.858   8.057  12.036 -0.4564 -0.0156  0.3610
 7127W        W25981  10.691   0.565   1.091 -0.0411  0.1793 -0.0086
 7128W        W25982  10.183   5.437  14.545 -0.0595  0.0957 -0.0846
 7129W        W25983   0.448  15.436  13.375  0.0789  0.0050 -0.1697
 7130W        W25984   0.869   3.555   1.789 -0.3588 -0.0729 -0.0039
 7131W        W25985  13.529   5.006   2.892  0.0048  0.0543 -0.1314
 7132W        W25986   3.914  10.753  14.189  0.4286 -0.1101 -0.0676
 7133W        W25987  10.311  12.139   1.397 -0.4238  0.1758  0.1029
 7134W        W25988   0.141   9.264  15.959  0.2006 -0.0792  0.0961
 7135W        W25989  10.538   8.313   1.529  0.1214 -0.0636 -0.0513
 7136W        W25990   2.892   8.747   3.779  0.0282 -0.1405  0.0498
 7137W        W25991   5.829   8.858  13.086  0.2480 -0.0167 -0.0976
 7138W        W25992  16.252  10.226  11.407 -0.0239 -0.0336  0.2557
 7139W        W25993  10.445   7.668  10.386  0.0940 -0.0882 -0.1184
 7140W        W25994  11.721  13.614  13.388  0.2775  0.0396  0.1298
 7141W        W25995   4.204  15.838   2.490  0.0106  0.0624 -0.1600
 7142W        W25996   3.920  13.619  14.020  0.0665  0.4198 -0.0013
 7143W        W25997   5.406   4.295  13.570 -0.5232  0.0038 -0.0180
 7144W        W25998  14.809  15.413  12.400 -0.2382  0.3054  0.1467
 7145W        W25999   1.812  10.567  13.810 -0.1228  0.0868 -0.0872
 7146W        W26000   6.585   5.624   4.082  0.0281  0.3812  0.0136
 7147W        W26001   9.229   6.533   5.038 -0.1140 -0.0315  0.0655
 7148W        W26002  10.249  15.381   0.558  0.1174  0.1033  0.1360
 7149W        W26003   9.056  12.968   0.464  0.0183 -0.1087  0.1098
 7150W        W26004   5.280   4.629  12.814  0.2036 -0.2681  0.1257
 7151W        W26005  11.003  10.604  13.879 -0.0135 -0.1429  0.1034
 7152W        W26006  11.932  14.302  15.725  0.3737  0.0914 -0.0912
 7153W        W26007   4.972   4.660   4.518  0.0242  0.5004  0.5520
 7154W        W26008   6.032  12.282  12.904  0.0060 -0.1041 -0.0244
 7155W        W26009  12.235  10.599  15.541 -0.1420 -0.0430 -0.3347
 7156W        W26010  17.916  16.077   0.194 -0.0299 -0.0815  0.1836
 7157W        W26011  14.174   8.062   2.146  0.2136  0.0420 -0.0548
 7158W        W26012  16.108  17.546  14.926 -0.0994 -0.0187  0.1449
 7159W        W26013  10.212  14.918  14.150 -0.0109 -0.0219 -0.2432
 7160W        W26014  13.549  13.309   2.941 -0.1557 -0.0933 -0.0172
 7161W        W26015   8.552  14.988  13.994  0.2849 -0.0138 -0.1101
 7162W        W26016  14.944   0.928  12.974 -0.2183  0.1209 -0.3489
 7163W        W26017   6.081   4.567   2.968  0.4723 -0.2469  0.2279
 7164W        W26018   9.618   3.351  13.716 -0.1188  0.0086 -0.2115
 7165W        W26019   2.133  15.625   0.782  0.1788 -0.1844 -0.2230
 7166W        W26020  10.242   7.370  11.518 -0.0779 -0.2849 -0.0419
 7167W        W26021  13.619   1.636   0.215  0.1558 -0.3026  0.1404
 7168W        W26022  10.985  10.016   4.066 -0.1870  0.2166  0.2400
 7169W        W26023   3.949  18.006   4.722  0.2918  0.1800 -0.0218
 7170W        W26024   0.974  10.078  14.532  0.2228  0.3164  0.1666
 7171W        W26025  16.769   6.881  13.867  0.0967  0.1262 -0.1121
 7172W        W26026  17.437   5.485  14.576 -0.1401  0.3831  0.1331
 7173W        W26027   7.222   3.373  13.154 -0.1122 -0.0329  0.2317
 7174W        W26028   6.500   1.800   2.157 -0.2435  0.0454  0.1279
 7175W        W26029  15.053  13.307   0.418  0.1653 -0.1056 -0.0750
 7176W        W26030   7.212   3.897   4.644  0.1489 -0.2290 -0.1612
 7177W        W26031  10.465   1.376   0.271  0.1497  0.2303 -0.1364
 7178W        W26032  16.058  15.289   3.325 -0.1379 -0.1354  0.5462
 7179W        W26033   8.700   9.753  13.264 -0.2945  0.0320  0.0739
 7180W        W26034   8.362  13.211   4.995 -0.1125  0.1512 -0.1122
 7181W        W26035   1.835   1.363   2.151  0.1752  0.0238  0.0901
 7182W        W26036  12.120   0.491   1.653 -0.1476  0.0513  0.0469
 7183W        W26037   6.131  13.432   2.502 -0.0380  0.0952 -0.0997
 7184W        W26038  11.181   9.835   0.630 -0.0648 -0.0992 -0.0853
 7185W        W26039  14.193  13.879  11.968 -0.6122 -0.3937 -0.0295
 7186W        W26040  17.780  12.597   3.812 -0.0984 -0.0300  0.1426
 7187W        W26041  15.363  14.945  15.823 -0.0967 -0.1512  0.1957
 7188W        W26042  11.357  10.098   2.731 -0.0135 -0.1968  0.1069
 7189W        W26043   4.227   0.977  12.363  0.3362  0.0217  0.1454
 7190W        W26044   1.053  12.852   4.964  0.0428 -0.0405  0.3359
 7191W        W26045  16.269   3.641   2.986 -0.2412  0.2378  0.0340
 7192W        W26046   3.818   4.373   4.006 -0.2597  0.2987 -0.1484
 7193W        W26047   1.468  15.132  11.971 -0.1176  0.1470 -0.0664
 7194W        W26048   7.796   3.821  15.643 -0.0605  0.1353  0.0083
 7195W        W26049   4.935  14.857  15.590 -0.1010 -0.0103  0.0662
 7196W        W26050  15.371  12.465  11.957  0.0660 -0.0103  0.1976
 7197W        W26051  12.379  11.066   0.205  0.0021 -0.1804  0.1569
 7198W        W26052  13.146  16.671   3.945  0.1317  0.3747  0.0637
 7199W        W26053  12.956   7.123  13.899 -0.0224 -0.0539  0.1597
 7200W        W26054  10.025   7.408   5.421 -0.2976  0.0790  0.0844
 7201W        W26055  11.041   4.224   0.239  0.0441 -0.1183  0.0350
 7202W        W26056   3.884  11.136   1.900 -0.1322 -0.0715 -0.0376
 7203W        W26057   2.584  16.559   4.274  0.2028  0.1827  0.0120
 7204W        W26058   8.071   8.078   2.469 -0.2818  0.4535 -0.1279
 7205W        W26059   5.639  16.784   4.617 -0.1771  0.0310  0.2494
 7206W        W26060  12.622   9.302  16.072 -0.1890  0.1142  0.2301
 7207W        W26061  11.348  14.319   3.424  0.0504 -0.0495 -0.1068
 7208W        W26062  16.114  16.613  12.665 -0.0312 -0.1357  0.2060
 7209W        W26063   0.998  12.105  15.651  0.1252  0.0709  0.0784
 7210W        W26064  15.241  14.308   5.637  0.0487  0.0600  0.0541
 7211W        W26065  16.869  17.524   2.287 -0.0066 -0.0720  0.0156
 7212W        W26066   4.766  11.001   3.014  0.0408 -0.2054 -0.1054
 7213W        W26067  10.561  17.292  12.857 -0.3343  0.2773  0.2947
 7214W        W26068  17.146   6.848   1.066  0.1992 -0.2908 -0.0450
 7215W        W26069   8.868  14.371  14.416 -0.0702  0.1743 -0.3640
 7216W        W26070  16.414   5.810   4.525  0.0011 -0.2146  0.2067
 7217W        W26071   6.042  16.165  11.851  0.1010 -0.1682  0.1521
 7218W        W26072  16.771   9.173  14.028 -0.2391 -0.0019  0.0522
 7219W        W26073  11.959  12.079   3.968 -0.0668 -0.3028  0.0322
 7220W        W26074  17.469   9.342  13.510  0.1956  0.1758 -0.1151
 7221W        W26075   5.664   2.092   3.789 -0.1453 -0.0461  0.0807
 7222W        W26076  10.274  12.655   2.552 -0.0252  0.0113 -0.0852
 7223W        W26077   2.640   2.634  13.084 -0.0101  0.1669 -0.0630
 7224W        W26078   3.041   0.464  12.285 -0.0175 -0.0223  0.2187
 7225W        W26079  14.677   6.297  12.947 -0.0385  0.2023 -0.0161
 7226W        W26080  11.165  10.616   4.875 -0.1084 -0.2039  0.0732
 7227W        W26081   1.195   7.316   2.497  0.1830 -0.0547 -0.0389
 7228W        W26082   3.642   4.331   3.538  0.0581  0.2582 -0.0669
 7229W        W26083  17.009  12.058   3.432  0.1209 -0.0499 -0.0740
 7230W        W26084   6.054  17.143   0.557  0.4976  0.0445  0.1844
 7231W        W26085  11.766  10.093  13.711 -0.0052  0.2175 -0.2533
 7232W        W26086   8.936  16.318  15.302 -0.2307  0.4483  0.0144
 7233W        W26087  11.408   3.617  14.745  0.1624  0.0363  0.1604
 7234W        W26088   0.031   0.030   3.773  0.1356  0.0312 -0.1291
 7235W        W26089  13.051   7.181  10.471 -0.2666 -0.0031  0.0291
 7236W        W26090   0.704  15.047   2.308  0.1010  0.1435  0.0406
 7237W        W26091  11.869   3.306   2.170 -0.2574  0.2631 -0.0944
 7238W        W26092  15.426   9.863   3.145  0.2067 -0.1114 -0.1586
 7239W        W26093   3.647  15.095   5.410  0.2833  0.1685 -0.2840
 7240W        W26094  10.981   2.835  11.678 -0.1148  0.0526 -0.0671
 7241W        W26095   4.429   3.188   0.361  0.2108  0.0622 -0.0112
 7242W        W26096  16.015  15.490   2.842 -0.2008  0.0966  0.3047
 7243W        W26097  16.055   5.142  15.582 -0.1865  0.0273 -0.2392
 7244W        W26098   4.155   1.650   3.047  0.0662  0.0910 -0.0053
 7245W        W26099  17.516  17.466   4.898  0.1325 -0.0733 -0.2068
 7246W        W26100  10.169  11.515   1.423  0.3201  0.1756  0.1160
 7247W        W26101   8.290  13.316   4.120  0.1742 -0.1633  0.0059
 7248W        W26102  15.440  15.061  12.038 -0.2597 -0.0548 -0.2111
 7249W        W26103  11.723   1.632  14.439  0.1594  0.0884  0.2245
 7250W        W26104  16.376  11.687  13.185 -0.1411  0.0512 -0.0201
 7251W        W26105   6.701  17.738   3.701  0.2325  0.0558  0.1329
 7252W        W26106   3.233   3.563   2.127 -0.2998 -0.1781  0.2096
 7253W        W26107   8.523  10.378  13.894  0.0956  0.0416 -0.0889
 7254W        W26108   2.981  17.802   3.080 -0.2704  0.1964 -0.0678
 7255W        W26109  14.455  15.101   1.257 -0.0493  0.0340 -0.1682
 7256W        W26110  10.089   1.320   2.861  0.2318  0.1300 -0.0995
 7257W        W26111   8.162   8.829  13.646  0.1024  0.2353  0.1131
 7258W        W26112  11.717   2.446  15.140  0.2190 -0.1142 -0.0923
 7259W        W26113   8.721   2.251   0.582 -0.0619  0.1609 -0.0546
 7260W        W26114   4.780   0.822  13.880 -0.0776 -0.1437 -0.2619
 7261W        W26115  17.407  13.899   4.120 -0.0242 -0.0278 -0.1916
 7262W        W26116   8.816  13.945  12.013 -0.1758  0.1460  0.0340
 7263W        W26117   5.381   5.067   3.517  0.2200 -0.1833  0.1570
 7264W        W26118  11.024   4.456  13.629 -0.1465 -0.1570  0.3989
 7265W        W26119   4.412   5.102  13.776  0.4147  0.0242  0.0655
 7266W        W26120   6.685   6.668  13.605  0.1814  0.2877 -0.1390
 7267W        W26121  15.274  12.740   3.418  0.1010  0.1617 -0.3367
 7268W        W26122   3.273   9.109   2.165 -0.2362  0.0686  0.1289
 7269W        W26123  12.884  12.193  12.658 -0.2536  0.0196 -0.2156
 7270W        W26124   1.919   7.208  12.670  0.0487  0.1939  0.2678
 7271W        W26125   7.389  13.087  15.387 -0.1155 -0.0798  0.0905
 7272W        W26126   9.567   3.158  14.299  0.3161  0.3768 -0.1775
 7273W        W26127  13.413   4.016   2.613 -0.0185 -0.0285 -0.0282
 7274W        W26128  16.138   2.895   3.748 -0.3832 -0.1449 -0.0374
 7275W        W26129  17.401  11.962  12.063  0.0734  0.0315  0.2237
 7276W        W26130  12.669  11.408   4.070 -0.0326 -0.0634  0.1017
 7277W        W26131  14.824   9.627   1.152 -0.1683  0.0455  0.1193
 7278W        W26132  12.067  13.033   4.009  0.1851 -0.1948  0.1412
 7279W        W26133   7.587   2.463   2.029  0.1963  0.0953 -0.1839
 7280W        W26134   5.589  12.469  15.307  0.0956  0.0826 -0.1192
 7281W        W26135  14.239  11.494   4.966 -0.3472  0.0950  0.1394
 7282W        W26136   0.653  14.820  14.084  0.1094  0.1610  0.0743
 7283W        W26137  13.877  11.919   0.730  0.2429 -0.3029  0.1550
 7284W        W26138  15.578  14.552   3.973  0.1986 -0.0064  0.1824
 7285W        W26139   5.797  17.542   2.027 -0.0563 -0.1769 -0.1262
 7286W        W26140  15.327   3.866  13.884 -0.0172  0.4983  0.0882
 7287W        W26141  15.184  13.977   0.846  0.1963 -0.0007  0.1182
 7288W        W26142   4.548   3.145  13.448 -0.1600 -0.0033 -0.1232
 7289W        W26143   2.816   8.677  12.499  0.0074 -0.1327  0.2740
 7290W        W26144   5.315  13.511   5.421 -0.1468 -0.3058  0.3418
 7291W        W26145  10.261  14.290   3.801 -0.1113 -0.0811  0.2353
 7292W        W26146   3.973   6.159   4.612  0.1448  0.1620  0.3564
 7293W        W26147  13.303  16.265   3.655  0.1569  0.0197 -0.1386
 7294W        W26148  13.601  13.988   0.024  0.0860 -0.0496 -0.2051
 7295W        W26149   8.221   2.959  14.109 -0.0383  0.1486 -0.0720
 7296W        W26150  12.783  13.759  15.238  0.0918 -0.1107 -0.1179
 7297W        W26151   8.965   1.235   0.850  0.2613 -0.1368 -0.0577
 7298W        W26152   5.202  13.383  14.571 -0.0024  0.1777 -0.5144
 7299W        W26153  13.704  10.788  14.373 -0.1928 -0.2433  0.2846
 7300W        W26154  16.324  10.043  16.053  0.0573  0.4192  0.1883
 7301W        W26155  11.928   8.755   0.696  0.1557 -0.4622 -0.0716
 7302W        W26156  11.453   7.329   1.102  0.1134 -0.1277 -0.0578
 7303W        W26157   3.608  14.288   0.499  0.2493 -0.0351 -0.0662
 7304W        W26158   4.562   7.323  12.744  0.0211  0.0156  0.1143
 7305W        W26159   2.990   2.490   2.858  0.1269 -0.0491 -0.2593
 7306W        W26160   5.820   1.003  15.334  0.2648 -0.0608 -0.2864
 7307W        W26161   2.108  12.966  14.995  0.1696  0.2590  0.0088
 7308W        W26162  16.281   1.822   3.807  0.0376 -0.0093 -0.2760
 7309W        W26163  10.346  12.423   0.973 -0.1194 -0.0050 -0.2171
 7310W        W26164   8.712   4.750   2.986 -0.3172  0.1692 -0.1848
 7311W        W26165  15.534   7.921   1.540 -0.2734 -0.0826 -0.1724
 7312W        W26166  11.523   1.095  11.844 -0.1370  0.3490 -0.1619
 7313W        W26167   2.155   2.139   4.008 -0.4110 -0.4651 -0.1751
 7314W        W26168   2.313  13.499  13.691 -0.1114  0.3884 -0.0722
 7315W        W26169   8.888  16.834  15.183 -0.2240  0.0408 -0.0922
 7316W        W26170   4.111   0.448  12.501  0.0332 -0.0995 -0.1825
 7317W        W26171  10.544   2.527   4.533  0.1620 -0.0435 -0.4716
 7318W        W26172   7.081  12.153  12.461 -0.0075  0.1438  0.1355
 7319W        W26173  13.923   9.636  12.255  0.4114 -0.1423  0.4841
 7320W        W26174   5.431  13.856   3.033 -0.1697  0.2401 -0.2996
 7321W        W26175   3.640   0.657   4.349  0.0716  0.2256  0.0596
 7322W        W26176   0.269   6.211  14.022 -0.0432 -0.2015  0.0486
 7323W        W26177   8.711   1.712  14.916  0.0031 -0.1999 -0.0041
 7324W        W26178  13.184  10.600   3.969 -0.1000  0.0269  0.2102
 7325W        W26179   2.921   2.986   2.657 -0.0131 -0.0930  0.2003
 7326W        W26180   7.513  11.046   4.361  0.2347 -0.1134  0.2014
 7327W        W26181   9.879  10.223  13.679  0.3048 -0.1605 -0.1040
 7328W        W26182  14.395   3.396  12.577 -0.0021  0.0219 -0.1036
 7329W        W26183   1.277   2.340   1.838 -0.0689 -0.1794 -0.3289
 7330W        W26184  15.043   7.711  11.174  0.0125  0.0200  0.0939
 7331W        W26185  12.580   6.662  11.634 -0.0523 -0.2657 -0.1059
 7332W        W26186   3.261  14.754  15.271  0.1352 -0.2190  0.3415
 7333W        W26187   9.060   5.919   1.336  0.0596 -0.2415 -0.1838
 7334W        W26188  16.087  12.031   0.817  0.0293  0.2726 -0.0975
 7335W        W26189  10.475  11.676   1.082  0.2313 -0.0191  0.1960
 7336W        W26190   5.159   4.203  12.685 -0.1768 -0.1748 -0.1117
 7337W        W26191  12.284   8.385   0.438 -0.1251 -0.0197 -0.0884
 7338W        W26192  11.861   1.708  11.879  0.2038 -0.0069  0.0794
 7339W        W26193   2.313  17.304  14.926  0.0197  0.1256  0.1667
 7340W        W26194   4.582   1.608   1.517 -0.1525  0.1158 -0.0630
 7341W        W26195   6.269   4.800   3.450 -0.1340 -0.0589  0.0422
 7342W        W26196  16.631   6.313   2.483 -0.1168 -0.0413 -0.1358
 7343W        W26197   0.428  12.905   0.444  0.0585  0.2422  0.0335
 7344W        W26198   9.764   2.619  12.403 -0.2100 -0.0764  0.0366
 7345W        W26199  12.049  11.121  15.566 -0.0953 -0.4049  0.1022
 7346W        W26200  10.181   4.027  15.550 -0.1510  0.0089 -0.1043
 7347W        W26201  13.014   9.502  11.966 -0.1113  0.1530  0.0312
 7348W        W26202   6.967  11.435   5.945 -0.2213 -0.0353  0.1801
 7349W        W26203   2.009   8.704   0.114 -0.2876  0.1439  0.0675
 7350W        W26204   6.321   6.152   3.352 -0.2933 -0.2501 -0.4120
 7351W        W26205   2.304  16.716   3.882 -0.0554  0.2062  0.1173
 7352W        W26206   0.843   0.723   1.364 -0.0932  0.1939  0.0989
 7353W        W26207   3.426  13.291  15.418 -0.3298  0.1536 -0.2080
 7354W        W26208  12.990   9.788   2.607  0.2745  0.1766 -0.3632
 7355W        W26209  13.734  15.375  13.145 -0.4587  0.1964  0.1203
 7356W        W26210   1.104   8.708  11.066  0.0772  0.0489 -0.1726
 7357W        W26211  17.833   0.831  12.203 -0.0900 -0.0172 -0.2126
 7358W        W26212   8.857   8.932  13.394 -0.3518  0.0957 -0.1291
 7359W        W26213   6.270   6.764  15.435 -0.1537 -0.0495 -0.0853
 7360W        W26214  14.314  10.396  15.242 -0.0301  0.0019 -0.0543
 7361W        W26215   8.295   4.712  12.475  0.0570 -0.1028 -0.2465
 7362W        W26216   8.491  11.990   5.097 -0.2561  0.0353 -0.0671
 7363W        W26217   1.943   0.778   4.114  0.0666 -0.1420  0.0782
 7364W        W26218   9.676  12.383   0.378  0.0147 -0.3793 -0.0605
 7365W        W26219   7.939   9.491   0.631 -0.0067 -0.1231 -0.2245
 7366W        W26220  14.642   5.866   3.725 -0.0171 -0.0152 -0.3587
 7367W        W26221  18.017   9.537   1.328  0.0025  0.0325  0.0303
 7368W        W26222   6.833  13.976   3.165 -0.0820 -0.1188  0.0247
 7369W        W26223   1.402   1.964  15.516  0.2353 -0.0917  0.2117
 7370W        W26224   3.741  16.570  14.416  0.0259 -0.2344  0.2037
 7371W        W26225   5.993   5.204   3.363  0.1574  0.4468 -0.1389
 7372W        W26226  10.807   6.419   3.726 -0.3091  0.0737 -0.0415
 7373W        W26227  16.351   0.644  12.080 -0.5047  0.2492 -0.2369
 7374W        W26228  13.207  17.839  15.857  0.1420 -0.2566  0.1308
 7375W        W26229  13.095  15.485   2.330  0.0276  0.0395  0.1472
 7376W        W26230  10.514   7.183   2.254  0.2452 -0.2990  0.0821
 7377W        W26231  11.126  10.571  13.214 -0.0709  0.3039  0.1945
 7378W        W26232   5.858   1.597  11.345  0.1745  0.0847  0.1396
 7379W        W26233   3.823   8.627   2.951  0.0360 -0.2501 -0.2097
 7380W        W26234   5.782   5.697  14.354  0.3786  0.2112  0.0016
 7381W        W26235  16.557   7.461   2.063 -0.2111  0.0732 -0.3836
 7382W        W26236  15.431   2.674  11.971  0.1583 -0.0816 -0.0464
 7383W        W26237   3.860  15.439  15.878  0.0990  0.3015 -0.0398
 7384W        W26238  10.858   2.217   4.223 -0.1474 -0.1572 -0.2170
 7385W        W26239  10.217   3.908   4.480 -0.0551  0.3205 -0.1993
 7386W        W26240  13.201   7.743  12.003 -0.2832 -0.0593  0.2107
 7387W        W26241  16.887   2.455   4.074 -0.0756  0.2991 -0.1023
 7388W        W26242  11.556  15.559  13.556 -0.3042  0.0247  0.2522
 7389W        W26243   0.694  13.402   1.074  0.3126  0.0870 -0.0946
 7390W        W26244   0.488   4.652   2.965  0.4335  0.1466  0.1857
 7391W        W26245   4.842   3.618  15.963  0.1243 -0.0928  0.0051
 7392W        W26246   4.464   5.605   3.043  0.1997  0.0653 -0.2035
 7393W        W26247  14.784  15.437  13.289  0.2339  0.1368  0.0331
 7394W        W26248  10.222  16.546   2.927  0.0347 -0.0447 -0.0772
 7395W        W26249  16.446  14.332   3.267 -0.1165  0.1477 -0.4006
 7396W        W26250   6.328   3.776   0.070 -0.1338 -0.2686  0.1880
 7397W        W26251  14.404   1.032   4.120  0.1213  0.1654 -0.0766
 7398W        W26252  15.642  17.942   1.612 -0.1306 -0.0397  0.1723
 7399W        W26253   2.527  10.735  14.110  0.2552  0.3004  0.1454
 7400W        W26254  13.345  17.985  12.782 -0.2058 -0.0168  0.1498
 7401W        W26255  17.784   9.627   3.445  0.1264 -0.2120 -0.1027
 7402W        W26256   6.501  16.861  10.924 -0.3478  0.1920  0.1403
 7403W        W26257  14.508  14.895  11.644  0.4516  0.2659 -0.0224
 7404W        W26258   1.610   9.834   0.630  0.0358  0.2213 -0.0890
 7405W        W26259  14.169  10.572   3.048  0.1382 -0.2645 -0.1331
 7406W        W26260   8.494   4.032  10.437  0.1385 -0.1689 -0.2297
 7407W        W26261   5.019   1.710  14.215  0.1940  0.0580  0.3542
 7408W        W26262  17.054   0.390   3.029 -0.0018 -0.0794 -0.1173
 7409W        W26263  10.644   2.391   0.408 -0.1502 -0.2141  0.0538
 7410W        W26264   9.310  17.116  15.255  0.0404  0.1809  0.0645
 7411W        W26265  13.689  16.031   3.456 -0.2458  0.2938  0.0014
 7412W        W26266  14.356   0.225  13.221  0.3748  0.0500 -0.1729
 7413W        W26267   2.186  13.977   4.441  0.2500 -0.0496 -0.1443
 7414W        W26268   5.537  17.387   4.311  0.0606  0.0994  0.0154
 7415W        W26269   2.358   5.589   1.171  0.1839 -0.0379 -0.2805
 7416W        W26270   7.996   5.026   1.478 -0.1504 -0.0505  0.0733
 7417W        W26271   9.895   6.394  13.967 -0.0847  0.0940  0.0441
 7418W        W26272  11.093   1.959  10.382  0.1582  0.0457  0.0324
 7419W        W26273   8.539  15.566   2.295 -0.1223  0.0062  0.1203
 7420W        W26274   0.886  14.611   3.034 -0.1060  0.1421 -0.1092
 7421W        W26275  11.298  11.235  14.910 -0.0145 -0.1791 -0.1052
 7422W        W26276   5.032   5.798  12.108  0.1399  0.2637  0.2630
 7423W        W26277   5.918   9.957   4.051 -0.4378  0.1460  0.1980
 7424W        W26278  10.174   9.428  12.734  0.0439 -0.0115 -0.0319
 7425W        W26279  11.508  14.863   1.179 -0.0525  0.4780  0.3030
 7426W        W26280  10.098  10.405   0.962 -0.0403  0.0967 -0.2778
 7427W        W26281  11.247  13.686  13.145  0.2650 -0.0305 -0.0638
 7428W        W26282   6.630   8.140   2.124 -0.0421  0.0245 -0.2221
 7429W        W26283   2.864  13.303   4.695  0.0013  0.1123 -0.0951
 7430W        W26284   2.191  12.075   4.435  0.1499  0.1057 -0.4291
 7431W        W26285   9.524  12.454   4.334 -0.0972  0.1437  0.1332
 7432W        W26286   5.663  14.662   1.967  0.1214  0.0966 -0.0565
 7433W        W26287  16.078   2.952   5.077  0.0963 -0.1882 -0.2690
 7434W        W26288   9.867  11.554   5.421  0.3490 -0.0605 -0.1243
 7435W        W26289  13.481   2.303  11.473  0.0427 -0.0323 -0.1909
 7436W        W26290  10.407  17.585   5.395  0.1341  0.0170 -0.0082
 7437W        W26291   2.608   5.004   4.297  0.0646 -0.0739 -0.0467
 7438W        W26292   8.686  10.945  16.092 -0.1153 -0.1985 -0.0480
 7439W        W26293   6.619  10.537   5.045  0.0714  0.1463  0.1128
 7440W        W26294   1.129   9.123  11.289 -0.0736  0.0046 -0.2029
 7441W        W26295  11.574   0.296  15.759 -0.1733 -0.1401 -0.1321
 7442W        W26296  17.774   7.681   1.913  0.0316 -0.1831 -0.3388
 7443W        W26297   6.362  10.916  15.606 -0.1205 -0.1546  0.0904
 7444W        W26298   1.117  11.853   4.739  0.0321 -0.2538  0.2136
 7445W        W26299  16.051  13.053  13.830 -0.1826 -0.2163 -0.3889
 7446W        W26300   6.618   8.677  14.505 -0.1133  0.2349  0.1322
 7447W        W26301   7.938   4.948  14.524 -0.2198 -0.1022  0.1128
 7448W        W26302  16.915  14.105   0.688 -0.0908  0.0246  0.0942
 7449W        W26303   2.847  10.095   4.125 -0.4010  0.2152 -0.0395
 7450W        W26304   6.237  11.760   1.934 -0.2572  0.1525  0.1488
 7451W        W26305   9.913   3.491   2.482 -0.0949  0.3379 -0.0719
 7452W        W26306   9.201  13.781  14.083 -0.3605  0.0497 -0.0210
 7453W        W26307  11.205   8.494  12.741  0.1746  0.1663  0.2108
 7454W        W26308   1.273  15.411   0.044 -0.1146 -0.0427  0.0126
 7455W        W26309   1.171  14.160  14.488  0.1179  0.1247 -0.3636
 7456W        W26310   2.978  10.066   1.983 -0.0297 -0.0502  0.1138
 7457W        W26311  10.204   0.520   0.907 -0.2061  0.1051  0.0373
 7458W        W26312  16.437   3.220   2.788 -0.0484  0.1770  0.2147
 7459W        W26313   4.713  14.292   0.629  0.1244  0.0749 -0.0992
 7460W        W26314   6.396   4.847  14.168 -0.0392  0.2095 -0.0695
 7461W        W26315   6.750   5.044   3.583 -0.2155 -0.1205  0.1974
 7462W        W26316   1.844   7.946   0.573 -0.1968 -0.5403  0.2965
 7463W        W26317   5.281   6.251   2.941  0.1480  0.0607 -0.1861
 7464W        W26318  13.453   9.952   3.323 -0.0854 -0.4074  0.1324
 7465W        W26319   6.868   4.368   1.621  0.0143 -0.0418  0.0666
 7466W        W26320  12.650   5.696  13.565 -0.2271 -0.0723 -0.1426
 7467W        W26321  12.898  12.013   4.412  0.0399  0.1064 -0.0254
 7468W        W26322   8.343   3.513  14.309 -0.1505 -0.1229 -0.1871
 7469W        W26323   1.124   7.194  13.926 -0.4841 -0.2086  0.2926
 7470W        W26324  14.011   0.876   4.450 -0.0596  0.1395  0.1854
 7471W        W26325   5.371   4.710  13.315  0.1317 -0.2141 -0.0803
 7472W        W26326   9.056   3.405   4.192  0.0504 -0.1287  0.0081
 7473W        W26327   9.142   7.426  16.178 -0.1874 -0.0295  0.1368
 7474W        W26328   6.672  14.320  12.228  0.2275 -0.0134 -0.1781
 7475W        W26329   8.089   9.107  14.015 -0.1975  0.0215  0.2082
 7476W        W26330   7.266  17.422  12.277 -0.0152  0.3195  0.1994
 7477W        W26331   3.489  12.256   4.336 -0.0292 -0.3087  0.0254
 7478W        W26332   7.692   7.025   1.679  0.0931 -0.0057 -0.0487
 7479W        W26333  15.539  10.036  13.014  0.0521  0.1912 -0.2181
 7480W        W26334  15.023  16.376   4.280  0.0355 -0.0547  0.1457
 7481W        W26335  17.715   0.684  14.515  0.1466 -0.3260  0.1909
 7482W        W26336   1.516   3.485   3.459 -0.0845 -0.0371  0.2229
 7483W        W26337  10.583  16.949  15.382  0.0561 -0.0358  0.0610
 7484W        W26338   6.802  10.745   3.220 -0.1698 -0.1662 -0.0934
 7485W        W26339  10.362   0.352  15.008 -0.0882  0.0435  0.0026
 7486W        W26340   7.564  17.853  13.517  0.2035  0.0264 -0.0233
 7487W        W26341  14.213   2.871   0.118  0.2199 -0.1661 -0.0697
 7488W        W26342  16.660   8.291  10.751 -0.0417 -0.0423 -0.0175
 7489W        W26343   3.357   5.472  11.755  0.3850  0.0190 -0.1579
 7490W        W26344   7.383   7.873  11.926  0.2741 -0.6670  0.1590
 7491W        W26345   8.310  15.783  14.386 -0.2086 -0.1220 -0.0094
 7492W        W26346   8.166   3.610  12.530  0.0253  0.2290  0.2849
 7493W        W26347  11.830  11.116  13.988 -0.0501  0.1569 -0.0368
 7494W        W26348  15.853  13.633   2.369 -0.0647 -0.0037  0.1943
 7495W        W26349  12.695  13.211  13.589 -0.0291 -0.3919 -0.1894
 7496W        W26350   8.007   1.860   0.360  0.0362 -0.1745  0.1151
 7497W        W26351   4.145  11.609   1.271  0.0329 -0.0421 -0.0739
 7498W        W26352  15.117   6.956  12.455  0.0670  0.1481  0.1918
 7499W        W26353   0.583   1.882  13.383 -0.2353 -0.1695 -0.1072
 7500W        W26354  12.114   9.332  15.278 -0.0485 -0.1116  0.0464
 7501W        W26355  17.051  15.701  15.074  0.0888  0.2205  0.2874
 7502W        W26356   9.950   0.789  15.683 -0.4533  0.0161 -0.1622
 7503W        W26357  18.022   7.891   3.177 -0.0676  0.1882 -0.2887
 7504W        W26358   8.293  10.958  12.133 -0.1080  0.1443  0.1223
 7505W        W26359   4.197   2.638  12.683 -0.2002 -0.1352 -0.1715
 7506W        W26360   0.515   8.923   1.828  0.1404 -0.0649 -0.1255
 7507W        W26361   1.676  12.639  15.829  0.0562 -0.2176 -0.0913
 7508W        W26362   0.869  11.659  14.807  0.1601 -0.2554 -0.0650
 7509W        W26363   1.520   6.971  15.885  0.0034 -0.1247  0.1067
 7510W        W26364   3.323  10.554  10.865  0.2501 -0.2578  0.0808
 7511W        W26365   3.791   3.096   4.437  0.0381 -0.0968 -0.1225
 7512W        W26366  10.509   9.996  14.405 -0.1959  0.1954 -0.1130
 7513W        W26367  13.640  17.046   3.903 -0.1170  0.0425  0.0715
 7514W        W26368  12.433  14.819   4.306  0.0211 -0.0006 -0.0918
 7515W        W26369   0.771   3.984  13.761 -0.1033 -0.1506  0.0479
 7516W        W26370   6.099   8.739   2.576 -0.0145 -0.2043 -0.0448
 7517W        W26371   8.343   0.157   5.238 -0.0078  0.0766  0.1008
 7518W        W26372   0.103   7.044   3.973 -0.2281 -0.0667  0.1663
 7519W        W26373   1.211   7.112   3.608  0.0219 -0.0143  0.2480
 7520W        W26374  11.071   3.839  13.369  0.0887  0.1642 -0.1499
 7521W        W26375   9.065   8.411   0.088  0.1478 -0.2376 -0.0398
 7522W        W26376   0.529   5.407  12.840  0.2550  0.0841  0.0564
 7523W        W26377   7.543  17.498   3.705 -0.0935  0.1543 -0.0536
 7524W        W26378   0.182  12.178  14.473  0.1328  0.5430 -0.3329
 7525W        W26379   4.662  14.657  11.716  0.0730  0.1272  0.0796
 7526W        W26380   1.541   8.268  13.377  0.2061 -0.1848 -0.1806
 7527W        W26381  10.549   4.210   3.534 -0.0861 -0.1549 -0.1742
 7528W        W26382   2.568   9.949  15.214 -0.1771 -0.0598 -0.2974
 7529W        W26383  15.320  14.717   3.053 -0.0930  0.1230  0.0829
 7530W        W26384  14.312  17.131  13.331  0.0150 -0.0071 -0.0765
 7531W        W26385   3.100  12.847  12.879  0.1899  0.1644  0.1866
 7532W        W26386   2.845  14.409  12.654  0.1545 -0.0368 -0.1122
 7533W        W26387   3.686  15.106   4.384 -0.1597 -0.0705  0.3693
 7534W        W26388  18.001   0.358  13.555 -0.1919 -0.0182 -0.0868
 7535W        W26389  17.978   5.317   2.276 -0.0996 -0.3419 -0.1480
 7536W        W26390   5.287   5.273  11.466 -0.0248 -0.0977 -0.2375
 7537W        W26391  17.076  17.909   1.289 -0.1372 -0.0275 -0.2539
 7538W        W26392   6.181   4.597  13.093  0.0008  0.1466 -0.0987
 7539W        W26393  14.425   9.719   0.428 -0.3179 -0.0750  0.1856
 7540W        W26394   4.654   2.921  12.961 -0.1970  0.2329  0.0753
 7541W        W26395  12.027   2.022   3.326  0.1523 -0.2663 -0.0023
 7542W        W26396  15.564  16.603  13.962  0.1282 -0.0237  0.2176
 7543W        W26397   7.993  14.281  13.934 -0.4922  0.0824  0.0348
 7544W        W26398   5.811  14.762   3.353  0.0740 -0.2525 -0.1058
 7545W        W26399   3.857   2.901  13.557  0.0077 -0.0024  0.0037
 7546W        W26400  14.385   6.140   2.353 -0.1625 -0.5523  0.1047
 7547W        W26401   7.125   5.676   0.791  0.3005  0.3180  0.0226
 7548W        W26402   7.196   8.794   3.443 -0.1829  0.3962 -0.2948
 7549W        W26403  16.145   9.763  11.184  0.0072  0.0223  0.0465
 7550W        W26404  17.356  13.843  11.690 -0.1436 -0.2431  0.0618
 7551W        W26405  17.509  11.617   4.081  0.0599  0.1698 -0.0036
 7552W        W26406   3.541  12.268  14.285  0.1633 -0.0518  0.3561
 7553W        W26407  11.008   8.961   3.204  0.3227 -0.3333 -0.0890
 7554W        W26408   2.692  17.266   0.286 -0.0093 -0.2440 -0.3003
 7555W        W26409  16.023   1.193   3.295  0.0365 -0.0872 -0.0609
 7556W        W26410  14.805   3.469   3.750 -0.0055 -0.0847 -0.1637
 7557W        W26411  11.814   1.158   3.341 -0.2449  0.1753 -0.0057
 7558W        W26412   5.653  16.378   0.372  0.1372 -0.0452  0.1064
 7559W        W26413   7.957  10.202  14.670 -0.2224 -0.0353  0.3799
 7560W        W26414  18.004  13.316   3.670 -0.0217 -0.0767  0.1435
 7561W        W26415  13.831  16.340   0.294 -0.0306 -0.0460 -0.1191
 7562W        W26416  11.081   8.959   0.402 -0.0216 -0.2144  0.1281
 7563W        W26417   0.354  17.377   0.412 -0.0628  0.0819  0.0116
 7564W        W26418   5.628   3.288  15.641  0.0646 -0.2578 -0.1209
 7565W        W26419   9.974  10.960  15.868  0.0533  0.0032  0.1483
 7566W        W26420  16.774   9.922  11.652  0.3092  0.0282 -0.1233
 7567W        W26421   2.120  11.339  15.274  0.2617  0.0912  0.4247
 7568W        W26422   6.166   7.003   5.207  0.1474 -0.0223  0.0919
 7569W        W26423   9.484  14.380   1.582 -0.1321  0.1460 -0.0597
 7570W        W26424  11.427  14.975  12.888  0.1480  0.3711 -0.1429
 7571W        W26425  17.813  12.117   4.126  0.1100  0.0511  0.1459
 7572W        W26426   0.054   7.166  12.176  0.2564 -0.0470 -0.2066
 7573W        W26427   4.117  15.719   3.018  0.0777  0.1508 -0.3096
 7574W        W26428  10.919  11.153   3.600  0.2754 -0.0167  0.1623
 7575W        W26429   0.291  13.052   0.964 -0.2039  0.0623 -0.3127
 7576W        W26430  14.601   5.073  15.164  0.2205  0.2370  0.2213
 7577W        W26431   8.603   6.461   2.579 -0.0151  0.0595 -0.0417
 7578W        W26432  14.035   3.193  15.199 -0.2646  0.0510 -0.2324
 7579W        W26433   2.435  17.649  14.575 -0.0384  0.1951 -0.1281
 7580W        W26434  12.408   0.481  15.180  0.0440  0.2095  0.0394
 7581W        W26435   6.798   7.297  15.059 -0.1184 -0.0937 -0.0779
 7582W        W26436   8.808   1.796  15.432 -0.0688  0.2037 -0.1678
 7583W        W26437  15.470  15.860  14.802 -0.3138  0.0250  0.0805
 7584W        W26438   1.963  11.290  13.010  0.2051  0.3072 -0.1393
 7585W        W26439  11.741   4.595   0.994 -0.2588  0.0573 -0.1399
 7586W        W26440   1.076   1.925  12.329  0.0589 -0.2776 -0.1583
 7587W        W26441   8.947  15.248  13.937  0.0631 -0.1189  0.1883
 7588W        W26442   2.423  10.585   1.592  0.1132 -0.1539  0.1000
 7589W        W26443   8.609   8.830   2.067 -0.2683 -0.3149 -0.1030
 7590W        W26444   8.080   0.453  14.122 -0.1857  0.1444 -0.3168
 7591W        W26445  13.885   5.271  14.204  0.2422 -0.3314  0.2523
 7592W        W26446  10.344   7.400   4.772  0.0077 -0.2462 -0.1279
 7593W        W26447   9.344   8.952   1.494 -0.0698  0.1196  0.1751
 7594W        W26448  13.888  12.616   1.470 -0.0428 -0.0351  0.0952
 7595W        W26449   2.815   7.001  15.018 -0.1519 -0.2385 -0.1082
 7596W        W26450   0.599   2.814  15.570 -0.1057  0.0527  0.1588
 7597W        W26451  15.152  15.060  13.138  0.1294  0.0847  0.0914
 7598W        W26452  14.490  11.701  12.289  0.1168  0.2910  0.2053
 7599W        W26453   9.708   6.666   2.035  0.0923  0.0387  0.4441
 7600W        W26454  15.376   4.386   0.949 -0.0471 -0.0630  0.0514
 7601W        W26455   0.718  15.277   0.538 -0.0486 -0.3132  0.2158
 7602W        W26456   8.867   4.107  13.674  0.2192  0.0760 -0.0720
 7603W        W26457   2.823   6.591  15.379  0.0666  0.0483  0.0452
 7604W        W26458  17.101  17.141   0.063 -0.1394  0.1375 -0.1657
 7605W        W26459   6.192   8.201   4.010 -0.2348 -0.0899  0.5373
 7606W        W26460  15.246   0.449   1.261  0.2569  0.2395 -0.1002
 7607W        W26461  15.231  14.447  14.320  0.0889 -0.0674  0.1734
 7608W        W26462  15.583  15.973  16.099  0.2119  0.3195 -0.2108
 7609W        W26463  15.935  11.844  13.170  0.0891 -0.3732 -0.1412
 7610W        W26464   3.568  11.576  12.659 -0.0375 -0.2302  0.0327
 7611W        W26465  16.710   9.582   3.342 -0.1846  0.0292 -0.2026
 7612W        W26466   3.953   3.122   3.222  0.0998  0.0692 -0.0505
 7613W        W26467   0.931  13.297   2.734 -0.0312 -0.1693 -0.1859
 7614W        W26468  12.748  10.454  11.905  0.2911  0.1965  0.1827
 7615W        W26469   6.692  12.072  13.621  0.0293  0.0115  0.2223
 7616W        W26470   9.374   1.310  11.346  0.0278 -0.1533  0.2136
 7617W        W26471   0.957  12.173   0.824 -0.0512  0.0912 -0.0854
 7618W        W26472  16.443  16.660  14.856  0.0811  0.0012 -0.1665
 7619W        W26473   3.248  14.474   4.796  0.1967  0.3451 -0.0443
 7620W        W26474  10.994   4.001   3.473 -0.0840  0.0761  0.1204
 7621W        W26475   5.819  15.747  11.994 -0.1385  0.0171 -0.1088
 7622W        W26476  12.395   2.323   1.926  0.2263 -0.0572  0.1223
 7623W        W26477  15.622  12.668   5.104 -0.2569 -0.3758  0.0381
 7624W        W26478   5.914   3.921   1.366 -0.2786  0.1232 -0.0301
 7625W        W26479  14.386  12.244  12.877 -0.0138  0.0567 -0.0672
 7626W        W26480  12.339   6.403  13.094 -0.0629  0.1787  0.2421
 7627W        W26481   0.116   4.807   4.580 -0.1505  0.0505 -0.2084
 7628W        W26482  15.868   5.496   3.185  0.1270  0.1466  0.0851
 7629W        W26483  16.570   8.058   0.959 -0.0070 -0.1596  0.1225
 7630W        W26484  11.453  12.996   4.695 -0.1636 -0.1779 -0.1422
 7631W        W26485   5.166   2.956  12.841 -0.1502  0.0588 -0.1253
 7632W        W26486  12.946   9.242   3.023  0.0346 -0.0870  0.1060
 7633W        W26487  15.242  14.451  13.755 -0.1815 -0.0226  0.1014
 7634W        W26488   2.430   8.868  15.937 -0.3521 -0.2261  0.0469
 7635W        W26489  17.415  16.665  13.481  0.1192  0.1959 -0.0961
 7636W        W26490   9.647   1.920   3.191 -0.2325 -0.0716  0.0152
 7637W        W26491  11.225   6.011  13.706  0.2851  0.1407 -0.1078
 7638W        W26492  12.747   6.017  12.080 -0.1340 -0.1172 -0.0531
 7639W        W26493   3.973  16.975   0.695 -0.3687 -0.2769 -0.0347
 7640W        W26494   1.769  12.504   1.163  0.0820  0.0954 -0.0310
 7641W        W26495   3.515   7.556  12.414 -0.1818 -0.1799  0.1774
 7642W        W26496  18.027   4.194  13.154  0.1191 -0.0521 -0.0804
 7643W        W26497  13.714   9.986   4.601 -0.3248  0.1142 -0.1714
 7644W        W26498   7.039   7.999   3.876 -0.2540 -0.1061  0.1643
 7645W        W26499  15.058   1.263   0.835 -0.1089  0.3317 -0.2123
 7646W        W26500   4.964   1.973   4.424 -0.3709  0.4111  0.0220
 7647W        W26501   1.785   7.238  13.382 -0.0233  0.5290  0.0262
 7648W        W26502   6.702  10.797   1.772  0.1717  0.0046 -0.1620
 7649W        W26503  11.492   1.384   2.210  0.1399  0.3692 -0.0192
 7650W        W26504  15.320  10.256   0.696 -0.0892  0.1648  0.1326
 7651W        W26505   3.710   4.304   2.646 -0.0945  0.1829 -0.3880
 7652W        W26506   7.424   9.136  10.633 -0.1621  0.0152  0.2511
 7653W        W26507  11.211  11.056   2.364  0.4731 -0.1101  0.2056
 7654W        W26508   4.225   4.632  14.168  0.1533 -0.2051 -0.0085
 7655W        W26509  12.586   0.463   3.348 -0.1285  0.1334  0.1329
 7656W        W26510  13.325   2.735   1.139  0.2437  0.3438 -0.0402
 7657W        W26511  10.111  12.148   2.200 -0.0826 -0.0111 -0.1151
 7658W        W26512   5.905   6.006  15.142  0.1423 -0.0376 -0.0487
 7659W        W26513  15.838  16.210   4.724  0.1538  0.4718 -0.0250
 7660W        W26514  10.336   8.202   0.254 -0.2575  0.1880 -0.1972
 7661W        W26515  10.073   3.204   4.845 -0.0067  0.3872 -0.0624
 7662W        W26516   9.162  17.581  15.633 -0.0060 -0.0773 -0.0833
 7663W        W26517  14.655   5.426  16.053 -0.0643 -0.1130  0.2122
 7664W        W26518   1.017  13.237   3.655  0.0367  0.1395 -0.0265
 7665W        W26519  15.467  13.824  15.378  0.2922 -0.0103 -0.1759
 7666W        W26520  11.073   8.896   2.143  0.2026  0.3283  0.0760
 7667W        W26521   8.440  11.907   3.795 -0.1698  0.2829  0.0369
 7668W        W26522   2.895   7.043   1.242  0.2803 -0.2620 -0.2998
 7669W        W26523  16.166   1.092   4.425  0.1532 -0.0594 -0.1136
 7670W        W26524  11.644  11.265  15.290 -0.1450  0.1886  0.1977
 7671W        W26525  10.130   0.696  14.741  0.0406 -0.3120  0.1578
 7672W        W26526   1.130  15.242   3.626 -0.2541  0.0232 -0.2467
 7673W        W26527   8.451   5.065   4.465  0.0450 -0.3432 -0.0467
 7674W        W26528   0.290   9.495  11.929 -0.0778  0.2224 -0.4348
 7675W        W26529   9.992  14.459  13.875  0.2611 -0.0080 -0.1750
 7676W        W26530   4.878  14.974   0.683 -0.3289 -0.1542  0.1196
 7677W        W26531   1.809   3.929   3.564 -0.0598  0.1173 -0.1232
 7678W        W26532   6.941  15.060   1.632  0.2599  0.0471  0.1763
 7679W        W26533   6.229  11.876  12.062 -0.0096  0.1444 -0.2705
 7680W        W26534  14.595   5.712   3.225 -0.0790  0.1010  0.2388
 7681W        W26535   1.083   4.936  16.104  0.0523 -0.0148 -0.0093
 7682W        W26536  12.487  13.353  15.448 -0.2154 -0.1789  0.0546
 7683W        W26537   7.523   3.959   4.028  0.2464  0.2420  0.1231
 7684W        W26538  14.482   0.017   4.746 -0.2497 -0.2608 -0.1181
 7685W        W26539  16.921   4.654   0.478 -0.1863  0.0361  0.0711
 7686W        W26540   2.978  16.840   0.084  0.2609 -0.2586 -0.1055
 7687W        W26541  11.562   7.129  13.820  0.4024 -0.0184  0.0097
 7688W        W26542   3.862   7.928   3.311  0.0244 -0.4072 -0.1280
 7689W        W26543   1.189  13.934   3.854 -0.0907  0.0569 -0.0372
 7690W        W26544  12.365  15.022  11.385 -0.1355  0.1369 -0.2475
 7691W        W26545   8.916  10.979   2.832  0.0951  0.2848  0.2786
 7692W        W26546   4.779   2.959   3.547 -0.2743 -0.1496  0.0875
 7693W        W26547   7.149   3.407   2.218  0.0870 -0.0800  0.1435
 7694W        W26548  17.809  12.625  15.594  0.1491 -0.2792  0.0773
 7695W        W26549  11.626  16.330   4.705 -0.0688 -0.1252  0.0248
 7696W        W26550  14.273  10.800  14.453  0.0746 -0.4385 -0.1102
 7697W        W26551  15.202   8.089  14.591 -0.2177  0.0892 -0.0815
 7698W        W26552  12.767   9.032   1.820 -0.1827  0.0225  0.2453
 7699W        W26553   6.043   3.337  15.949 -0.1953  0.3825  0.0475
 7700W        W26554  11.217   6.439   2.697  0.1604 -0.1054  0.1903
 7701W        W26555   9.825   7.482  11.232  0.0581 -0.0316 -0.0763
 7702W        W26556   4.544   1.865   3.242  0.4048  0.0825 -0.0122
 7703W        W26557   4.023   4.384  12.513 -0.0798 -0.1438 -0.3311
 7704W        W26558  14.157   6.454   0.520  0.1217  0.0196  0.0909
 7705W        W26559  16.724  11.936   0.037 -0.1322  0.1375  0.0276
 7706W        W26560  14.399  12.183   0.820  0.2145  0.1238 -0.0937
 7707W        W26561  12.915   2.492  15.935  0.0999  0.0837 -0.1122
 7708W        W26562   3.956  13.020  12.595 -0.0008  0.1985  0.1295
 7709W        W26563   0.670  17.153   0.073  0.1101 -0.4956  0.1271
 7710W        W26564   2.297   2.867   1.020 -0.1265  0.0152 -0.2326
 7711W        W26565   4.083   1.842   1.737 -0.1603  0.1679 -0.4122
 7712W        W26566   1.374   9.049   3.988 -0.0985 -0.2683  0.2564
 7713W        W26567   9.799  11.079  11.693 -0.1459 -0.0897  0.2985
 7714W        W26568  10.717   6.582   2.844  0.0128 -0.1549 -0.0378
 7715W        W26569   8.049   2.132  14.703 -0.2407 -0.1043  0.2431
 7716W        W26570   6.139  12.214   3.807  0.1121  0.1245  0.2484
 7717W        W26571   0.876  16.607  15.212 -0.1191  0.0178  0.0818
 7718W        W26572  12.504   5.573  15.417  0.1650  0.3402  0.3790
 7719W        W26573  13.368   8.205  15.555  0.0969 -0.1008  0.2444
 7720W        W26574   2.211   9.888   4.508  0.2924 -0.1298 -0.2144
 7721W        W26575  14.254   7.588  15.786 -0.0204 -0.0747 -0.2360
 7722W        W26576   7.511   5.993   0.154  0.1461 -0.0394 -0.0493
 7723W        W26577   6.540   7.632   2.177 -0.1349  0.0706  0.0565
 7724W        W26578  12.027  15.270   1.800 -0.3895 -0.3857 -0.1410
 7725W        W26579   7.372   6.313   3.583  0.1651 -0.1745  0.1930
 7726W        W26580  11.437  15.500  14.452 -0.1773 -0.2220  0.0550
 7727W        W26581  10.751   5.444   1.109  0.1728  0.1513  0.0169
 7728W        W26582  13.482   0.599   2.430 -0.2785 -0.0872 -0.0232
 7729W        W26583  11.920  15.848   1.827  0.3527 -0.1037  0.1468
 7730W        W26584   7.479  13.117   5.179 -0.1843 -0.0448  0.2452
 7731W        W26585  15.549   4.075  16.164  0.1147 -0.2119  0.0151
 7732W        W26586  13.137  14.857  12.922  0.1874  0.0775  0.0380
 7733W        W26587   9.026  16.882   5.230 -0.1317  0.1120 -0.0226
 7734W        W26588   9.378  12.739  13.979  0.0726 -0.0197 -0.0716
 7735W        W26589   0.493   2.810  11.460 -0.2115 -0.0511  0.2508
 7736W        W26590  14.504   6.449  13.674  0.2004  0.0774 -0.3116
 7737W        W26591   2.242   8.463   2.848  0.1812  0.0751 -0.0920
 7738W        W26592  13.063  11.401   5.071  0.2383 -0.1508 -0.2450
 7739W        W26593  11.737  14.831  14.297  0.1666 -0.0143 -0.1837
 7740W        W26594   3.937   7.873   4.971  0.1166  0.2120  0.1958
 7741W        W26595  17.973  11.058  10.136 -0.0974 -0.0614  0.4046
 7742W        W26596   0.445  12.617  12.174 -0.0654 -0.0623  0.1391
 7743W        W26597   2.979  11.154   2.162  0.0870 -0.4876 -0.1251
 7744W        W26598   3.741   5.759  16.061 -0.0521 -0.1660 -0.2365
 7745W        W26599  15.480   8.042   5.027  0.0217 -0.1578 -0.1682
 7746W        W26600  14.568   5.485  12.555 -0.2628  0.3523 -0.3021
 7747W        W26601   3.306  17.340   4.786 -0.0480 -0.1008 -0.0032
 7748W        W26602  12.166   5.150  16.122 -0.0771 -0.2004  0.3055
 7749W        W26603  16.912  17.483   0.505 -0.1149  0.2360 -0.1538
 7750W        W26604   8.653   1.731   4.226 -0.1940 -0.1079 -0.0153
 7751W        W26605  11.167   1.804   3.065 -0.0789 -0.3663 -0.2586
 7752W        W26606  15.661   0.829   3.654  0.1340  0.3650 -0.0916
 7753W        W26607  14.626  14.663   3.791  0.1307  0.0836  0.0901
 7754W        W26608   7.373  14.285   0.651  0.0905 -0.1502 -0.1873
 7755W        W26609  14.394  17.873   3.423 -0.0479 -0.1586 -0.0478
 7756W        W26610   8.140   2.412   3.709  0.0647 -0.2255 -0.3367
 7757W        W26611  16.742   9.615  10.425  0.0817 -0.0352 -0.1049
 7758W        W26612   7.193  10.374   3.472  0.0402  0.1619 -0.1190
 7759W        W26613   5.490   3.339   2.994  0.3051 -0.1914  0.0050
 7760W        W26614   1.893   2.066  14.432  0.2276 -0.0004  0.1490
 7761W        W26615   7.905   6.207  14.102 -0.0768 -0.0740  0.0151
 7762W        W26616  17.001  12.369   0.161  0.3561  0.1382 -0.1711
 7763W        W26617  11.009   7.072   1.353  0.2494 -0.0118  0.0266
 7764W        W26618   9.287   8.655  12.154  0.1362  0.0159 -0.1389
 7765W        W26619   1.168  15.817   2.092 -0.1265  0.2202  0.1807
 7766W        W26620  15.824  17.264  13.104  0.1917 -0.0424 -0.0038
 7767W        W26621   4.950  12.258  16.019 -0.2733  0.1457 -0.1641
 7768W        W26622  11.703   5.426   3.370  0.3217  0.1312 -0.3839
 7769W        W26623   1.316   8.529   1.544 -0.0066  0.0053 -0.2995
 7770W        W26624   2.809   0.474   4.811 -0.2253 -0.1648 -0.0162
 7771W        W26625  13.943   5.300   4.050 -0.3735 -0.0380 -0.0733
 7772W        W26626   4.265   0.171  14.721  0.0587 -0.1615 -0.0389
 7773W        W26627  17.951   1.734   1.379  0.3019  0.0421  0.3333
 7774W        W26628  14.537   9.998   1.120  0.1672  0.0479  0.1336
 7775W        W26629   1.655  17.600   1.839 -0.3381 -0.1596  0.0598
 7776W        W26630   2.230   6.998  12.127  0.3410  0.4643 -0.1994
 7777W        W26631   7.332   0.388   0.563  0.0417  0.0299  0.0701
 7778W        W26632  17.991   1.243  11.883 -0.3101 -0.0187  0.1592
 7779W        W26633   0.185   9.200  13.811  0.0632  0.0325  0.0065
 7780W        W26634   4.321   2.109  12.598  0.0514  0.1431  0.0430
 7781W        W26635  12.899   1.719  12.677  0.0856  0.0934  0.2222
 7782W        W26636   7.876   6.713   3.774 -0.0039  0.0826  0.0466
 7783W        W26637  11.139  11.752   4.395 -0.0267 -0.0248 -0.1225
 7784W        W26638  16.191   5.765  15.124 -0.0861 -0.2412  0.0537
 7785W        W26639   6.717  12.596   2.783  0.1897  0.2388  0.0072
 7786W        W26640   2.651  16.623   4.815 -0.0409 -0.2821 -0.0552
 7787W        W26641   0.836  12.925  12.510  0.1353  0.2026 -0.3127
 7788W        W26642   9.635   6.946  13.197  0.1330  0.0930  0.0489
 7789W        W26643  16.941  18.000  12.683 -0.4167 -0.1572 -0.2915
 7790W        W26644   5.159  14.321  13.543 -0.3975 -0.0067  0.1796
 7791W        W26645  15.514  11.168   1.480 -0.4007 -0.2368 -0.2522
 7792W        W26646  17.408   1.239  16.195  0.2298  0.2548  0.1347
 7793W        W26647   1.061   4.412   1.964 -0.2439 -0.0777 -0.1434
 7794W        W26648   8.729   0.335   1.028 -0.2952  0.0820  0.0488
 7795W        W26649   4.587  14.739  14.740 -0.1521  0.0769 -0.1815
 7796W        W26650  10.405   4.012  16.079 -0.2320  0.0354 -0.1157
 7797W        W26651  14.203   7.621   3.617  0.0182 -0.0338  0.1669
 7798W        W26652   4.502  10.883   1.132 -0.0058  0.0141  0.0649
 7799W        W26653   5.639   8.750  16.182  0.0165  0.1657 -0.1302
 7800W        W26654   8.862   2.776   4.730 -0.4205 -0.0053 -0.1189
 7801W        W26655   8.278   5.908  13.387  0.1439 -0.2351  0.1121
 7802W        W26656   6.245  12.827  12.822 -0.1411 -0.1133  0.3603
 7803W        W26657   6.935   3.024  12.242 -0.3064  0.0284  0.2983
 7804W        W26658   4.299  12.831  12.292 -0.1611  0.0097  0.0510
 7805W        W26659   3.321  16.203   3.158 -0.0615  0.1655  0.0737
 7806W        W26660  16.813  10.700   0.793 -0.0237  0.1679 -0.0893
 7807W        W26661  11.192   2.618   2.456  0.2573 -0.1784 -0.1755
 7808W        W26662  12.953   5.313   0.820 -0.1192  0.1806 -0.1170
 7809W        W26663   8.393  12.776  12.163 -0.0118 -0.0256  0.1597
 7810W        W26664  13.882   3.772  15.995 -0.1988  0.1244  0.1551
 7811W        W26665   1.007   7.246   0.067 -0.1110 -0.1232  0.2573
 7812W        W26666   8.799  13.896   0.422 -0.0348  0.2960  0.0718
 7813W        W26667  17.817  14.284  13.839 -0.1598 -0.0524 -0.0288
 7814W        W26668  17.091   5.618   3.584  0.0122 -0.2030 -0.2329
 7815W        W26669   2.301   8.907  14.371  0.0219 -0.1131  0.2657
 7816W        W26670   4.164  14.714  13.041 -0.5786  0.0356  0.1881
 7817W        W26671  13.840   1.332  12.731  0.1087  0.1302  0.1437
 7818W        W26672  15.502   7.138   4.859 -0.0914  0.2816  0.4249
 7819W        W26673   6.566  17.266   5.368 -0.0812 -0.0687 -0.0836
 7820W        W26674   9.075   4.062  12.395 -0.1665  0.0032  0.1214
 7821W        W26675   6.985   8.931   4.633 -0.1886 -0.0167 -0.1153
 7822W        W26676   0.903   7.388  11.123  0.0954 -0.2020  0.0070
 7823W        W26677   8.075  16.327  14.929  0.0282  0.1225 -0.2311
 7824W        W26678  13.157  10.302  11.540  0.2382  0.2218  0.1119
 7825W        W26679  15.806  16.765  12.277 -0.2446 -0.2338  0.3233
 7826W        W26680   5.879  15.736   4.758  0.1845  0.0371  0.0699
 7827W        W26681   9.208  10.312  15.669 -0.0124  0.2172  0.4738
 7828W        W26682   8.279   1.826   2.438  0.3489  0.0666 -0.0795
 7829W        W26683  14.626   5.342   3.778 -0.1410  0.0494 -0.1437
 7830W        W26684   1.817   1.085   3.109  0.0688  0.2420 -0.1322
 7831W        W26685  10.712  11.729   4.801 -0.1363 -0.1835 -0.2614
 7832W        W26686   1.751  11.043  14.521  0.1120  0.2418 -0.2983
 7833W        W26687  17.303   1.794  15.317 -0.0572  0.0018  0.2827
 7834W        W26688   5.851   2.235  12.526 -0.0816 -0.0657  0.0046
 7835W        W26689  16.010   4.460   0.845 -0.0034 -0.1351 -0.3171
 7836W        W26690  12.053   0.026  11.248 -0.2329  0.1508  0.3086
 7837W        W26691   2.063   3.922   4.516  0.0508  0.0040 -0.0629
 7838W        W26692   8.797   9.990  14.011  0.2367  0.0979  0.0012
 7839W        W26693  15.974  12.083  14.002  0.0043  0.2440 -0.1760
 7840W        W26694   4.171   6.097  15.785 -0.0331 -0.0193 -0.0390
 7841W        W26695  14.209   4.931   1.576 -0.1822  0.1584  0.2768
 7842W        W26696   8.137   3.352  13.031  0.5437 -0.0819  0.0919
 7843W        W26697  17.169   7.834  13.169 -0.0704  0.0489 -0.2014
 7844W        W26698  10.313  16.341  15.969  0.1917  0.0952  0.0080
 7845W        W26699   6.929   9.353   4.402 -0.0499  0.0062 -0.0730
 7846W        W26700  15.573   5.530   2.454  0.0299 -0.1451 -0.0324
 7847W        W26701   2.498   1.494   2.794 -0.0213 -0.1545 -0.0645
 7848W        W26702   4.230  11.534   0.698  0.2200 -0.0828  0.2519
 7849W        W26703   2.629  14.646  15.949  0.0104  0.0658  0.0384
 7850W        W26704   5.423  15.589   0.732 -0.1116  0.1348 -0.0434
 7851W        W26705   0.298  13.647   2.454 -0.0296  0.2326  0.0107
 7852W        W26706   5.888  10.874  13.465 -0.0586  0.0238 -0.0572
 7853W        W26707   5.383  11.747  13.546 -0.1198  0.0459 -0.2471
 7854W        W26708  17.255   6.001   2.660 -0.0787  0.3567  0.2693
 7855W        W26709  14.076   5.682   0.140 -0.0953 -0.0329  0.3176
 7856W        W26710  14.249   2.866   2.275  0.0811  0.0423  0.3012
 7857W        W26711  14.077   1.592   0.618  0.0576 -0.0739 -0.1121
 7858W        W26712   0.583  11.206   2.840 -0.1816  0.0054  0.0659
 7859W        W26713   0.812  16.470  13.872 -0.0564  0.2984  0.0143
 7860W        W26714  17.751   2.559  15.295 -0.0430 -0.1567  0.0704
 7861W        W26715  10.471   5.049   1.187  0.2152 -0.0018  0.0617
 7862W        W26716   7.163   7.015   3.827  0.1000  0.0141 -0.1549
 7863W        W26717  16.581   6.935   1.922 -0.1891  0.1160  0.0579
 7864W        W26718   7.456  13.794   0.616  0.0782  0.0207 -0.2261
 7865W        W26719   2.518  12.726  11.217  0.0055  0.0032  0.4181
 7866W        W26720  11.103  14.092  15.510  0.1224 -0.1886  0.1075
 7867W        W26721  10.237   7.193   0.056 -0.2524 -0.0383 -0.1261
 7868W        W26722   9.558   4.568  15.087  0.1042  0.1548  0.0009
 7869W        W26723   2.463   9.709  15.728  0.1854 -0.0966 -0.1926
 7870W        W26724   1.175  17.964  15.231  0.0058  0.0586  0.0178
 7871W        W26725   6.724   8.899   0.744 -0.3078 -0.2898  0.3227
 7872W        W26726   7.858  14.729  13.577  0.0531 -0.0801 -0.0941
 7873W        W26727  11.109   7.955   2.550  0.0358  0.1231 -0.1500
 7874W        W26728   8.028   4.177  14.940  0.0840 -0.0625 -0.1436
 7875W        W26729   1.389   9.592   4.122 -0.3441 -0.1591 -0.0933
 7876W        W26730   4.516   3.992   2.222  0.4331 -0.1954 -0.0779
 7877W        W26731   6.850   3.657  13.071 -0.2174 -0.1288  0.3148
 7878W        W26732  10.611   6.647   1.571 -0.1360  0.2252 -0.0947
 7879W        W26733   5.407   5.972  15.297  0.2789  0.1713  0.1871
 7880W        W26734   3.578   2.097  13.247  0.0020 -0.1162  0.1317
 7881W        W26735  13.439  13.687   5.258 -0.0975 -0.2048 -0.2445
 7882W        W26736  10.601  16.290  13.289  0.0528  0.1307 -0.1049
 7883W        W26737   2.869   3.396   5.464 -0.1589  0.1671  0.3092
 7884W        W26738  16.822  13.966  15.337 -0.2483 -0.1811 -0.1472
 7885W        W26739   7.528  14.566   1.092 -0.0039  0.3046  0.2419
 7886W        W26740   7.536  15.575   3.745 -0.0551  0.1018 -0.0679
 7887W        W26741   3.461  15.738  12.147  0.1782 -0.0975 -0.1275
 7888W        W26742  10.683  12.583   4.013  0.6934  0.1715  0.0405
 7889W        W26743   8.735   9.104   0.332  0.0266 -0.1885 -0.0581
 7890W        W26744   6.309   7.170  15.843 -0.1219 -0.0875 -0.0949
 7891W        W26745   7.398   0.560   3.678 -0.1186  0.3965 -0.1475
 7892W        W26746   9.813   0.242  13.575  0.0942  0.0248  0.0817
 7893W        W26747  13.041   1.324   4.617  0.0889 -0.3087  0.0647
 7894W        W26748  16.544   4.501  13.178 -0.0083  0.0290 -0.2386
 7895W        W26749   2.712   5.479  13.875 -0.0064  0.0505 -0.0708
 7896W        W26750   8.075  13.846   0.353 -0.0153 -0.1526 -0.0135
 7897W        W26751  13.743   0.716   3.895  0.0983 -0.0094  0.0894
 7898W        W26752   9.900  13.931  12.219 -0.2310 -0.1957 -0.1112
 7899W        W26753  11.990   8.675   0.182 -0.1718  0.0480 -0.1650
 7900W        W26754  13.380  11.067  13.736 -0.1762 -0.0406  0.0438
 7901W        W26755  14.297   3.682  15.721 -0.1418 -0.2728  0.0301
 7902W        W26756   4.373   4.629  14.710  0.4123 -0.0024  0.4208
 7903W        W26757  15.701  10.390  15.639 -0.1540 -0.0250  0.0650
 7904W        W26758   1.236   5.642  11.435  0.0035  0.1887 -0.0625
 7905W        W26759   5.853   5.174   1.837  0.0040 -0.2349 -0.3242
 7906W        W26760   1.483   6.287   2.062  0.0747 -0.3447 -0.1344
 7907W        W26761   5.031   9.339  15.691 -0.0979  0.0578  0.0819
 7908W        W26762   1.049   7.852  15.676 -0.0420 -0.1374 -0.4011
 7909W        W26763   2.724  16.536   1.864  0.1095 -0.1952 -0.3209
 7910W        W26764  13.302  12.166  11.724 -0.2416 -0.0539 -0.1648
 7911W        W26765   4.201   8.558  13.464 -0.0604 -0.1887  0.1336
 7912W        W26766   5.235  15.320  14.317  0.1250  0.3564 -0.1233
 7913W        W26767  16.225   7.588   0.188 -0.1275  0.0072  0.1152
 7914W        W26768  11.188   9.662   4.641 -0.1859  0.0040  0.2214
 7915W        W26769   1.840   9.228  12.662  0.4090  0.1491 -0.1156
 7916W        W26770   9.631  12.969   0.525  0.0299 -0.0542 -0.0753
 7917W        W26771  10.329   0.742  15.393  0.0677 -0.1461 -0.1030
 7918W        W26772   9.181  11.689   4.439  0.1058 -0.0276  0.0108
 7919W        W26773  14.845  11.091   2.321  0.1357 -0.0506 -0.2792
 7920W        W26774   2.651  12.292   1.040 -0.2019  0.1882  0.0084
 7921W        W26775  11.537  10.263  11.856 -0.1703 -0.3029  0.2214
 7922W        W26776  17.515  12.419   0.265  0.1129  0.0858 -0.2076
 7923W        W26777   5.597   1.130   4.084 -0.2991  0.1806  0.1751
 7924W        W26778   8.475  11.811   0.000 -0.0260 -0.2244 -0.4403
 7925W        W26779  13.187   2.888  13.942 -0.2110  0.0302 -0.0653
 7926W        W26780  14.500   6.981  15.051  0.1337 -0.0230 -0.0101
 7927W        W26781   8.470   3.615  13.301  0.1448  0.0077  0.1426
 7928W        W26782  17.598   7.272   4.332 -0.1278  0.0989  0.2077
 7929W        W26783   9.095   3.895   2.753  0.2984 -0.0675 -0.3389
 7930W        W26784   6.121   2.911   3.805 -0.1373 -0.0808 -0.0587
 7931W        W26785   9.557  14.317  11.990  0.2853  0.1628 -0.1320
 7932W        W26786  16.961  12.975   4.049 -0.0529 -0.2909  0.1941
 7933W        W26787   3.307   9.795  11.267  0.2659  0.2350  0.0836
 7934W        W26788   0.425  11.676  14.161 -0.0939  0.1255 -0.0432
 7935W        W26789   8.164  16.050  15.369 -0.0289 -0.0217 -0.1410
 7936W        W26790  16.053   6.344  13.939 -0.0638  0.1540 -0.4426
 7937W        W26791  10.613  11.962   5.356  0.1465  0.1949  0.0264
 7938W        W26792  13.009  13.905   0.514  0.0324  0.0787  0.3240
 7939W        W26793  13.594   5.958  13.467 -0.1281  0.1217 -0.0549
 7940W        W26794   1.266  14.898  13.992 -0.1842 -0.3261 -0.0175
 7941W        W26795   4.773  17.443  12.194 -0.2050 -0.0239  0.2173
 7942W        W26796   6.274   6.335  13.789 -0.0600 -0.3172  0.0716
 7943W        W26797   5.508   7.533  13.721 -0.0544 -0.3542  0.0743
 7944W        W26798   1.644  10.894   0.392 -0.1078 -0.0835  0.1157
 7945W        W26799   4.321  16.505  12.224 -0.2078  0.2414 -0.0449
 7946W        W26800  17.362  11.586  13.580  0.0594 -0.2118  0.0048
 7947W        W26801  16.315  15.543  14.412 -0.0815  0.0550  0.0073
 7948W        W26802  13.625  12.961  13.714 -0.0097 -0.0668 -0.0913
 7949W        W26803   2.124   7.125   1.748 -0.0673 -0.2471  0.0319
 7950W        W26804   6.716   3.423   1.990  0.0183 -0.0285  0.0118
 7951W        W26805   0.536  10.857   0.675  0.2435 -0.0852 -0.0377
 7952W        W26806  15.114  16.754  16.046  0.0481 -0.1082 -0.0112
 7953W        W26807   2.595   5.685   2.750 -0.0728  0.0136  0.1475
 7954W        W26808   5.399   7.896   1.504  0.0248  0.0174 -0.0418
 7955W        W26809   8.028  15.578  15.342 -0.1103  0.1259  0.1302
 7956W        W26810   0.289  14.671  11.587  0.1011 -0.0094 -0.1537
 7957W        W26811   8.935  14.458   4.442  0.2360  0.0951  0.0651
 7958W        W26812   1.710   0.149  15.680 -0.3330  0.1194  0.1685
 7959W        W26813  15.664  16.812   3.073 -0.1025  0.0617 -0.0759
 7960W        W26814  12.007   0.231   3.521  0.0074  0.0830 -0.0354
 7961W        W26815  10.159   9.743   3.913 -0.0118 -0.1200  0.1436
 7962W        W26816   7.661   7.637  15.378  0.1949  0.0710  0.2887
 7963W        W26817  10.800   0.073   1.450 -0.2465  0.0447  0.0870
 7964W        W26818  16.381   2.217  16.007  0.0110  0.0241 -0.2048
 7965W        W26819   8.028   4.223  15.464  0.2628 -0.0473 -0.1777
 7966W        W26820   6.460   1.936  11.551  0.1251  0.1270  0.0010
 7967W        W26821   2.173   1.434   0.673 -0.0795  0.0843 -0.0843
 7968W        W26822   7.719   6.449   2.527 -0.0815 -0.0751  0.1816
 7969W        W26823  16.259  13.859   4.965 -0.3908  0.4747 -0.1226
 7970W        W26824   9.705   7.810   2.273 -0.1661 -0.0361  0.0067
 7971W        W26825   5.679   7.412   2.386  0.0893  0.2479  0.0887
 7972W        W26826  11.619   1.368  12.311 -0.0603 -0.0371  0.2356
 7973W        W26827   4.405   6.151   2.449  0.1088 -0.1042  0.0611
 7974W        W26828   8.589   2.201   1.755  0.1050 -0.2978 -0.1293
 7975W        W26829  15.742   7.316   2.931 -0.0354 -0.2886 -0.2534
 7976W        W26830   6.487   1.601   2.700 -0.0666  0.0255 -0.1091
 7977W        W26831  14.222  15.087   4.936 -0.4086  0.0548  0.0707
 7978W        W26832   2.286  15.400   4.828 -0.1288 -0.1055  0.3250
 7979W        W26833  12.503  12.548  12.451 -0.0845 -0.2222 -0.0250
 7980W        W26834   4.055   6.459   2.751 -0.0415 -0.1042 -0.2218
 7981W        W26835   8.353   5.751  15.357  0.2036  0.0825  0.0558
 7982W        W26836   5.145  10.262   0.779  0.1892  0.2212  0.0087
 7983W        W26837   5.261   2.340   4.349 -0.2552  0.2515  0.3647
 7984W        W26838   6.739   6.218   2.671  0.0428 -0.0116  0.0490
 7985W        W26839   3.376  15.916   1.389 -0.0736 -0.1532  0.2122
 7986W        W26840   2.344   9.243  15.573 -0.1689 -0.0303  0.3909
 7987W        W26841  17.636  15.808  11.934  0.0014 -0.1237  0.0257
 7988W        W26842   0.095  10.425   4.067  0.3265 -0.2231 -0.0657
 7989W        W26843   5.106  13.219  15.093  0.3211  0.1892  0.1927
 7990W        W26844  17.646  10.552  12.543  0.3541 -0.1580  0.1914
 7991W        W26845   2.460   4.099  14.861  0.2756 -0.0537  0.3445
 7992W        W26846   1.586  15.162  11.484  0.0025 -0.1412  0.2291
 7993W        W26847  17.255   1.399   0.423  0.1921 -0.0447 -0.1606
 7994W        W26848  10.392   1.205  12.493 -0.1215  0.2511  0.0815
 7995W        W26849   9.730  10.725   4.499 -0.2838 -0.1367  0.0227
 7996W        W26850  17.673   2.554  14.068 -0.3385  0.1013  0.1306
 7997W        W26851   1.648  12.742  12.538  0.1418 -0.2789  0.0659
 7998W        W26852  15.141  11.347  13.580  0.0203 -0.2137  0.0100
 7999W        W26853  11.899   0.145  10.803 -0.1367  0.4165 -0.0730
 8000W        W26854  13.034   2.653  11.791 -0.1132 -0.1431  0.0413
 8001W        W26855  12.026   1.086   3.764  0.0243 -0.0121 -0.2704
 8002W        W26856  14.762   9.438   4.403 -0.0566  0.3092  0.2715
 8003W        W26857  14.876   9.463  12.131  0.2264  0.2603  0.2655
 8004W        W26858  14.706   5.754   1.971  0.0538  0.2860  0.1131
 8005W        W26859  15.382   4.357   1.438 -0.0688 -0.1703  0.0541
 8006W        W26860   1.434   5.134   1.540  0.2856 -0.0665 -0.2775
 8007W        W26861  14.573   9.767   2.675 -0.1311 -0.2038  0.0444
 8008W        W26862   6.464  10.936  14.534  0.0972 -0.0666 -0.0091
 8009W        W26863   8.188   1.683  14.961  0.0102 -0.1022 -0.0004
 8010W        W26864  15.420   9.752   0.556 -0.1288 -0.2947 -0.1952
 8011W        W26865  10.783  17.692   3.243 -0.0336 -0.2113  0.1064
 8012W        W26866  15.694  10.921   3.875  0.0229  0.1433  0.0467
 8013W        W26867   6.166  14.680   0.191  0.2833 -0.1731 -0.2180
 8014W        W26868  14.705   8.630   2.299 -0.2127 -0.0150 -0.0497
 8015W        W26869   5.361  15.413  12.125  0.2750 -0.2271 -0.4175
 8016W        W26870  17.838  14.007  15.222 -0.2614 -0.1678  0.3617
 8017W        W26871   9.675  14.092   3.218 -0.0592  0.1391  0.0482
 8018W        W26872   4.189  13.096  14.730 -0.0264 -0.1783 -0.2040
 8019W        W26873   6.135  10.312   0.723  0.1875 -0.1478 -0.0245
 8020W        W26874   9.941  13.189   3.432 -0.1018 -0.1286  0.0407
 8021W        W26875   8.233  14.841  14.994  0.2339  0.0580 -0.0990
 8022W        W26876   1.816   6.405  14.178  0.2772 -0.1040 -0.0027
 8023W        W26877   5.187   0.709  12.847  0.0384 -0.1402 -0.3723
 8024W        W26878  15.225  15.366   3.762 -0.0378  0.0104 -0.1912
 8025W        W26879  12.577   5.965   1.411 -0.0421  0.1829  0.0617
 8026W        W26880  13.073  12.864  15.980  0.1316 -0.1092 -0.0410
 8027W        W26881  15.513  16.528  13.424 -0.0406 -0.1261 -0.0516
 8028W        W26882  14.424   8.713  12.718  0.0583 -0.0659 -0.2908
 8029W        W26883  12.742   2.978   3.873 -0.0141 -0.3843  0.1277
 8030W        W26884   9.876  17.240   3.617 -0.1569  0.0417  0.3645
 8031W        W26885  11.197  13.473   3.786  0.5254 -0.0412 -0.1435
 8032W        W26886   8.867  10.250  14.875 -0.1910  0.1244  0.0062
 8033W        W26887   0.719   5.695  15.745 -0.2811  0.0511  0.0404
 8034W        W26888   1.533  10.451   0.044 -0.3272 -0.0353  0.1093
 8035W        W26889   5.809  12.616  13.701 -0.1534 -0.0661  0.0243
 8036W        W26890  11.360   5.238   0.279  0.0740 -0.0213  0.0362
 8037W        W26891   3.180   3.351   1.626  0.2880  0.1355 -0.0156
 8038W        W26892  15.033   1.520  11.916  0.3876  0.2321  0.3378
 8039W        W26893  15.952  12.413   2.663 -0.3429  0.1042  0.1438
 8040W        W26894   4.319  14.386  15.031  0.0050 -0.1021 -0.2205
 8041W        W26895   9.320   7.654   1.421 -0.1276 -0.3042 -0.3664
 8042W        W26896  17.882   8.381  13.656  0.2992 -0.3398  0.1215
 8043W        W26897   9.049   2.365  11.862  0.0085 -0.0078 -0.1124
 8044W        W26898  10.595  15.322   2.158  0.0896 -0.0611 -0.1584
 8045W        W26899  17.883   3.303   3.202 -0.0477  0.0344 -0.0590
 8046W        W26900  15.803  13.773   1.860 -0.3940 -0.1211  0.1563
 8047W        W26901   0.446   4.714  11.810  0.0717  0.0202  0.0880
 8048W        W26902   3.944   4.625  11.740 -0.2751 -0.4070  0.0310
 8049W        W26903  15.451  17.214  16.215  0.1447 -0.1200 -0.2427
 8050W        W26904   3.415  12.056  12.568  0.0184 -0.0956 -0.1882
 8051W        W26905   7.622   6.343   1.187 -0.3063  0.0508  0.4546
 8052W        W26906   8.677   2.343   4.243  0.1388 -0.0930 -0.2123
 8053W        W26907   4.073   6.288  10.525 -0.2271  0.1476  0.2760
 8054W        W26908   9.791   0.611  12.143  0.2510 -0.2781  0.0948
 8055W        W26909  12.919  12.552  14.384  0.0432  0.1074  0.0034
 8056W        W26910  12.666  10.619   4.116  0.3184 -0.0491  0.1011
 8057W        W26911  14.212   5.010   3.749  0.2696  0.2303 -0.0147
 8058W        W26912  14.853  11.498   2.642 -0.0431 -0.0002  0.0447
 8059W        W26913   1.714   9.731   2.458  0.1645 -0.3783  0.1245
 8060W        W26914   3.663  12.418   0.623 -0.0720 -0.2735  0.1492
 8061W        W26915  11.281  17.931  13.287 -0.1783 -0.0234 -0.0145
 8062W        W26916   7.816   4.214   0.721  0.1148 -0.1132  0.0506
 8063W        W26917   0.129   3.561   1.036 -0.1866 -0.4967  0.1372
 8064W        W26918  17.773   9.787   4.748 -0.0135 -0.1113 -0.1032
 8065W        W26919   2.515  15.344  15.484  0.1067  0.0082  0.3822
 8066W        W26920   7.567  13.450  12.447  0.3249  0.3185 -0.1301
 8067W        W26921   1.601   3.136   2.143  0.0262  0.2113 -0.1955
 8068W        W26922  16.963   3.572  11.585  0.2048  0.2928 -0.0519
 8069W        W26923   4.435  11.969   5.644 -0.2472 -0.1986  0.0597
 8070W        W26924  12.356  14.281  16.035  0.0911  0.0201 -0.1434
 8071W        W26925   5.578   1.335  12.501 -0.2959  0.1014  0.2646
 8072W        W26926  15.451   6.615   4.803 -0.0974  0.0845  0.4983
 8073W        W26927  16.822   9.092  13.528  0.2435  0.0452 -0.1062
 8074W        W26928  12.364  15.566   0.572  0.1009 -0.1438 -0.0661
 8075W        W26929   1.080  17.135   2.184  0.0499 -0.1215 -0.0137
 8076W        W26930   5.271  10.224  15.435 -0.2965  0.2753 -0.0627
 8077W        W26931   5.126   2.365   1.615  0.2682 -0.0984 -0.1667
 8078W        W26932   1.897  12.797   3.722  0.0129 -0.1492 -0.1189
 8079W        W26933   9.765  11.385   1.775 -0.1938  0.0123  0.5013
 8080W        W26934  17.075   3.320   1.844  0.0558 -0.0589 -0.1007
 8081W        W26935   3.539   3.115   3.942  0.0792 -0.1469 -0.1036
 8082W        W26936   3.863  13.301  15.649 -0.0213  0.1286 -0.0321
 8083W        W26937   9.202  13.776   3.145 -0.0881 -0.0617  0.0646
 8084W        W26938  14.541   7.027  12.977  0.1036 -0.1418 -0.0545
 8085W        W26939  10.002   2.617   4.635  0.4130 -0.1800 -0.2790
 8086W        W26940  10.227   2.866  13.680  0.0016 -0.1111 -0.0205
 8087W        W26941   0.257   7.720  12.834 -0.0833 -0.0993 -0.1434
 8088W        W26942  15.288  13.353   4.645  0.1186  0.0201  0.5557
 8089W        W26943  15.868  15.859  13.449 -0.2376 -0.1289  0.1190
 8090W        W26944   9.107   7.901   3.500  0.0202  0.3365  0.0580
 8091W        W26945   0.964   9.929   4.299  0.0190  0.3160  0.1452
 8092W        W26946   2.161  14.118   0.032 -0.0831  0.1060  0.0113
 8093W        W26947  17.820   1.613  13.492  0.1771  0.2905 -0.1500
 8094W        W26948  13.841  17.220   2.871 -0.1830  0.0117  0.1621
 8095W        W26949   1.328  16.650   1.423  0.1151 -0.1205 -0.1691
 8096W        W26950   2.884   7.231  11.572  0.2281  0.0734 -0.2258
 8097W        W26951   7.668   2.889   2.566 -0.1045 -0.2303  0.0104
 8098W        W26952  16.258   6.098   0.596 -0.0307 -0.1165  0.1607
 8099W        W26953   3.383  13.836  15.064 -0.1326  0.2481  0.0781
 8100W        W26954  17.073   8.060   0.987 -0.0444  0.1252  0.0398
 8101W        W26955  12.175  12.224  15.018 -0.3338 -0.0239  0.0328
 8102W        W26956  17.749   6.143   1.462  0.0661  0.0978 -0.0237
 8103W        W26957   4.113   2.583   2.905 -0.2400 -0.0584 -0.0019
 8104W        W26958  14.914  13.685   3.598 -0.1449  0.1162 -0.2023
 8105W        W26959  17.734  10.450   3.569 -0.0576 -0.1352 -0.2767
 8106W        W26960  17.658   6.119   3.006 -0.0664 -0.0804  0.0705
 8107W        W26961   2.837   1.778   4.935  0.0369 -0.0285 -0.0355
 8108W        W26962  15.648  10.708  13.867 -0.1355  0.0497  0.1646
 8109W        W26963  16.756  10.625  13.752 -0.1212  0.2462 -0.2261
 8110W        W26964   8.753  15.767  12.124  0.1350 -0.0597 -0.1379
 8111W        W26965  12.640   3.770  14.183  0.0086  0.0302 -0.1187
 8112W        W26966  12.553  14.792   1.609 -0.2220 -0.2670 -0.2592
 8113W        W26967  11.918   6.026  16.144 -0.1040 -0.0347 -0.2021
 8114W        W26968   6.139   1.745  13.921  0.0085 -0.1915  0.0667
 8115W        W26969   5.237  14.742  13.164 -0.1395 -0.1691  0.3781
 8116W        W26970   2.198   9.368   1.280 -0.0280  0.1750 -0.0703
 8117W        W26971   2.952  12.518   1.855 -0.1257  0.0073  0.0148
 8118W        W26972  15.939   3.279  15.570 -0.1256  0.0973 -0.1354
 8119W        W26973   4.309  16.959   3.655  0.3020 -0.0109 -0.0366
 8120W        W26974  13.593   9.064   1.433 -0.0672 -0.3118 -0.0222
 8121W        W26975  16.336   2.518  11.544 -0.0135 -0.0045 -0.1686
 8122W        W26976   8.261   7.074   4.214 -0.0360 -0.3270  0.2273
 8123W        W26977  12.823   3.292   4.537  0.0949 -0.0768 -0.0287
 8124W        W26978  16.255   4.992   4.607  0.0809  0.0630 -0.1082
 8125W        W26979  15.059  13.368   2.793 -0.2040  0.0825  0.0382
 8126W        W26980   8.797   9.901   4.635 -0.1635 -0.1627  0.0761
 8127W        W26981   5.472   0.246  12.267 -0.2364  0.0984  0.0361
 8128W        W26982   5.842  17.199   2.947 -0.0004  0.0069 -0.1894
 8129W        W26983   5.000  17.316   0.572 -0.0656 -0.1712  0.0090
 8130W        W26984  15.200   6.509  14.498  0.0758 -0.0286  0.1419
 8131W        W26985   6.731  13.754  13.709  0.0779  0.0538 -0.1396
 8132W        W26986   4.357   2.762   4.610 -0.4742  0.0690 -0.2662
 8133W        W26987  16.820  16.599   2.237  0.0779  0.0623 -0.0370
 8134W        W26988   5.901   6.031  14.057 -0.1856  0.0546 -0.0003
 8135W        W26989  17.878   8.268   0.073  0.1209 -0.0317  0.2506
 8136W        W26990   9.022   1.672   4.600  0.0795  0.0301  0.0257
 8137W        W26991   6.970  13.119  15.730  0.0575 -0.0862 -0.4352
 8138W        W26992   5.122  10.362   2.364  0.1383  0.3397  0.0556
 8139W        W26993  12.874   5.591  14.214  0.3062 -0.3155  0.2208
 8140W        W26994   9.928   7.376   2.068  0.3771 -0.0511  0.0071
 8141W        W26995   0.074   0.049  14.960 -0.1281  0.1098  0.2289
 8142W        W26996  13.365   6.286  15.269  0.2518 -0.0990  0.0186
 8143W        W26997   0.252   6.179   2.536 -0.1112  0.1096 -0.1008
 8144W        W26998  12.820   7.776   1.329 -0.0203  0.2898  0.1919
 8145W        W26999  15.986  16.778   2.603 -0.1293  0.0492 -0.2279
 8146W        W27000  10.520  12.950   3.225 -0.1634 -0.0334 -0.2282
 8147W        W27001  10.401   1.079  13.470 -0.0619  0.0843 -0.1146
 8148W        W27002   8.524   2.091  15.130  0.0983 -0.0462  0.0755
 8149W        W27003   1.693   7.221   3.225  0.1987 -0.0334 -0.0025
 8150W        W27004   7.681   6.930  14.909  0.1572 -0.3165 -0.0088
 8151W        W27005  12.784  17.558   4.916  0.1238 -0.2782  0.0553
 8152W        W27006   2.511  11.780  15.167  0.0069 -0.1041 -0.0270
 8153W        W27007   1.527   1.669   1.966  0.0144 -0.2399 -0.1160
 8154W        W27008   1.039  11.945   2.961  0.1557 -0.0072 -0.0498
 8155W        W27009  12.849  11.234   0.090 -0.2627 -0.0862 -0.0767
 8156W        W27010   4.899   4.768   1.656 -0.3302  0.1346  0.0083
 8157W        W27011   2.202   5.753   0.073  0.3223  0.0211  0.2000
 8158W        W27012   9.358   0.869   0.761  0.1016  0.1748 -0.0082
 8159W        W27013   3.391  15.423  14.027  0.1538  0.0208  0.2978
 8160W        W27014   2.936  15.601  14.086 -0.0122  0.4923 -0.2196
 8161W        W27015   7.496   6.314  12.722  0.0743 -0.3121  0.3610
 8162W        W27016   2.496  10.092  12.729  0.0041  0.1937 -0.0004
 8163W        W27017   2.462  11.873  13.750 -0.0859 -0.1339  0.0157
 8164W        W27018   4.612  17.072   0.765 -0.0427 -0.3604 -0.2122
 8165W        W27019   2.382   1.088   0.999  0.1981  0.1477 -0.0391
 8166W        W27020   0.339  15.827   0.019  0.1218 -0.0141 -0.1970
 8167W        W27021  13.598   8.083  12.159  0.0451  0.2107 -0.1118
 8168W        W27022   9.101   6.854   0.777  0.1648  0.3998  0.1086
 8169W        W27023   2.806   3.124  13.156 -0.0679  0.0114  0.1545
 8170W        W27024   3.101  11.712  15.857  0.0845  0.0557  0.1213
 8171W        W27025   5.346   0.688  15.368 -0.1394  0.0722  0.2632
 8172W        W27026  13.268  14.969  11.726  0.1942 -0.0198 -0.0222
 8173W        W27027   5.220  15.989   5.237  0.0238 -0.5506 -0.3210
 8174W        W27028  10.874  12.487  12.428 -0.1068  0.3009 -0.0087
 8175W        W27029   8.564  15.292  14.381  0.1016  0.0011 -0.0861
 8176W        W27030   4.502   4.748   4.420  0.2513  0.0185  0.3844
 8177W        W27031  11.429   2.254   4.155  0.0830  0.1455 -0.1769
 8178W        W27032  11.719  11.342   1.150 -0.0723 -0.1970 -0.1723
 8179W        W27033  13.936   5.171  13.688  0.1246 -0.2951  0.3377
 8180W        W27034  13.321  15.025  14.055 -0.1756 -0.1356  0.0523
 8181W        W27035  12.551   6.516   2.138 -0.1316 -0.0421  0.0224
 8182W        W27036  14.453  13.177  14.747 -0.1610 -0.1567  0.0983
 8183W        W27037   6.967   2.554   3.360 -0.0927  0.0329 -0.0696
 8184W        W27038   5.660  18.005  14.693 -0.0478  0.0669 -0.1737
 8185W        W27039   6.627  16.868   3.082 -0.1522 -0.1799 -0.0412
 8186W        W27040   2.495  16.046   1.823 -0.1992 -0.0125  0.1178
 8187W        W27041   4.905   8.429   0.530 -0.1254  0.0022  0.0924
 8188W        W27042   5.986   0.170   4.786 -0.0725  0.4544 -0.0893
 8189W        W27043  10.149   6.757  13.181 -0.1257 -0.1640  0.2935
 8190W        W27044   5.059   4.895  11.059  0.1200  0.2362 -0.2817
 8191W        W27045  14.167  13.739   1.261 -0.1011 -0.2644 -0.2810
 8192W        W27046   2.930  16.142  15.273 -0.2877 -0.0209  0.0111
 8193W        W27047  12.852  15.360   0.662 -0.0292  0.1083 -0.0686
 8194W        W27048   5.304  14.913   3.325  0.2434  0.0526  0.2730
 8195W        W27049   6.076   6.706  15.892  0.2840  0.1115  0.1625
 8196W        W27050  11.513   9.594  13.569  0.0740 -0.0711 -0.0160
 8197W        W27051  15.343   5.057   2.616  0.1866  0.0084 -0.0278
 8198W        W27052  11.003   1.680   2.125 -0.2541  0.0779  0.0069
 8199W        W27053  16.820   9.204  15.555  0.0328 -0.2834  0.2553
 8200W        W27054  16.645  16.545  12.855 -0.1336  0.1083 -0.0325
 8201W        W27055   9.851   1.960   2.149 -0.1024  0.3896  0.0058
 8202W        W27056  15.288  12.002  11.785 -0.0677 -0.0837 -0.0895
 8203W        W27057   5.907  10.367   2.792  0.0528 -0.0788 -0.1050
 8204W        W27058   2.367  14.849  12.887  0.1599 -0.2412  0.1298
 8205W        W27059   6.917   0.174   3.613  0.2160  0.2693  0.2281
 8206W        W27060  14.149  15.069  14.415  0.2373 -0.2606  0.2946
 8207W        W27061   0.716  15.969  11.993 -0.2632 -0.1426 -0.0456
 8208W        W27062  17.406  15.808  15.464 -0.0115  0.1458  0.0329
 8209W        W27063  15.597  10.131  14.702  0.0454  0.1324  0.0425
 8210W        W27064  17.552  13.677  15.050  0.2851 -0.3317  0.1196
 8211W        W27065   6.112   1.280   4.141 -0.0529 -0.1856  0.0486
 8212W        W27066   7.404   3.464  15.764  0.2392  0.3577  0.0517
 8213W        W27067  17.460  15.801  16.215 -0.1454  0.1784 -0.0809
 8214W        W27068   9.885  11.704   4.619  0.1733  0.2439 -0.0806
 8215W        W27069  14.872   8.133  14.117  0.0124 -0.1962  0.1250
 8216W        W27070   4.336   3.604   0.098 -0.1251 -0.0370  0.1978
 8217W        W27071  15.469   1.152  12.767  0.1620 -0.0126 -0.0449
 8218W        W27072  17.833   8.852   2.943  0.1948  0.0658  0.1394
 8219W        W27073   7.872   6.297   0.439  0.2206 -0.0950 -0.0182
 8220W        W27074   1.025   8.675   3.779 -0.0929 -0.2137 -0.1749
 8221W        W27075  16.271  13.702  14.306  0.1107  0.0024 -0.3262
 8222W        W27076   7.249  14.419   2.480 -0.0746 -0.2776 -0.0762
 8223W        W27077   9.207   6.571  15.648  0.1248 -0.1194  0.0089
 8224W        W27078  17.398   1.547  15.763 -0.1898 -0.1181  0.0887
 8225W        W27079  11.338   0.611  11.817 -0.4198 -0.0528  0.0171
 8226W        W27080  13.546   2.924  15.068 -0.2298  0.0431 -0.0941
 8227W        W27081   9.362   3.729  15.960 -0.0521  0.2586 -0.0485
 8228W        W27082   2.615  15.788   1.026  0.3327 -0.0098 -0.1782
 8229W        W27083  17.701  12.238   1.158  0.1038  0.0613  0.1152
 8230W        W27084   9.175   5.128   0.850  0.0443  0.2028  0.0564
 8231W        W27085  11.196   7.684   2.049 -0.1374  0.1846 -0.0897
 8232W        W27086   1.677  10.923   1.309  0.0303 -0.4681 -0.0725
 8233W        W27087  12.876  11.572  15.942  0.4005 -0.1787  0.2178
 8234W        W27088   3.930   9.963  14.806  0.2468  0.3526  0.1430
 8235W        W27089  12.206   4.456   0.787  0.0559 -0.1627  0.2231
 8236W        W27090  13.042  14.920  12.410 -0.2095 -0.1099  0.0119
 8237W        W27091   0.981  13.602  13.711  0.3837 -0.2360 -0.2956
 8238W        W27092   6.583   5.708  12.094 -0.2002  0.0073  0.4538
 8239W        W27093  16.687  10.838   3.275  0.1157  0.0482 -0.1494
 8240W        W27094   0.574   5.311  11.019  0.1754  0.0689 -0.0113
 8241W        W27095  13.506   5.669  12.590 -0.0143  0.1031 -0.0888
 8242W        W27096   3.669  13.902  12.088 -0.1791 -0.0484  0.1697
 8243W        W27097  11.055  17.078  15.024 -0.1086  0.0565  0.1834
 8244W        W27098  12.249   0.640  13.106  0.2973 -0.0281 -0.0817
 8245W        W27099   9.348  13.363  12.362  0.1858  0.1333 -0.1188
 8246W        W27100  15.115  16.831   1.356  0.1462  0.0520  0.0278
 8247W        W27101   1.044   0.916  14.861 -0.4695 -0.3836  0.0653
 8248W        W27102  16.368  13.890  16.095  0.3726 -0.0168 -0.0933
 8249W        W27103   8.104  17.210   4.720  0.0080  0.1537  0.0887
 8250W        W27104  14.355  14.493   1.698 -0.1984 -0.0182  0.1895
 8251W        W27105   6.168   7.875  15.810 -0.1148  0.0690  0.0585
 8252W        W27106  13.667   3.256  11.458 -0.0439  0.1465  0.3759
 8253W        W27107   2.228   3.304   0.832 -0.0911 -0.0894  0.1564
 8254W        W27108  17.648   5.922  14.447  0.1255  0.0669 -0.0490
 8255W        W27109  14.091   8.026  11.959 -0.1979 -0.0745  0.1803
 8256W        W27110  10.243   0.824  13.001 -0.3816 -0.2964 -0.2939
 8257W        W27111   0.515   3.750   0.830 -0.2351 -0.1575 -0.1093
 8258W        W27112  15.080   1.306   3.123  0.4402 -0.3826  0.4945
 8259W        W27113  12.019  14.923   2.283 -0.0371 -0.0546 -0.0213
 8260W        W27114   1.196  13.982  13.994 -0.0462  0.1846 -0.0545
 8261W        W27115  16.133   8.308  12.640 -0.1375 -0.0682 -0.0687
 8262W        W27116   5.844  10.854  15.383  0.0609 -0.1726 -0.3109
 8263W        W27117  12.171   4.176  12.017  0.3481 -0.1099 -0.2049
 8264W        W27118  12.924   1.119  12.633 -0.0286 -0.1099 -0.0826
 8265W        W27119   3.656  13.616   1.489 -0.0963  0.1707  0.2428
 8266W        W27120  14.743   5.064  15.685  0.2536 -0.0441  0.2889
 8267W        W27121   1.622  10.056  13.648 -0.1849 -0.0694 -0.1237
 8268W        W27122  17.905  10.005  13.089 -0.1545 -0.1913  0.1074
 8269W        W27123   2.905   1.697   0.267  0.1336  0.1312  0.1580
 8270W        W27124  17.421  15.991   3.747  0.0808 -0.1201 -0.4311
 8271W        W27125   9.350  13.963   3.633  0.0637  0.0451 -0.0004
 8272W        W27126  14.160  12.984   1.297 -0.0848  0.0518  0.0989
 8273W        W27127  13.920   7.665   2.282  0.3470  0.0863 -0.0949
 8274W        W27128   9.517  15.414   3.886 -0.2802 -0.0828 -0.1998
 8275W        W27129  12.423   7.430   3.059 -0.1518  0.4109  0.0200
 8276W        W27130   9.338   4.062  13.092  0.1357  0.1437 -0.2230
 8277W        W27131  17.166  14.966   5.013 -0.1825  0.2233  0.1280
 8278W        W27132  14.390  15.112   4.420 -0.0075  0.1684 -0.1839
 8279W        W27133  17.868  12.226   3.371  0.2743 -0.1471  0.0361
 8280W        W27134   8.447  17.856  11.842 -0.0993  0.0685 -0.0033
 8281W        W27135  13.827   0.666  12.405  0.4382 -0.0830 -0.0888
 8282W        W27136   0.716   2.777  13.240  0.0597 -0.0341 -0.1685
 8283W        W27137  17.604  10.659   4.066 -0.0005 -0.2265 -0.0949
 8284W        W27138   6.891  12.918  13.451  0.0474 -0.0420 -0.6228
 8285W        W27139   8.803  14.583   4.990  0.0078  0.2790 -0.1098
 8286W        W27140  15.185   5.212  14.364  0.1174  0.1710  0.0940
 8287W        W27141  12.146   8.751   2.664 -0.2910 -0.0988  0.1216
 8288W        W27142   9.569  16.067   0.427 -0.1520  0.0002 -0.2090
 8289W        W27143   2.948   1.269   2.626  0.1052 -0.0379  0.2226
 8290W        W27144  14.438   9.820  16.012  0.0177 -0.0077  0.1020
 8291W        W27145  16.735   3.364   1.119  0.1953 -0.0298  0.1202
 8292W        W27146   1.933  13.688  13.375 -0.0259  0.0234  0.0125
 8293W        W27147   1.055   1.891  12.846 -0.2069 -0.4750 -0.0218
 8294W        W27148  15.387  17.666   4.819  0.1890  0.0267 -0.0951
 8295W        W27149   7.161  12.852  11.704 -0.1837 -0.0183  0.1107
 8296W        W27150  16.107   4.534   1.577 -0.1930  0.1518  0.0644
 8297W        W27151   8.093   0.860   4.894  0.2203  0.3101  0.0535
 8298W        W27152  10.834  16.941  15.820 -0.1149  0.1734  0.2609
 8299W        W27153  12.191  15.884   4.604  0.1484  0.0946 -0.1532
 8300W        W27154  10.723   3.371  14.989  0.1352  0.2453 -0.0300
 8301W        W27155   9.403   5.634  16.117  0.2179  0.0544 -0.0509
 8302W        W27156   1.905  14.710  15.693 -0.0631 -0.0337 -0.0083
 8303W        W27157  15.281   4.367   0.438 -0.0790  0.1144 -0.1720
 8304W        W27158  13.275   1.833   0.745 -0.4017  0.1781  0.2657
 8305W        W27159   1.630   5.500   1.840 -0.0452  0.1589 -0.1516
 8306W        W27160   9.860  12.812   0.099 -0.1297  0.0663  0.2101
 8307W        W27161  12.376   6.920   1.212 -0.1361  0.0263  0.4112
 8308W        W27162   5.712  15.523   1.503 -0.0912  0.0537 -0.0479
 8309W        W27163   3.319   0.924  16.205 -0.0463  0.1200  0.1875
 8310W        W27164   5.297  10.060  11.586 -0.0364  0.0770 -0.1886
 8311W        W27165   7.581  10.251   0.075  0.0451 -0.0717 -0.2112
 8312W        W27166  14.192   9.427   3.499 -0.0097 -0.3121  0.0968
 8313W        W27167   6.283   4.804   0.994  0.0214 -0.0733  0.3119
 8314W        W27168  17.621  17.832   3.615 -0.2051 -0.0771  0.2714
 8315W        W27169  15.077  13.754  11.296  0.0048 -0.1457 -0.3803
 8316W        W27170   8.043   8.671  12.815 -0.3084 -0.1583 -0.1514
 8317W        W27171  15.797   5.370  13.724  0.0825 -0.2260 -0.0115
 8318W        W27172  11.857   2.029   0.390 -0.2036  0.0163  0.1433
 8319W        W27173   7.790   5.612   3.480 -0.0439 -0.0156  0.1896
 8320W        W27174  14.250  11.387   1.421  0.0461  0.0350 -0.2150
 8321W        W27175   7.992  17.631  13.787 -0.3400 -0.0149  0.1889
 8322W        W27176  17.947  11.509  12.906  0.2343  0.1282 -0.1332
 8323W        W27177  10.051  11.418  15.124  0.1039  0.0192 -0.3412
 8324W        W27178   3.302   8.163  13.611 -0.3010  0.1096  0.4042
 8325W        W27179   0.737  12.866   3.943 -0.0021  0.1828 -0.0360
 8326W        W27180   4.764  11.999  15.552 -0.2448 -0.0739 -0.5586
 8327W        W27181   2.083  12.487  12.605 -0.4514 -0.0396 -0.0194
 8328W        W27182   9.868  10.382  11.765 -0.0646  0.0452  0.2074
 8329W        W27183  14.490  16.774   4.143 -0.1550 -0.0590  0.0728
 8330W        W27184  13.877   1.324   4.626 -0.0232  0.1410  0.1396
 8331W        W27185  17.910  17.924  13.982  0.1462 -0.1106 -0.1819
 8332W        W27186  17.447  13.634   1.562 -0.0893  0.1395 -0.2275
 8333W        W27187   1.278  14.396   2.014 -0.3599 -0.1099  0.1301
 8334W        W27188   0.876  14.592   3.661 -0.0214 -0.2265  0.1570
 8335W        W27189   5.723  15.911   5.268  0.1187 -0.2405  0.0404
 8336W        W27190  15.855   6.953   2.470 -0.0988 -0.1077 -0.0269
 8337W        W27191   1.548   0.111   1.239  0.1799 -0.1317  0.0599
 8338W        W27192   4.912   6.227   2.397 -0.2645 -0.2812 -0.0210
 8339W        W27193  15.107   8.892   3.057 -0.2589 -0.0350  0.2122
 8340W        W27194   1.461  13.953   2.870 -0.1587  0.1119 -0.2174
 8341W        W27195  17.231   2.150  10.675 -0.0494  0.2299 -0.0794
 8342W        W27196  17.838   8.035  11.983 -0.0837 -0.4781 -0.1908
 8343W        W27197   2.424  14.425   4.629  0.0850  0.0125  0.3300
 8344W        W27198  15.875  11.291  14.818  0.0771  0.2013  0.0293
 8345W        W27199   0.832  11.054  12.336 -0.0593  0.0160  0.1951
 8346W        W27200  14.885  12.287  13.934 -0.0787  0.0677 -0.1527
 8347W        W27201   5.641   0.709   1.414 -0.0732  0.2498 -0.0366
 8348W        W27202   8.665   6.251   2.149 -0.0583 -0.0157 -0.0276
 8349W        W27203  12.821   5.860   1.943  0.0046 -0.1795  0.0721
 8350W        W27204  12.548   6.177  13.482  0.2711 -0.1059 -0.3222
 8351W        W27205   1.892  11.771  12.213 -0.1471  0.2930  0.0910
 8352W        W27206  16.689   4.476  10.432  0.2494 -0.0661 -0.0067
 8353W        W27207  13.460   9.305  15.355  0.5609 -0.3798 -0.0387
 8354W        W27208  17.719   7.234  14.610 -0.1197  0.0855  0.1199
 8355W        W27209  10.672  16.246   3.317 -0.0923  0.1348 -0.1117
 8356W        W27210   9.444   1.382   4.525 -0.0447  0.1462 -0.0216
 8357W        W27211   3.866  16.716  13.499  0.3528 -0.0423 -0.2444
 8358W        W27212  13.482  16.642   4.366 -0.1962  0.1316 -0.2662
 8359W        W27213   8.468   6.352  14.636 -0.0960  0.0029  0.1457
 8360W        W27214  10.026  16.061   1.583 -0.0538  0.2088  0.0750
 8361W        W27215   9.919  16.341  15.537 -0.2615 -0.0782  0.0549
 8362W        W27216  14.238   2.604   1.714 -0.1194  0.0531  0.0675
 8363W        W27217  16.453   5.388  15.337 -0.1185  0.1839 -0.0853
 8364W        W27218   7.875   1.122  13.882  0.1580  0.0577 -0.1624
 8365W        W27219  14.521  12.483  15.275 -0.2406 -0.2128  0.5469
 8366W        W27220   1.808   9.793   2.915 -0.5138 -0.1516  0.0582
 8367W        W27221  13.511  13.197  14.765 -0.0668 -0.0992 -0.4255
 8368W        W27222   0.926   3.660   4.641 -0.3621 -0.0112 -0.1161
 8369W        W27223   6.993  17.619  12.776  0.1516  0.0401 -0.0199
 8370W        W27224  12.753   5.016  13.540 -0.1163  0.1118  0.1033
 8371W        W27225  12.353  14.532   4.718 -0.2323 -0.0285  0.3830
 8372W        W27226  10.405  12.093  13.182  0.1324 -0.1120  0.0457
 8373W        W27227   0.448  14.012   2.778 -0.1876 -0.1716 -0.0655
 8374W        W27228  16.577   0.577   3.232  0.0056  0.0077  0.1969
 8375W        W27229  10.152   7.970  15.594 -0.3338  0.1691 -0.3059
 8376W        W27230   0.455   1.779   2.001  0.0239  0.0950 -0.0997
 8377W        W27231   8.030   0.400  12.082  0.2566  0.1053 -0.2465
 8378W        W27232  14.716  15.221  12.824 -0.0814  0.2357 -0.2837
 8379W        W27233   3.330   3.877   1.710  0.2050  0.0091 -0.3048
 8380W        W27234  11.746   9.502  15.572  0.0611  0.0893 -0.0819
 8381W        W27235  11.626  13.836  14.503 -0.2858 -0.0897 -0.1677
 8382W        W27236   2.837   3.894   0.486  0.2215 -0.0700 -0.1219
 8383W        W27237   6.534   3.188   3.950 -0.0983  0.1147 -0.0021
 8384W        W27238   1.892   2.418   4.427  0.0399 -0.2096  0.0603
 8385W        W27239   5.314   1.206  15.332  0.2553 -0.1844 -0.0662
 8386W        W27240   9.314   4.274  15.467 -0.0105 -0.0536 -0.1705
 8387W        W27241   8.368  16.944   0.277 -0.1106 -0.0652  0.3591
 8388W        W27242  11.244   5.087  12.282  0.1117 -0.2441  0.2399
 8389W        W27243   5.261   7.620   2.629 -0.0657  0.0779 -0.1812
 8390W        W27244  11.513  17.481  12.410 -0.0690 -0.2858  0.1354
 8391W        W27245  13.129   4.192  11.984  0.1119 -0.0700  0.2308
 8392W        W27246   1.150   8.642   2.108 -0.2177  0.2226 -0.2213
 8393W        W27247   4.178   3.576   3.127 -0.1628 -0.1158  0.1530
 8394W        W27248  13.348   6.750   0.984 -0.3064 -0.1406  0.0246
 8395W        W27249   8.086  10.112  10.626 -0.2696 -0.2430 -0.1535
 8396W        W27250   1.148  10.057   0.721 -0.1575  0.1314  0.0055
 8397W        W27251   1.168   3.973  14.981 -0.0165  0.0335  0.2119
 8398W        W27252  17.658  14.829  13.295  0.3510 -0.0236  0.1291
 8399W        W27253   8.259  10.054  11.619 -0.3424  0.2231 -0.0519
 8400W        W27254   0.295  14.914  14.996 -0.1324  0.2211  0.1654
 8401W        W27255   9.637   0.088   3.985 -0.1426 -0.1582  0.2918
 8402W        W27256  11.776  15.461  10.781  0.1568  0.0159 -0.2421
 8403W        W27257  13.172  16.044  13.262 -0.5073  0.2997 -0.0162
 8404W        W27258   8.330   2.493  14.260  0.0604  0.0879  0.2122
 8405W        W27259   2.106  10.525  15.670  0.0347 -0.0199  0.0962
 8406W        W27260  17.699  13.541  11.361  0.1104 -0.1807  0.3807
 8407W        W27261   0.160  14.254   4.271 -0.0107 -0.1237  0.1149
 8408W        W27262   2.408  11.918  12.317 -0.0570  0.0597 -0.1678
 8409W        W27263   9.189  13.159  13.699  0.0544  0.0876  0.2115
 8410W        W27264   7.419  11.222   1.985 -0.1497  0.4023  0.0511
 8411W        W27265  13.284   3.609  11.723 -0.2896  0.0627  0.1394
 8412W        W27266  15.341  17.796  16.063 -0.0220  0.1250 -0.0225
 8413W        W27267  16.369  10.261   2.447  0.1415 -0.0966  0.1473
 8414W        W27268  12.783  13.961  14.183 -0.0936 -0.1828  0.0615
 8415W        W27269  14.454   8.154   1.031 -0.3273 -0.1457 -0.0088
 8416W        W27270  17.103  12.482   4.738 -0.3297  0.0505  0.0569
 8417W        W27271   3.546  12.405   1.160  0.1218  0.1147  0.0726
 8418W        W27272   0.605   6.380  11.689  0.2766 -0.1050  0.1748
 8419W        W27273   3.240   7.542   4.513  0.0559  0.1493  0.4368
 8420W        W27274   4.098   1.468   2.559  0.2911  0.3763 -0.1804
 8421W        W27275   9.960  14.061   5.217  0.1991  0.1055  0.1533
 8422W        W27276   7.454   2.189  11.361  0.1272 -0.1677  0.1648
 8423W        W27277   1.912   1.147   3.572 -0.4577 -0.1068 -0.2205
 8424W        W27278  12.678   0.424  15.643  0.2328 -0.1895 -0.1377
 8425W        W27279  10.923   4.562   4.830  0.0274  0.0789 -0.0253
 8426W        W27280   6.454  14.169  14.376  0.0955 -0.1270 -0.0349
 8427W        W27281   9.897  11.938  14.221 -0.1422 -0.0245 -0.0826
 8428W        W27282  12.260  10.347   0.666  0.0298  0.1253 -0.2497
 8429W        W27283   3.712  11.307  13.075  0.0715  0.0253  0.4140
 8430W        W27284  12.083   9.647  12.841 -0.1593 -0.0565  0.0577
 8431W        W27285  13.898   8.155   3.390  0.0963  0.1041 -0.1952
 8432W        W27286  17.037   1.186  14.074 -0.0796 -0.0704  0.0238
 8433W        W27287   2.354  10.763  11.391 -0.1093 -0.1036  0.0664
 8434W        W27288   3.234  15.266   4.073 -0.1829  0.0159 -0.0974
 8435W        W27289   5.421  16.505   2.405 -0.1272 -0.0476  0.2971
 8436W        W27290   5.085  12.371  15.470 -0.0893 -0.1402 -0.2911
 8437W        W27291   2.140  13.824  15.493 -0.3292  0.1623  0.1487
 8438W        W27292  16.416   6.781  11.629 -0.0017 -0.1744 -0.5182
 8439W        W27293  15.263  13.843   5.879  0.0662  0.1355  0.0477
 8440W        W27294   0.297  12.317   5.249  0.0936  0.0094 -0.0589
 8441W        W27295   7.846   3.278   4.661 -0.1388  0.0024  0.0926
 8442W        W27296   7.915  17.634  13.226 -0.1992  0.2140 -0.1968
 8443W        W27297   2.989   1.709  12.700 -0.2404  0.3369 -0.1284
 8444W        W27298   3.790   6.726  12.514 -0.0783  0.2634 -0.1505
 8445W        W27299   1.545   7.265   1.126  0.2003  0.2675 -0.0338
 8446W        W27300   8.975  13.863  16.140 -0.2345 -0.1347 -0.2388
 8447W        W27301  17.639  15.233  14.621  0.0721 -0.4088  0.0872
 8448W        W27302  12.752  15.452  11.039 -0.0483 -0.0600 -0.3602
 8449W        W27303  12.356   8.780  10.765  0.0840 -0.1069 -0.1186
 8450W        W27304  11.455   9.192  12.086  0.0305  0.2211 -0.1922
 8451W        W27305   0.139   3.001  11.763 -0.0229  0.0705  0.1988
 8452W        W27306  11.869   8.830   4.109  0.0186 -0.0903  0.1178
 8453W        W27307   8.723   8.288  14.009 -0.0800 -0.2380  0.0676
 8454W        W27308  15.964   0.564   2.346 -0.1318 -0.0734 -0.0072
 8455W        W27309  15.885  10.552   3.600 -0.4976  0.0328 -0.1543
 8456W        W27310   1.022   8.323  11.470 -0.0748 -0.1267 -0.0273
 8457W        W27311   7.128  14.618   0.387  0.1420  0.0289 -0.0240
 8458W        W27312   8.248   6.981  13.483 -0.5207  0.1197  0.3697
 8459W        W27313  17.233   4.315   1.816 -0.1286 -0.0992  0.1007
 8460W        W27314   3.928   9.398  11.833 -0.0690  0.2205  0.1688
 8461W        W27315   9.799   4.070  15.895 -0.0463 -0.1208  0.0333
 8462W        W27316   8.076  16.764  16.173 -0.1712  0.3394 -0.1195
 8463W        W27317   3.549   3.572   4.088 -0.4245  0.0785  0.2219
 8464W        W27318  13.928  16.692  14.830  0.1757 -0.1376 -0.2082
 8465W        W27319  16.109   2.033  12.841  0.3478  0.1432 -0.3221
 8466W        W27320  17.524   7.469  15.968 -0.0458 -0.0838  0.1608
 8467W        W27321   6.573  16.789   1.078  0.2534 -0.0818 -0.1619
 8468W        W27322   9.806  10.643   2.244 -0.1607  0.1069  0.0264
 8469W        W27323   3.899  14.463  14.790 -0.2179  0.0194 -0.0758
 8470W        W27324  16.160   8.300  14.704 -0.0250  0.1331  0.2625
 8471W        W27325   3.534   0.216  13.196  0.1008  0.1562 -0.0284
 8472W        W27326   8.887  14.808  13.012 -0.2067  0.1140 -0.2251
 8473W        W27327   5.601   9.619  11.367 -0.1554  0.0903 -0.0452
 8474W        W27328   7.989   5.449  16.142 -0.1110  0.0127  0.0072
 8475W        W27329  10.844  14.192  12.859  0.1342 -0.0800 -0.0304
 8476W        W27330   9.642   5.406   1.419  0.3406  0.0324 -0.0094
 8477W        W27331   3.003   0.360  13.891  0.2116 -0.1981 -0.1784
 8478W        W27332  17.228   4.016   3.286  0.2187  0.2275 -0.2689
 8479W        W27333   2.192  11.801  11.582  0.1007  0.1002  0.1212
 8480W        W27334  15.866   8.740   4.419  0.0827 -0.4338 -0.1185
 8481W        W27335  15.355  12.703  13.198 -0.3274  0.2220 -0.3910
 8482W        W27336  12.249  16.674   3.505 -0.3170 -0.1213  0.0873
 8483W        W27337   5.904  10.308   1.684  0.1105  0.1874  0.1278
 8484W        W27338   7.877   3.361   5.692  0.1172  0.3524 -0.0349
 8485W        W27339  13.092   3.927   0.774 -0.0826  0.0065  0.1602
 8486W        W27340  12.491   0.002   0.077  0.1099  0.2140 -0.0747
 8487W        W27341  17.367  17.409   2.361 -0.0191  0.5701  0.2155
 8488W        W27342  12.142   2.202   4.627 -0.2815 -0.0337 -0.0448
 8489W        W27343  11.344  12.600  12.151  0.1691  0.0886 -0.0598
 8490W        W27344  15.558   4.079   3.091  0.1279  0.4571 -0.0860
 8491W        W27345   0.327   2.492  12.803 -0.1292  0.0488 -0.1368
 8492W        W27346   8.426  11.353   4.299 -0.2087 -0.1111  0.0243
 8493W        W27347   8.780  12.439   5.065 -0.1298 -0.0319  0.0827
 8494W        W27348   6.505   1.557   1.707 -0.2328 -0.0901  0.1137
 8495W        W27349  12.087   8.825   3.216 -0.0251  0.0750 -0.0303
 8496W        W27350   1.399   5.647  13.073 -0.2415  0.0743  0.1483
 8497W        W27351  16.227  13.579   2.010 -0.0932 -0.5112  0.0053
 8498W        W27352   5.570  13.764   0.878  0.0773 -0.1112 -0.1211
 8499W        W27353  13.037  16.962   0.495 -0.0251  0.2434  0.0539
 8500W        W27354  11.728  13.864   3.772  0.0570  0.0712  0.2787
 8501W        W27355  13.119   0.764   4.774 -0.0457  0.1045 -0.1758
 8502W        W27356   2.467  12.164  15.817 -0.0602 -0.3542 -0.2333
 8503W        W27357  16.053  14.018  15.193  0.0593 -0.0459  0.1016
 8504W        W27358   4.958   1.965   0.126 -0.0636  0.0046  0.1049
 8505W        W27359  11.582   6.840  11.625 -0.2905 -0.1461  0.3828
 8506W        W27360   7.140   7.945  14.349  0.0400 -0.2578  0.1248
 8507W        W27361   5.298   2.150   2.524 -0.0891 -0.0902 -0.0732
 8508W        W27362  12.058  10.621  12.777  0.0798  0.0605 -0.1754
 8509W        W27363   5.121   0.890  12.213 -0.1173  0.0789 -0.0469
 8510W        W27364   9.821   1.428  11.182 -0.0059 -0.0198  0.2076
 8511W        W27365   6.407   9.161   3.602 -0.4312 -0.1603  0.1648
 8512W        W27366  15.048   8.671  13.715  0.2196 -0.0767  0.3613
 8513W        W27367   7.890  11.708   0.054  0.0121 -0.2126  0.2016
 8514W        W27368   9.191   7.205   4.960 -0.1620  0.1335  0.0187
 8515W        W27369  10.976   9.826  11.759  0.2236 -0.3420 -0.0100
 8516W        W27370  14.301  17.992   0.598 -0.0302 -0.0926  0.3039
 8517W        W27371  11.030  16.781  12.029  0.0412  0.4455  0.1296
 8518W        W27372  15.806  15.436   4.119  0.3571 -0.2684  0.0923
 8519W        W27373  15.049   3.947  11.542 -0.0280 -0.0907 -0.0149
 8520W        W27374   8.611   4.399  14.244 -0.1024  0.2184 -0.0742
 8521W        W27375  15.510   3.300  15.917 -0.2112  0.0811  0.1172
 8522W        W27376  17.570  11.728  14.047 -0.1286 -0.2135  0.1179
 8523W        W27377   3.449  14.623   1.276 -0.0632  0.0646  0.2386
 8524W        W27378  11.738   1.905   4.344  0.0152 -0.2245 -0.0468
 8525W        W27379   7.863  13.500  15.012  0.1549  0.1486 -0.0723
 8526W        W27380  13.663  16.120  12.383 -0.0249 -0.1445 -0.1255
 8527W        W27381   1.996   6.512  12.143 -0.2243 -0.0014  0.2039
 8528W        W27382  12.680   5.258   0.173 -0.2084 -0.1962 -0.2420
 8529W        W27383  15.379  17.620   3.146 -0.2146  0.1691 -0.1407
 8530W        W27384   7.261   7.877  15.763  0.0258 -0.3234 -0.0201
 8531W        W27385  14.354  11.068   4.570 -0.3921  0.3469 -0.1218
 8532W        W27386   3.641   5.647  13.997 -0.2603  0.1107 -0.3043
 8533W        W27387  14.250   8.163  15.864  0.1279  0.0604  0.0498
 8534W        W27388   7.699  17.399  15.896 -0.1568 -0.0483 -0.0203
 8535W        W27389   1.746   6.898   4.207  0.0957  0.0966  0.0324
 8536W        W27390   6.636   6.968  11.520  0.0447 -0.0835  0.1241
 8537W        W27391  14.447  17.098   2.107 -0.1398 -0.1277 -0.0200
 8538W        W27392   0.245  14.319  14.961 -0.0794 -0.0341 -0.0543
 8539W        W27393   1.208  14.907  15.022 -0.1146 -0.2978  0.0371
 8540W        W27394  16.215  12.360   3.271  0.3832 -0.1306 -0.1005
 8541W        W27395  10.596   9.489  15.493  0.1379  0.0356 -0.0839
 8542W        W27396   9.546   6.232   3.219 -0.0305  0.2215  0.0158
 8543W        W27397   0.087   7.971   2.136 -0.1938 -0.0586  0.1342
 8544W        W27398   9.623   4.119   0.677 -0.0250 -0.2116  0.2964
 8545W        W27399   4.191  13.019   1.933 -0.1912 -0.1077 -0.2233
 8546W        W27400  13.086   6.260  15.655  0.3156  0.1875 -0.3535
 8547W        W27401   3.906   0.212   3.601  0.0224 -0.1313  0.3600
 8548W        W27402  10.383  14.736   1.038 -0.1521  0.2853  0.2972
 8549W        W27403   1.588  11.387  12.667  0.0042  0.2098 -0.4065
 8550W        W27404  10.872   6.087   1.070 -0.0935  0.1765  0.1433
 8551W        W27405   0.316   9.736   2.587  0.0891  0.1449 -0.2378
 8552W        W27406   0.188  17.075   2.147  0.2258  0.0847  0.0959
 8553W        W27407   4.065  16.012   0.726 -0.0500  0.0582  0.0154
 8554W        W27408   1.631   1.657  14.335 -0.1772  0.1658 -0.1271
 8555W        W27409   7.167   1.015   0.027  0.0260  0.2278  0.0328
 8556W        W27410   9.135  16.229   2.205 -0.1397  0.1030  0.2632
 8557W        W27411   5.110  14.705  14.890  0.0343 -0.2722 -0.1251
 8558W        W27412  14.592  17.076   3.647 -0.0493  0.2709 -0.3026
 8559W        W27413   5.164   4.694  13.916 -0.3169  0.0260 -0.1258
 8560W        W27414   7.048   6.787  16.142 -0.1001  0.0673  0.0713
 8561W        W27415   7.102  10.174   3.985  0.0312  0.0552  0.0501
 8562W        W27416   4.841  13.399   0.618 -0.1628  0.0727 -0.0565
 8563W        W27417   0.897   2.114  14.170  0.0843  0.0774 -0.3888
 8564W        W27418  15.831   3.501  13.981 -0.2126  0.2538 -0.1278
 8565W        W27419  10.911   9.392  14.997 -0.1517 -0.0752  0.1564
 8566W        W27420   8.909  10.547  12.832 -0.0675  0.1625 -0.2574
 8567W        W27421   1.407   0.380  15.222  0.0186  0.0528 -0.0323
 8568W        W27422  11.834   5.547  16.112  0.0459  0.0339  0.0127
 8569W        W27423  11.758   0.112   1.874 -0.0345 -0.2047 -0.0216
 8570W        W27424  10.877   1.796  11.771 -0.1060 -0.0571  0.0917
 8571W        W27425   1.194  16.371   2.899 -0.0152  0.1427 -0.1548
 8572W        W27426  14.882  10.704  16.027  0.0062 -0.0259 -0.1083
 8573W        W27427  12.668   4.966   4.654 -0.2045 -0.1088 -0.0362
 8574W        W27428   7.228  10.444   2.449 -0.1878 -0.1984  0.0863
 8575W        W27429  17.874   6.326  14.322  0.0990 -0.0224  0.0282
 8576W        W27430  11.453  17.071  13.811 -0.1993  0.0020 -0.1360
 8577W        W27431  16.187   0.769   0.434 -0.0173 -0.0161  0.1812
 8578W        W27432   2.922   9.410   2.542 -0.0307 -0.0874 -0.2567
 8579W        W27433  17.509  12.696   4.883 -0.0422  0.0521  0.1303
 8580W        W27434   6.415  13.606  14.180 -0.1985 -0.1851 -0.0209
 8581W        W27435   9.963  15.295  12.327 -0.0865 -0.0184 -0.2045
 8582W        W27436  13.359   3.284  14.735 -0.1169  0.3033  0.1460
 8583W        W27437  11.577  17.591   4.382 -0.0236 -0.0774  0.2892
 8584W        W27438   9.206  14.266  14.090 -0.0106  0.1807  0.0360
 8585W        W27439   2.743   1.462   1.125 -0.3730 -0.0899 -0.2234
 8586W        W27440   2.205   4.199   3.432  0.1466  0.0658 -0.1722
 8587W        W27441  11.741   9.395  12.417 -0.2075 -0.2508  0.2094
 8588W        W27442   3.094   6.920   2.736  0.0472 -0.0224 -0.2771
 8589W        W27443  17.257   9.048  13.851 -0.0295  0.3271 -0.0018
 8590W        W27444  17.514   2.536   1.179 -0.3700 -0.1861 -0.1155
 8591W        W27445  15.235  17.620   0.360  0.3068  0.0780 -0.0692
 8592W        W27446   5.059  13.270   5.067 -0.0336  0.1505 -0.1876
 8593W        W27447  11.574   9.259   1.997 -0.0644  0.0182  0.0760
 8594W        W27448   5.884  17.663   0.356 -0.0026 -0.0909  0.0071
 8595W        W27449  14.612  11.694   0.903 -0.1062 -0.0305 -0.3701
 8596W        W27450  10.736  13.235  15.436  0.1689 -0.0873  0.3198
 8597W        W27451   2.557   8.682   0.752  0.1874  0.2464  0.0321
 8598W        W27452   6.551  12.299  15.684  0.1241 -0.0717  0.0455
 8599W        W27453  18.017  17.491  13.683 -0.0442 -0.1572  0.1509
 8600W        W27454   6.469  10.382   3.999 -0.1199  0.0192  0.1234
 8601W        W27455   0.098   7.525   0.274 -0.0446 -0.2107 -0.2474
 8602W        W27456  14.084   6.467   1.512  0.0548  0.1075 -0.1267
 8603W        W27457   0.061   9.807  12.356 -0.1907  0.2080  0.1502
 8604W        W27458   0.512   6.574  15.903 -0.1010  0.2622 -0.0683
 8605W        W27459   7.024   2.439   0.896 -0.0556  0.2645  0.2112
 8606W        W27460  17.721  12.796  13.881  0.1191  0.0534 -0.0759
 8607W        W27461  15.301  17.136  12.833  0.2289  0.2200 -0.0394
 8608W        W27462  16.233  12.813  13.431 -0.0351  0.1288 -0.1347
 8609W        W27463   1.551  14.131   0.724 -0.3057 -0.1613  0.2580
 8610W        W27464   9.901  15.958   2.376 -0.0574 -0.0724 -0.1320
 8611W        W27465  16.374   7.099   2.378  0.2019 -0.0197 -0.0097
 8612W        W27466  10.673   9.455  12.693 -0.0197 -0.4972  0.0122
 8613W        W27467  17.083   3.216   3.567  0.0684 -0.1054 -0.0984
 8614W        W27468   7.176   8.878  13.807 -0.1045 -0.2664  0.1787
 8615W        W27469   4.042  15.886   1.266 -0.0522 -0.1272 -0.1749
 8616W        W27470   0.772   9.251  12.495  0.1953 -0.1324 -0.1916
 8617W        W27471   9.873  12.364   1.277 -0.1388 -0.0232  0.0010
 8618W        W27472  15.945   0.276   0.440 -0.1405  0.1578  0.2584
 8619W        W27473  16.386  13.108   2.114 -0.2403 -0.2320 -0.1727
 8620W        W27474  10.735  10.831   2.468 -0.1497 -0.0516  0.0783
 8621W        W27475   8.005  16.996   1.739 -0.2646  0.0657 -0.0340
 8622W        W27476   3.169   6.105  15.543  0.1803 -0.1154 -0.0583
 8623W        W27477   0.799   9.462   2.679 -0.0889  0.4391 -0.5157
 8624W        W27478  15.665   9.449   1.349 -0.2593  0.0090 -0.0452
 8625W        W27479  15.588   5.718   0.583  0.0107  0.1630  0.0617
 8626W        W27480   6.858   0.200   0.582 -0.0850  0.2154 -0.0538
 8627W        W27481  12.581   0.864  14.295  0.0635  0.1585 -0.1251
 8628W        W27482   3.703   4.047   1.310 -0.3093 -0.2182  0.0096
 8629W        W27483   1.920  17.675  13.174  0.2251 -0.1239  0.2117
 8630W        W27484  10.032   7.768  14.961  0.0665  0.4503  0.0292
 8631W        W27485   8.691  14.476  12.143 -0.0578 -0.2252  0.2117
 8632W        W27486   8.641   1.294  13.141  0.1281  0.2048  0.0711
 8633W        W27487  17.279  17.826  13.082 -0.1628  0.3193  0.2669
 8634W        W27488   0.849  12.683   4.457 -0.2178 -0.0939 -0.1475
 8635W        W27489  12.938  17.530   4.019 -0.0213  0.2287  0.0378
 8636W        W27490  14.250  16.671   2.049 -0.1855 -0.1014  0.0017
 8637W        W27491   7.993  14.702   0.702  0.2155  0.1191 -0.0487
 8638W        W27492  17.682  11.819   3.644  0.0098  0.0949 -0.0328
 8639W        W27493   4.269   9.287   4.344  0.1487 -0.1579 -0.2566
 8640W        W27494   7.686   1.171  13.261  0.2718  0.1581 -0.2008
 8641W        W27495   8.077  18.004  14.317  0.0381  0.1137  0.3741
 8642W        W27496  14.337   4.527   2.837 -0.0109  0.1001  0.0671
 8643W        W27497   6.400   4.165  12.044  0.1477  0.1267 -0.1792
 8644W        W27498  13.310   4.866   0.790  0.2407 -0.0425 -0.1976
 8645W        W27499  15.804  16.160   0.957 -0.1354  0.0341  0.0950
 8646W        W27500  11.679  17.108  16.174  0.0622 -0.1260 -0.0903
 8647W        W27501   1.683   0.158   2.607 -0.6901  0.0480 -0.1357
 8648W        W27502  16.494  16.787   2.618 -0.1934 -0.2501  0.2139
 8649W        W27503   5.384   9.135  13.467 -0.1009  0.0132 -0.3653
 8650W        W27504  16.582   9.853  12.151 -0.1260  0.1334  0.1671
 8651W        W27505  11.053  17.160  13.483  0.1775 -0.1828 -0.2609
 8652W        W27506  17.354   4.426  13.702 -0.0426 -0.0528  0.0493
 8653W        W27507  12.015  12.832   2.286  0.0164  0.2721 -0.1559
 8654W        W27508   1.668  17.789  13.826  0.0819 -0.0098 -0.0997
 8655W        W27509  14.790   9.710  12.936 -0.1260  0.0944  0.1219
 8656W        W27510  13.308  10.876   2.737  0.1935  0.4524 -0.0223
 8657W        W27511  11.231   2.883   0.853 -0.0931 -0.0514 -0.0311
 8658W        W27512  13.213   5.640   2.106 -0.2044 -0.1839  0.0364
 8659W        W27513  11.731  17.758   1.517 -0.2037 -0.2256 -0.0003
 8660W        W27514  13.910   1.065  13.616  0.3155 -0.2838  0.1094
 8661W        W27515   3.212  17.069   2.964  0.2462 -0.4518  0.0177
 8662W        W27516   8.130   3.026  12.190  0.2746 -0.1710 -0.0827
 8663W        W27517  11.802  10.800   3.526 -0.1754 -0.1158  0.1539
 8664W        W27518  11.159  14.808   4.851  0.1381 -0.2302 -0.1776
 8665W        W27519   0.041  12.104   4.773  0.1201  0.1045  0.2663
 8666W        W27520  14.039  13.717   1.711 -0.1591 -0.1259 -0.0681
 8667W        W27521   4.793  16.325   4.043 -0.0235  0.0087 -0.0315
 8668W        W27522  15.908   7.598   3.753 -0.1786 -0.2454 -0.2862
 8669W        W27523  10.302   9.677   3.403  0.0351 -0.0164 -0.0349
 8670W        W27524  13.613  10.682   0.358  0.0493  0.0494  0.1043
 8671W        W27525  14.709   6.410  14.796 -0.0768  0.0613  0.0393
 8672W        W27526  10.854  14.482   1.928 -0.1112  0.2024  0.1419
 8673W        W27527  16.823  16.874  15.101 -0.2139 -0.3806 -0.0826
 8674W        W27528   6.193   0.128   1.021 -0.0788  0.0732  0.4097
 8675W        W27529  12.202  11.798  12.100 -0.0460  0.2568 -0.2226
 8676W        W27530  15.116  11.621  15.398 -0.0934 -0.1089  0.0508
 8677W        W27531   6.753   0.039  13.562  0.0435  0.1980 -0.0921
 8678W        W27532   0.541   9.744  12.367 -0.1305 -0.0372 -0.0952
 8679W        W27533  11.873   0.729  15.894  0.1822 -0.0136 -0.1177
 8680W        W27534   3.606   1.450   0.093 -0.0337  0.1128 -0.0327
 8681W        W27535   3.268   0.933  15.669  0.0674  0.0790 -0.0620
 8682W        W27536  16.111  13.034  11.986  0.1612 -0.1227  0.1753
 8683W        W27537  15.852   9.279   0.170 -0.1189 -0.1721 -0.2159
 8684W        W27538   4.529   6.531   1.635 -0.0670 -0.0923  0.3547
 8685W        W27539  10.162  11.396  11.479  0.0169  0.0016  0.1709
 8686W        W27540   5.291  14.382  14.059 -0.1138 -0.2012 -0.0085
 8687W        W27541   7.580   5.745  13.504 -0.4278 -0.0407  0.0329
 8688W        W27542  13.509   9.181   3.108 -0.3393  0.0820 -0.1098
 8689W        W27543  12.484  15.583  13.520 -0.2774  0.2108 -0.2796
 8690W        W27544   2.389   3.236   2.497 -0.2580  0.1099  0.1870
 8691W        W27545   4.008   1.407  12.634  0.0002  0.1209  0.0861
 8692W        W27546  13.607   2.204   1.153 -0.1936 -0.2397 -0.1007
 8693W        W27547  12.385  16.333   3.096  0.1746  0.2254 -0.4229
 8694W        W27548  15.971   1.739  13.275 -0.0342 -0.0083 -0.1070
 8695W        W27549  17.409  12.585  14.339  0.2644  0.1713 -0.4782
 8696W        W27550   6.007   6.401   1.331  0.0296 -0.1848  0.2067
 8697W        W27551  15.927  11.187   0.811 -0.1633  0.1516 -0.0422
 8698W        W27552   2.454  17.012   5.162 -0.1887  0.4507 -0.1558
 8699W        W27553  17.856   2.879   1.529  0.1697 -0.0148  0.0534
 8700W        W27554  16.268   3.769  14.004 -0.0202 -0.2460  0.0934
 8701W        W27555  13.295   6.848  13.660  0.1959 -0.2425  0.0116
 8702W        W27556   8.454  11.454  12.695  0.0146 -0.0350  0.0396
 8703W        W27557   5.048  10.159   3.578 -0.2079 -0.1380 -0.0663
 8704W        W27558  11.185  11.858  14.266 -0.3021 -0.1282  0.3699
 8705W        W27559  12.908   7.440  15.715 -0.0322  0.0073 -0.0710
 8706W        W27560  12.299  15.979  12.145  0.0012 -0.1694 -0.3985
 8707W        W27561   2.221   9.386   4.551 -0.0286  0.0310  0.0518
 8708W        W27562   6.777   0.601  12.314 -0.3300 -0.0963  0.0706
 8709W        W27563  10.465  15.109  15.414 -0.2544  0.0515 -0.0588
 8710W        W27564  11.612  17.963  12.466  0.2352 -0.0218 -0.0508
 8711W        W27565  10.826   3.547   2.032  0.2302  0.1469 -0.2313
 8712W        W27566  16.146  10.451   0.181  0.0938  0.5827  0.3791
 8713W        W27567  12.217   7.357  12.898 -0.0678 -0.0077  0.0127
 8714W        W27568  13.832  12.725  14.739 -0.0704  0.4509 -0.1179
 8715W        W27569  16.728   0.258   1.992 -0.0025 -0.1108 -0.1027
 8716W        W27570   6.433   3.335  12.984 -0.3280 -0.0186 -0.2151
 8717W        W27571  12.929  11.990  14.562 -0.0007  0.1718  0.2225
 8718W        W27572  14.844  12.876  15.116  0.2022  0.0483 -0.0386
 8719W        W27573   2.330   5.557   3.182  0.0119 -0.0229 -0.1627
 8720W        W27574   8.044  11.508  13.095 -0.3892 -0.1577  0.0631
 8721W        W27575  16.944   2.367   1.834  0.0448  0.1117  0.0553
 8722W        W27576   4.005   4.932   1.896 -0.0415  0.0818  0.0304
 8723W        W27577  13.811  17.865  12.012  0.0710  0.2491  0.1557
 8724W        W27578   4.227  12.654  15.825  0.0378 -0.1369 -0.0139
 8725W        W27579   8.444   0.667  12.390 -0.0449 -0.0530  0.0897
 8726W        W27580  16.752  16.968   4.213  0.0977  0.0145 -0.2496
 8727W        W27581   8.288   6.527  14.208  0.1109 -0.0644  0.1613
 8728W        W27582  15.379  14.395   2.603 -0.2065  0.1368  0.0890
 8729W        W27583  16.748   7.226  14.772  0.0843  0.1441 -0.2856
 8730W        W27584  11.102   1.615  15.386 -0.1467  0.2476 -0.0654
 8731W        W27585  10.843  13.987  13.339 -0.1996  0.2523 -0.2641
 8732W        W27586   7.253   2.331  12.609  0.2263 -0.2050  0.3896
 8733W        W27587  15.381   6.006   2.668 -0.1366 -0.1168  0.0043
 8734W        W27588   8.364  12.988  11.362  0.3617 -0.1686  0.1599
 8735W        W27589   6.458   6.775   4.854 -0.0815 -0.0588 -0.2092
 8736W        W27590  16.703   5.377   4.445  0.3105  0.1174  0.0417
 8737W        W27591   7.103   0.820   4.611  0.3833 -0.2335 -0.1042
 8738W        W27592   3.999   4.801  15.008  0.2225 -0.2341 -0.1225
 8739W        W27593   0.961   8.278  10.925 -0.2122  0.1756  0.0134
 8740W        W27594   4.048   3.632   1.347 -0.1264  0.1756 -0.1939
 8741W        W27595   0.493   7.727   2.045 -0.1353  0.0917 -0.1075
 8742W        W27596   4.472   7.478   1.523 -0.1657 -0.0852  0.2646
 8743W        W27597   1.949   6.827   3.458  0.0870  0.1729 -0.0114
 8744W        W27598  16.252  12.256  13.152 -0.1101  0.0491  0.2453
 8745W        W27599  17.338   7.815  12.429  0.0980  0.0738 -0.0571
 8746W        W27600  16.782   0.676  13.445 -0.1231  0.0289 -0.1759
 8747W        W27601   1.276  16.458  15.513 -0.0807 -0.0042  0.1007
 8748W        W27602  16.097   2.640  12.080 -0.1936 -0.1664 -0.1066
 8749W        W27603   4.587   8.485   0.182  0.0577 -0.4614 -0.0590
 8750W        W27604  10.362   3.544   4.751 -0.1299  0.1292  0.0148
 8751W        W27605   3.466  16.620  14.856  0.1657 -0.3610 -0.0087
 8752W        W27606  14.965   4.369   1.207  0.0633  0.1685 -0.0741
 8753W        W27607   4.649  12.533  12.006  0.1800 -0.1138  0.0773
 8754W        W27608  16.202   5.897   3.128 -0.0845 -0.2197 -0.1179
 8755W        W27609  10.266   4.660   2.775  0.0695  0.1271  0.0807
 8756W        W27610   7.799   1.082   5.386 -0.0804  0.0558 -0.3817
 8757W        W27611   8.637   7.621   2.031  0.0034  0.1511  0.2547
 8758W        W27612   3.114  11.208  13.993 -0.0583  0.1157 -0.3842
 8759W        W27613   9.000  11.130  13.660 -0.3455  0.0430  0.0307
 8760W        W27614  17.067   0.417   0.177  0.0898 -0.1683  0.0144
 8761W        W27615   2.600   2.791   2.320 -0.0207  0.2706  0.0169
 8762W        W27616   6.261  17.484  14.112 -0.0229  0.0715 -0.0807
 8763W        W27617   7.787   7.483   4.104 -0.0617 -0.1021  0.0583
 8764W        W27618  15.801   5.847   2.860  0.0270  0.0409  0.1169
 8765W        W27619   5.101   4.310   3.702 -0.2184  0.1189  0.0297
 8766W        W27620   2.868   7.663  11.893  0.0277  0.0862  0.2252
 8767W        W27621  11.890  15.100  12.877  0.1720 -0.3158  0.0045
 8768W        W27622   6.788   1.408  15.447 -0.2716  0.1805  0.3106
 8769W        W27623   0.072   3.413  10.939  0.2008 -0.1281  0.0717
 8770W        W27624   8.796  12.656   0.185  0.1723  0.1409  0.3388
 8771W        W27625  17.870  14.588  12.926 -0.1091 -0.1233 -0.2981
 8772W        W27626   9.534  13.743   4.626 -0.2642 -0.0460 -0.1346
 8773W        W27627  11.585   7.555   2.406  0.0734 -0.0494  0.0996
 8774W        W27628  12.107  14.297   3.371 -0.2676  0.1050  0.2011
 8775W        W27629   1.010   6.077   1.841  0.1185 -0.4152 -0.1200
 8776W        W27630   2.536   2.787   2.936  0.1674 -0.3187 -0.0929
 8777W        W27631   4.308   5.249  10.922 -0.3264 -0.0067 -0.1447
 8778W        W27632   1.457  16.783  15.138 -0.2217  0.2678  0.3293
 8779W        W27633   6.681  17.803   5.400  0.1843  0.0989  0.4049
 8780W        W27634  17.422  12.064   5.360  0.0154  0.0273 -0.2398
 8781W        W27635   1.756   4.808  14.070  0.3832  0.1674 -0.1575
 8782W        W27636  14.450   7.127  12.407 -0.0848  0.0466  0.3365
 8783W        W27637  11.539   1.375  15.478 -0.0581  0.0507  0.1787
 8784W        W27638  10.910  12.192   4.456  0.2558 -0.1170 -0.3178
 8785W        W27639   2.027   5.181  12.870 -0.2035  0.0224 -0.0766
 8786W        W27640   2.255   2.646   3.474 -0.0171  0.0924 -0.0874
 8787W        W27641  16.377  11.384   2.564 -0.0713 -0.2697  0.4928
 8788W        W27642   5.617  11.235   2.650  0.3823  0.2186 -0.0487
 8789W        W27643  17.901  17.123   1.659  0.2415  0.0676  0.0902
 8790W        W27644   7.388   3.268   2.664 -0.1096 -0.1050  0.4899
 8791W        W27645   3.944   1.168  14.549  0.0461 -0.0107 -0.0527
 8792W        W27646   6.918  14.920   3.974 -0.2073 -0.0934 -0.1068
 8793W        W27647   1.155   2.897   3.012 -0.0131 -0.0584 -0.0578
 8794W        W27648   0.326   8.845   3.152  0.1404  0.3405 -0.0101
 8795W        W27649  13.201   8.817  15.027  0.3364 -0.0602 -0.2005
 8796W        W27650   9.828  17.613   4.594 -0.2118 -0.0180  0.0656
 8797W        W27651  10.755  13.372   4.400 -0.1235 -0.0729 -0.0963
 8798W        W27652  15.980   6.992  11.449 -0.2767  0.2773  0.0330
 8799W        W27653  17.760   4.997  15.298 -0.5414  0.1188 -0.3177
 8800W        W27654   6.453  12.054  16.156 -0.2188 -0.2629  0.0106
 8801W        W27655  10.711   0.884   0.592  0.1159 -0.1425  0.0255
 8802W        W27656  11.052   3.494  12.887  0.2062 -0.1188  0.1271
 8803W        W27657  11.946   3.308   2.903  0.1245  0.0294  0.0023
 8804W        W27658   5.443  13.762   1.371 -0.0513  0.0505  0.1087
 8805W        W27659  10.342   6.780  11.546  0.2360  0.0650  0.2889
 8806W        W27660  16.326  13.341   1.144 -0.1318  0.3855  0.0021
 8807W        W27661   5.855  10.403   2.301 -0.2808 -0.0318  0.4019
 8808W        W27662  12.486   6.536   0.517 -0.2011 -0.2247 -0.3610
 8809W        W27663  12.005   1.592  13.290 -0.0681 -0.0064 -0.0495
 8810W        W27664   1.206   5.202  13.504  0.0984  0.2155 -0.0992
 8811W        W27665   7.404   6.584   4.065 -0.0144  0.0692  0.2256
 8812W        W27666   4.401   2.941   1.267 -0.1688  0.0428 -0.0841
 8813W        W27667   2.547  11.147   0.145 -0.0383  0.0574 -0.5936
 8814W        W27668  17.902  15.556   0.072 -0.3041 -0.0117 -0.0072
 8815W        W27669  16.316   1.431  12.947 -0.0391 -0.1835 -0.0997
 8816W        W27670  12.329   0.695  11.960 -0.1183 -0.0447  0.1289
 8817W        W27671   5.581   2.528   2.605 -0.4467 -0.0448  0.0792
 8818W        W27672   0.312   0.494  15.687  0.2470 -0.3205  0.1917
 8819W        W27673   5.780   6.886  12.552  0.0840 -0.1825  0.0845
 8820W        W27674   9.457   5.063   4.058  0.1502  0.0557 -0.0603
 8821W        W27675  11.641  13.449   0.355  0.0939 -0.0726 -0.1723
 8822W        W27676  10.476   7.353  15.824  0.1438 -0.2868  0.0070
 8823W        W27677  10.462   0.500   2.344  0.1522 -0.0014 -0.0577
 8824W        W27678   4.843   9.506  14.217 -0.0812  0.0205 -0.1171
 8825W        W27679   1.040  14.858  12.264  0.3418  0.0957  0.2690
 8826W        W27680  14.095  10.566  11.312  0.2542 -0.2186  0.1128
 8827W        W27681  12.698  11.478  12.039 -0.0939 -0.2839  0.2254
 8828W        W27682   8.162  12.853  12.708 -0.0016  0.2215 -0.0228
 8829W        W27683   3.408   7.469  14.475  0.1049  0.2262 -0.1308
 8830W        W27684  13.987   1.367  15.004  0.1683  0.1213 -0.1112
 8831W        W27685   5.870   4.962  13.431 -0.1671  0.1299  0.1240
 8832W        W27686   5.396  14.667  14.433  0.1097 -0.1520  0.1652
 8833W        W27687  15.300   3.357  12.334 -0.0735  0.2749  0.0043
 8834W        W27688   9.216  17.790   1.886  0.0977 -0.1335  0.0953
 8835W        W27689  13.557  10.836  15.625 -0.2375 -0.1370  0.0911
 8836W        W27690   9.168  15.354  15.218  0.1420  0.1826  0.0733
 8837W        W27691   1.682  12.442  14.101  0.1311  0.2996  0.2395
 8838W        W27692  12.227  16.698   2.256 -0.0464  0.0334  0.1894
 8839W        W27693  16.481  16.241   0.034  0.2691  0.1960 -0.2245
 8840W        W27694  11.597  17.154   0.663 -0.1611  0.0886  0.1095
 8841W        W27695   0.774   0.343   2.678 -0.1539  0.0357  0.3025
 8842W        W27696  16.618   2.809   1.162  0.0345  0.1279 -0.3860
 8843W        W27697   6.616   6.830  15.105  0.3335  0.2550 -0.0166
 8844W        W27698  13.116   7.704   0.104 -0.0150 -0.1531  0.1064
 8845W        W27699   1.285  11.003   4.576  0.3615  0.1024 -0.1430
 8846W        W27700   7.854   1.592   1.256 -0.1567 -0.1684 -0.0731
 8847W        W27701  15.284   7.149   1.016 -0.2373  0.0914  0.3071
 8848W        W27702  14.152   3.737   3.233  0.0766  0.1141 -0.0092
 8849W        W27703   1.877   5.933  13.248 -0.0079  0.1076  0.3080
 8850W        W27704  13.222   6.711   3.443  0.0229 -0.0213 -0.1543
 8851W        W27705  12.599   3.276  11.263 -0.0346  0.0625  0.1051
 8852W        W27706   3.923  11.819  11.398 -0.0167  0.0969 -0.0357
 8853W        W27707  17.881  14.740  14.707  0.0676  0.2198 -0.2315
 8854W        W27708   8.726   8.253  15.950 -0.0239 -0.0827  0.1279
 8855W        W27709   5.828   1.995   3.311 -0.0770 -0.4615 -0.1936
 8856W        W27710  17.842   3.456  15.544  0.1114 -0.3473  0.0344
 8857W        W27711   7.427   3.616  11.793 -0.1542 -0.0697 -0.1724
 8858W        W27712   4.337   4.382   4.087  0.0444 -0.2008 -0.5023
 8859W        W27713   7.730   9.010   0.740 -0.1648  0.0574  0.3238
 8860W        W27714   5.042   4.808   3.055  0.0229 -0.0253 -0.0068
 8861W        W27715  16.413   0.742  12.677  0.0967 -0.0152  0.3880
 8862W        W27716  14.263  13.319   4.816 -0.0277  0.0763  0.1284
 8863W        W27717   9.248   6.225   3.709  0.0701  0.2268 -0.1932
 8864W        W27718  10.707  17.526   3.815 -0.0022  0.2665  0.1999
 8865W        W27719   2.789  17.642  11.925  0.0764  0.0606 -0.0090
 8866W        W27720   2.734  16.310   3.251  0.1116  0.0534 -0.2022
 8867W        W27721   4.265   1.076   3.948 -0.0871  0.1462  0.0226
 8868W        W27722   2.682   0.823   0.690 -0.3032 -0.1747  0.2357
 8869W        W27723  14.680  12.248   3.739  0.1021  0.0487  0.3548
 8870W        W27724   9.475  11.298   2.864 -0.0868 -0.2354 -0.3122
 8871W        W27725   2.297   6.839   2.102 -0.2638 -0.1213  0.1351
 8872W        W27726   1.548   8.064  14.689 -0.1241  0.2057 -0.0080
 8873W        W27727  13.712   8.630   1.695  0.0335 -0.0600 -0.0037
 8874W        W27728  11.692   8.421   5.716  0.0159 -0.1668  0.1345
 8875W        W27729  17.585  13.825   3.071 -0.2580 -0.0910  0.2301
 8876W        W27730  10.094   3.729   3.469  0.0010 -0.3368  0.1348
 8877W        W27731  14.259  10.312   2.657  0.1200  0.0212 -0.0183
 8878W        W27732   9.421   2.057   2.365 -0.2229 -0.1199  0.3130
 8879W        W27733  17.463  13.605  14.016  0.1700  0.0638 -0.1037
 8880W        W27734   8.483  15.458  15.254  0.1469  0.2302 -0.1539
 8881W        W27735  14.471  13.092  11.765  0.1890 -0.0067 -0.0477
 8882W        W27736   7.195   8.241   4.350  0.0578  0.1356 -0.0404
 8883W        W27737  13.600   8.678   2.187 -0.0201  0.0140  0.3316
 8884W        W27738   5.745  14.155   1.095  0.4377  0.0218 -0.4311
 8885W        W27739  16.041   4.080   3.067 -0.0819 -0.0780 -0.1245
 8886W        W27740  11.070   0.427  14.172 -0.0508 -0.0809  0.3646
 8887W        W27741  17.658   3.810   2.517 -0.2528  0.2683 -0.0933
 8888W        W27742   3.360  11.468  15.301 -0.0208 -0.0019 -0.2901
 8889W        W27743  13.380  12.374  12.770  0.2891  0.1717  0.0001
 8890W        W27744   8.585   5.774   4.148  0.2588 -0.0937 -0.1356
 8891W        W27745  13.653  14.569   1.535 -0.0904 -0.0268 -0.0264
 8892W        W27746  15.979   8.773   0.916 -0.2792  0.2021 -0.1246
 8893W        W27747  11.430   1.878   1.333  0.0036 -0.1227  0.1732
 8894W        W27748   0.020   9.623  11.040 -0.0761  0.3096 -0.1367
 8895W        W27749  11.892   5.703  12.299  0.2693 -0.3156  0.0103
 8896W        W27750  13.804   3.487  12.955 -0.0242  0.1729 -0.0360
 8897W        W27751   3.439   2.980  13.791  0.1788  0.3800  0.2551
 8898W        W27752  15.704   7.253  11.850 -0.3837  0.4168 -0.1655
 8899W        W27753   0.663   4.536   2.456  0.0428 -0.0620  0.1292
 8900W        W27754  17.967  11.394   2.148 -0.2814  0.0103 -0.1261
 8901W        W27755   8.714  15.144   5.012  0.1989 -0.2253 -0.1219
 8902W        W27756   3.218   2.099   0.529  0.1058 -0.1159 -0.2588
 8903W        W27757  15.278   1.303   4.517  0.2265  0.2283  0.1208
 8904W        W27758   9.329   1.907  11.783 -0.2048 -0.0100  0.1259
 8905W        W27759  12.654  14.193  11.891 -0.1658 -0.3380 -0.1972
 8906W        W27760   4.792   4.973   3.552 -0.1790 -0.0445  0.1648
 8907W        W27761   9.050  11.096   3.727  0.1056 -0.0947  0.0286
 8908W        W27762   4.463   4.667   0.328 -0.2098  0.0533  0.2955
 8909W        W27763   0.291   1.465   1.012  0.1015 -0.0054  0.1477
 8910W        W27764   3.209   9.183   0.855 -0.0138 -0.0051  0.0865
 8911W        W27765   4.761  17.382   2.997  0.1740  0.0047 -0.0356
 8912W        W27766   1.638  14.018   2.093 -0.0671  0.2519 -0.0897
 8913W        W27767   2.774   2.662   5.016 -0.3096 -0.0295  0.0094
 8914W        W27768   8.021   0.773  15.337  0.0171  0.1375  0.0093
 8915W        W27769   2.258   8.767  14.885  0.1362 -0.5782  0.0018
 8916W        W27770   4.241   8.439  15.485  0.0465 -0.0160  0.0618
 8917W        W27771  12.498  15.512  14.048 -0.2879  0.0475 -0.1257
 8918W        W27772   9.830  10.343   0.036 -0.0656  0.3078  0.1602
 8919W        W27773   8.534  17.180  14.914 -0.1517 -0.2063  0.0956
 8920W        W27774   1.232   0.075   3.046  0.2113  0.1740 -0.0318
 8921W        W27775   8.926   6.853   0.245 -0.0263 -0.0910 -0.1665
 8922W        W27776  15.633  11.713   3.297  0.2014 -0.0244  0.3072
 8923W        W27777   0.692  15.628   2.322  0.3547 -0.2015 -0.1908
 8924W        W27778  15.768  17.441  14.599 -0.0183  0.1288  0.0315
 8925W        W27779  14.234   1.200   3.167  0.0688  0.1362 -0.0587
 8926W        W27780  10.614   1.077   1.052 -0.0277 -0.0226 -0.1452
 8927W        W27781  10.941   5.487   1.935  0.0893  0.3240  0.0007
 8928W        W27782  12.501  17.576   0.363 -0.0169 -0.0449 -0.0082
 8929W        W27783  12.667   7.756  13.756 -0.0183  0.0401  0.4470
 8930W        W27784   7.676   2.463   1.520 -0.1810 -0.2288 -0.0026
 8931W        W27785   1.484   7.974  15.955 -0.1723  0.0386  0.1704
 8932W        W27786   2.597  16.241   2.281 -0.0568  0.1265  0.0501
 8933W        W27787  11.967   6.754   1.476  0.0975  0.2434 -0.2922
 8934W        W27788  15.804   0.686   1.811 -0.1090 -0.0993 -0.2702
 8935W        W27789  14.387   2.036   0.448  0.0979  0.1053  0.1523
 8936W        W27790   9.326  12.891  12.214  0.0102  0.5058  0.2637
 8937W        W27791  16.119   5.583  12.478 -0.0596  0.1939 -0.0400
 8938W        W27792   2.746   0.342   4.097  0.0014  0.0045 -0.1774
 8939W        W27793  14.539  17.605   3.807  0.1778 -0.1028 -0.1685
 8940W        W27794   4.761  11.474  15.658  0.1760 -0.3852  0.0368
 8941W        W27795  12.844  12.871   4.070 -0.1526  0.1264 -0.2051
 8942W        W27796   8.126  10.357  14.234 -0.1242 -0.3648  0.2458
 8943W        W27797   5.296   9.212  11.612 -0.1230  0.1278 -0.0184
 8944W        W27798   7.276  13.072   0.023 -0.1195  0.1680 -0.0907
 8945W        W27799  13.969  15.859   1.178 -0.1558  0.2275 -0.1926
 8946W        W27800  10.826  15.778  14.950 -0.3035 -0.1526  0.1788
 8947W        W27801  14.921   4.700   0.344 -0.0894  0.3704  0.2051
 8948W        W27802  12.770  12.538   2.844 -0.0246 -0.0305  0.0110
 8949W        W27803  11.114   3.654  15.876  0.3706  0.1109  0.0676
 8950W        W27804  17.723  13.766  16.223 -0.1836  0.1387  0.3376
 8951W        W27805   5.610  13.527  13.567  0.2416  0.2115  0.3409
 8952W        W27806  15.637   2.187  10.323 -0.0952  0.3565  0.1911
 8953W        W27807   0.994   3.001  11.970  0.0323 -0.0904  0.0274
 8954W        W27808  16.707  11.456  15.017  0.0608  0.2388  0.0627
 8955W        W27809   1.494  15.855   5.088 -0.1428 -0.1971  0.0204
 8956W        W27810   9.969   2.014   3.615 -0.1270  0.3652  0.0484
 8957W        W27811   0.294  13.365  15.066  0.0023 -0.2291  0.1786
 8958W        W27812   6.954  15.528  14.408 -0.0940 -0.1463 -0.0177
 8959W        W27813  15.675   6.658  14.796 -0.0888  0.0189 -0.0669
 8960W        W27814  15.416  14.237   4.454  0.1051  0.1964  0.0130
 8961W        W27815   6.333  17.252   3.098 -0.0721  0.1644  0.0427
 8962W        W27816  16.843   4.829  15.060  0.1925 -0.1895 -0.2563
 8963W        W27817  12.227   9.857  15.593  0.1237  0.0048  0.0257
 8964W        W27818  16.425  17.338   4.128  0.0293  0.0317  0.2126
 8965W        W27819   4.023   2.296  14.143  0.1110  0.0154 -0.0793
 8966W        W27820   3.086  15.871  11.782 -0.2248 -0.0553  0.3664
 8967W        W27821   0.709   1.736  13.864 -0.0424  0.0705 -0.3986
 8968W        W27822   8.654   2.684  11.923 -0.2395 -0.0453 -0.0954
 8969W        W27823  17.186   2.489  16.015 -0.1438  0.1918 -0.2212
 8970W        W27824   6.199   8.842  11.753 -0.1745 -0.1070  0.0121
 8971W        W27825  13.303  10.719  11.819 -0.0241  0.1283  0.1195
 8972W        W27826   3.980   2.924   3.666 -0.1390  0.0405  0.2894
 8973W        W27827  10.406   2.822   4.991  0.1764 -0.3817 -0.0647
 8974W        W27828  15.785   8.123   1.068  0.0787  0.3168 -0.0037
 8975W        W27829   5.421  13.083  13.692 -0.1939  0.1352 -0.0718
 8976W        W27830   7.108   2.287   3.729  0.2158 -0.1728 -0.0557
 8977W        W27831  14.821  16.903   0.567  0.0253  0.1731 -0.1506
 8978W        W27832  12.764   1.282  13.186  0.1269  0.0500  0.3550
 8979W        W27833  11.473  10.354   3.624  0.0423  0.1135 -0.0556
 8980W        W27834   4.802  14.596   3.334 -0.1264  0.0353  0.1289
 8981W        W27835  10.253   7.563  13.073  0.2483  0.0198  0.0183
 8982W        W27836   7.269  15.750   4.205 -0.0848  0.0985 -0.0106
 8983W        W27837   8.317  15.328  14.842  0.0407 -0.0576  0.2282
 8984W        W27838   0.089   5.337  15.173  0.1818  0.0090 -0.1371
 8985W        W27839   0.147   8.613  16.042  0.1900  0.0187  0.4661
 8986W        W27840   7.010  10.890   2.585 -0.1833 -0.0736 -0.1413
 8987W        W27841  10.757  12.117  14.665 -0.0367  0.1137  0.0487
 8988W        W27842   9.060   0.947  11.985  0.0647  0.3312 -0.0859
 8989W        W27843  16.075   2.436   2.954  0.1311 -0.3031  0.1289
 8990W        W27844   6.926  13.841  14.913  0.2225 -0.1621  0.0179
 8991W        W27845   8.022   9.046  15.105  0.1308  0.0277  0.0561
 8992W        W27846  13.933   6.264   4.763  0.0091  0.0498 -0.1136
 8993W        W27847   2.111  12.890   2.044  0.2064 -0.0608  0.0135
 8994W        W27848   9.941   4.377  14.770  0.2567 -0.1596 -0.1003
 8995W        W27849   6.605  10.429  15.790 -0.3359 -0.1419  0.1157
 8996W        W27850  15.948   1.411  12.081  0.0515  0.2754 -0.0257
 8997W        W27851   5.619  11.061  15.904  0.3200  0.0320 -0.0449
 8998W        W27852  15.140   6.916   4.503  0.0450 -0.2159  0.0498
 8999W        W27853   4.390  12.199  12.428 -0.4202  0.2989  0.1693
 9000W        W27854   9.376  13.000  15.581  0.1191 -0.3809  0.0406
 9001W        W27855   9.093   4.658  11.153  0.0273 -0.1734 -0.0887
 9002W        W27856  16.740  11.589   2.862  0.0001  0.0901 -0.0048
 9003W        W27857   4.533  17.366  13.069  0.0801 -0.0224 -0.0486
 9004W        W27858  16.672  11.217  15.933  0.0842 -0.2191 -0.2280
 9005W        W27859  12.121  15.416   2.257  0.1374 -0.3647  0.0752
 9006W        W27860   1.020   9.347  13.305  0.3557 -0.1250  0.3049
 9007W        W27861  13.061   8.331  14.449  0.0406  0.3541  0.1841
 9008W        W27862  15.530   5.153  12.787 -0.0129  0.1136 -0.0047
 9009W        W27863   1.371   2.495  15.437 -0.0788  0.1303 -0.3819
 9010W        W27864   3.350  16.526  12.774 -0.2594  0.0552 -0.0577
 9011W        W27865   8.507  14.136  14.564 -0.2485 -0.1877  0.0871
 9012W        W27866   1.755   0.541   0.997  0.0817  0.5161  0.0415
 9013W        W27867   6.775   2.055  12.619  0.0226  0.0533 -0.2455
 9014W        W27868  15.813  10.133  16.073  0.0761 -0.0282  0.2030
 9015W        W27869  16.831   7.009  11.312 -0.1219 -0.3332 -0.3175
 9016W        W27870   3.650   3.537  14.497 -0.0013  0.2896 -0.1128
 9017W        W27871  11.158   3.258  12.443  0.2492  0.1177 -0.0196
 9018W        W27872  14.832   8.928   0.708 -0.1564  0.0398 -0.1935
 9019W        W27873   3.857   1.207   0.536  0.0929 -0.0236  0.3460
 9020W        W27874  13.547   5.171  14.606 -0.2483  0.0977  0.0968
 9021W        W27875  10.577   2.420  11.496 -0.0116  0.2084 -0.1021
 9022W        W27876  10.969   2.734   0.428 -0.1891 -0.0938  0.1856
 9023W        W27877  15.355   5.768  12.940  0.1274 -0.1512 -0.1510
 9024W        W27878   3.691  17.982  15.705 -0.1278 -0.3026 -0.0670
 9025W        W27879   9.723  16.863   2.004  0.1834  0.0074  0.0670
 9026W        W27880   0.642  13.337   5.474 -0.1904  0.1889 -0.1871
 9027W        W27881   7.796   7.572   1.662  0.1514 -0.1626  0.0831
 9028W        W27882   9.222  12.658  12.674  0.0624 -0.0405  0.0361
 9029W        W27883   8.385   7.581  12.439  0.1719  0.1807 -0.1247
 9030W        W27884   5.846   8.946   0.473  0.0350 -0.0357 -0.1102
 9031W        W27885   3.926   5.007   4.233 -0.0355  0.0598  0.0347
 9032W        W27886  15.389   9.796   1.051 -0.1680 -0.1590  0.1844
 9033W        W27887  17.787  14.814   1.858  0.0761 -0.4224  0.0976
 9034W        W27888   6.567   0.770   3.896  0.0809 -0.1178  0.3593
 9035W        W27889   7.753  14.724  15.088 -0.0432  0.0105 -0.1409
 9036W        W27890  15.427  15.526  12.387 -0.3621 -0.0960  0.1283
 9037W        W27891  11.194  15.083   0.907  0.0826 -0.1427  0.1425
 9038W        W27892   8.092   1.590   1.712 -0.0738 -0.0401  0.1723
 9039W        W27893   2.897   2.943   1.454  0.1312 -0.1470 -0.1300
 9040W        W27894   7.405   9.176   4.472 -0.2303 -0.1387 -0.3279
 9041W        W27895   8.592   1.585   2.120 -0.0681  0.0634  0.1307
 9042W        W27896   0.090   7.212  11.691 -0.0059  0.0109  0.0436
 9043W        W27897  12.800   4.713  15.254  0.2112  0.1479 -0.1024
 9044W        W27898   0.117   7.643  15.172 -0.1323 -0.1686  0.1929
 9045W        W27899   6.982   2.793   3.832 -0.0654 -0.1981  0.3747
 9046W        W27900   7.075  11.251   3.130 -0.1864 -0.1186 -0.0490
 9047W        W27901   8.635   8.042   3.892  0.1875  0.4169  0.2072
 9048W        W27902   4.052  15.664  15.492  0.3235 -0.0820  0.0229
 9049W        W27903   0.990   2.186   3.981 -0.0899  0.2750 -0.0989
 9050W        W27904  10.904  13.392  15.047 -0.3635 -0.0383  0.2093
 9051W        W27905   0.675   7.869   4.684 -0.0936  0.2416 -0.1986
 9052W        W27906   2.671   5.718   0.125  0.3214  0.1348 -0.2361
 9053W        W27907   6.536  12.720   4.557  0.0486  0.1878  0.0533
 9054W        W27908   4.429   7.001  14.724  0.0680 -0.1099 -0.2896
 9055W        W27909   5.768   2.924  15.905 -0.0647  0.0942 -0.1707
 9056W        W27910   1.995   0.893   0.246 -0.3496  0.1952  0.2697
 9057W        W27911   5.694   2.355  14.485 -0.0412  0.1059 -0.2169
 9058W        W27912   0.243   3.103  15.887  0.0772 -0.1786 -0.6692
 9059W        W27913  13.434  13.609  12.395 -0.2053 -0.2181 -0.1608
 9060W        W27914   1.642  13.230  15.921  0.1950 -0.0514  0.2299
 9061W        W27915  17.548   7.420  13.030  0.0815 -0.1381 -0.2275
 9062W        W27916   9.026   5.390  11.605 -0.1935  0.0899 -0.0652
 9063W        W27917   7.111   8.575   0.264  0.0441  0.0026 -0.0365
 9064W        W27918  18.019   3.159   1.882  0.2164 -0.0139  0.1895
 9065W        W27919   5.400   7.171   0.299 -0.0772 -0.2164  0.0649
 9066W        W27920   2.087   0.375   0.081 -0.1588  0.2169  0.2996
 9067W        W27921   2.705   5.045  11.648 -0.5034 -0.1239  0.1364
 9068W        W27922  12.824  14.927  14.670  0.0767 -0.0042  0.0528
 9069W        W27923  14.393  14.506   0.604 -0.0375  0.0117 -0.0894
 9070W        W27924   5.402   5.091  13.676  0.2375  0.3660 -0.0719
 9071W        W27925   3.202  10.539  15.221 -0.4020  0.0486 -0.1167
 9072W        W27926   0.829   5.501   1.076  0.3197 -0.0206  0.1905
 9073W        W27927  12.021  14.385   4.379 -0.2011 -0.0923 -0.1376
 9074W        W27928  12.018  13.239   0.532 -0.3956  0.2422 -0.0522
 9075W        W27929   7.548   2.379   3.102  0.3128 -0.0289 -0.3364
 9076W        W27930   3.742  11.196  10.196  0.1146  0.0439  0.2493
 9077W        W27931  12.224  11.354  11.850 -0.0359  0.0897 -0.0803
 9078W        W27932  13.077  14.648   3.070 -0.1607  0.0489  0.0988
 9079W        W27933  12.805  15.074   2.410 -0.1837 -0.0718 -0.0399
 9080W        W27934  17.716   8.771  11.235  0.1040  0.2867  0.2922
 9081W        W27935   4.602   6.321  15.960 -0.0566 -0.1275 -0.2082
 9082W        W27936  12.400  13.465  15.944  0.1457  0.0644 -0.2382
 9083W        W27937  12.992  10.251  14.348  0.0038  0.1551 -0.1123
 9084W        W27938   3.257   1.855  14.172 -0.2739  0.1394 -0.1190
 9085W        W27939  16.608   8.819   3.875  0.1040 -0.3470 -0.0417
 9086W        W27940   7.288  17.968  14.990  0.1471 -0.1005  0.1248
 9087W        W27941   9.726  10.415   3.669  0.1617 -0.0398 -0.3393
 9088W        W27942   8.231  14.638   3.931  0.0253 -0.1239 -0.0882
 9089W        W27943  11.073  15.652   5.831  0.2158 -0.1707 -0.1633
 9090W        W27944   1.609  12.376   2.952 -0.0025 -0.1335  0.0112
 9091W        W27945  12.497   4.449   1.272  0.1105 -0.1312  0.0172
 9092W        W27946  17.340  15.290   3.233  0.2186 -0.0630  0.0883
 9093W        W27947  15.474  15.854   3.958 -0.2356  0.2106  0.1956
 9094W        W27948   4.830  15.835   1.153 -0.1129 -0.0244  0.1180
 9095W        W27949   7.787  14.407   2.315 -0.1862 -0.0925  0.0280
 9096W        W27950  17.328  12.717   2.520  0.0506  0.3732  0.2238
 9097W        W27951   7.077  17.212   1.701  0.2556  0.2506 -0.1123
 9098W        W27952   0.835   3.978  13.162  0.1622  0.3336 -0.0564
 9099W        W27953   2.168   0.174   2.244 -0.1764 -0.1214  0.0144
 9100W        W27954  17.505   3.234   0.274  0.1551  0.0898  0.3083
 9101W        W27955   2.643  14.620  11.594 -0.1644  0.0580  0.1179
 9102W        W27956   5.708   1.839  13.589 -0.1402 -0.2797  0.0465
 9103W        W27957   2.843   7.108   0.515 -0.0011 -0.0024  0.0676
 9104W        W27958   5.116   5.507  13.673  0.2430 -0.0325 -0.1362
 9105W        W27959  10.218   0.990   0.724  0.0242 -0.0531  0.1862
 9106W        W27960   4.676  15.307  10.948 -0.0593 -0.2163  0.2089
 9107W        W27961   3.589   9.981  13.509  0.1196 -0.1134 -0.1456
 9108W        W27962   0.862   8.224   2.130 -0.2917  0.0781  0.1456
 9109W        W27963  16.789   6.981   5.586 -0.0041 -0.2653 -0.0729
 9110W        W27964  12.502  14.297   4.284  0.1784  0.1816 -0.1752
 9111W        W27965   4.936   6.433  12.879 -0.1405 -0.3780 -0.1552
 9112W        W27966   8.143   1.398   3.839  0.1244 -0.1964  0.0934
 9113W        W27967  16.494   9.605  13.857  0.0830  0.1517 -0.1278
 9114W        W27968  11.685   4.496  15.770  0.0189  0.0774  0.2802
 9115W        W27969   2.846   7.316   2.417 -0.1205  0.1086  0.1534
 9116W        W27970  14.862  13.612  14.015 -0.3123  0.1460  0.0622
 9117W        W27971   8.624   8.062   0.226  0.1153 -0.1506  0.2089
 9118W        W27972   6.449  10.157   1.235 -0.1268 -0.3811  0.3264
 9119W        W27973   3.971   4.795   2.567 -0.2621  0.2828  0.1099
 9120W        W27974   8.511   3.126   2.076 -0.0555  0.0729 -0.0141
 9121W        W27975   9.233  10.081   1.856 -0.1722 -0.1195  0.0036
 9122W        W27976   3.832   0.537  12.894  0.0238 -0.1989  0.0619
 9123W        W27977   2.324  16.724  15.740  0.1461 -0.1856 -0.1976
 9124W        W27978  13.864   4.535   1.479 -0.0223 -0.3508 -0.1669
 9125W        W27979   9.920  14.414  12.542 -0.2799 -0.0873  0.1278
 9126W        W27980   0.730   5.362  14.425 -0.0580 -0.1593  0.1845
 9127W        W27981   5.662  11.574  15.953  0.2476  0.0181 -0.2222
 9128W        W27982   3.405  11.566  13.330  0.1566  0.1865  0.1635
 9129W        W27983  12.632   6.032  12.605  0.1180  0.1145 -0.0106
 9130W        W27984  13.803   8.259   1.384  0.1757 -0.0002  0.0615
 9131W        W27985   5.421   4.696   3.900  0.3733  0.2004  0.1460
 9132W        W27986   1.577  16.148  15.308 -0.2169 -0.1650 -0.0048
 9133W        W27987  17.865  13.262  14.008 -0.2910 -0.0748 -0.1324
 9134W        W27988   3.047  17.869  13.946  0.1040  0.0855 -0.0806
 9135W        W27989   3.732  12.551   0.106  0.3645  0.0222  0.0759
 9136W        W27990  15.502  13.233   2.614 -0.2096  0.0228  0.1772
 9137W        W27991   3.345  12.804  13.731  0.1046  0.1994 -0.3222
 9138W        W27992  16.750   3.339   3.160  0.0781  0.0469 -0.2169
 9139W        W27993   3.556   0.331   2.697  0.1624 -0.0423  0.0058
 9140W        W27994   5.244  10.494   4.290 -0.1821  0.2099 -0.1682
 9141W        W27995  15.881   2.730  15.396 -0.0969 -0.0834 -0.2519
 9142W        W27996   4.805  10.234  13.344 -0.0309  0.0406 -0.0930
 9143W        W27997   5.214  17.758   1.394 -0.0411  0.0456  0.1523
 9144W        W27998   6.178   4.545  11.759 -0.0909 -0.0230 -0.1468
 9145W        W27999  15.247   9.261   1.258  0.0797  0.2092 -0.0751
 9146W        W28000   0.173  10.596  12.025 -0.2580  0.0467  0.2787
 9147W        W28001  17.069   6.733  14.646  0.0826  0.0871  0.0714
 9148W        W28002  12.457   9.221   1.382  0.0170 -0.0289 -0.1253
 9149W        W28003  13.790   4.229   4.145  0.0619 -0.0578  0.1941
 9150W        W28004   7.157   2.946   0.823  0.1974  0.1053 -0.0962
 9151W        W28005  16.600  10.025   4.161  0.0249  0.2375 -0.1399
 9152W        W28006   7.312   0.643   3.055  0.2056 -0.2535 -0.1290
 9153W        W28007  14.828  11.293   4.674 -0.0720  0.0023  0.0283
 9154W        W28008   9.257   1.288  15.705 -0.0352  0.0484  0.0371
 9155W        W28009   6.617   9.549   2.485 -0.1095  0.1694 -0.0810
 9156W        W28010   0.152   7.961  13.335  0.1391 -0.0690 -0.0497
 9157W        W28011  17.537  11.101   2.986 -0.0440 -0.1944  0.0812
 9158W        W28012   5.249   6.034   2.072 -0.4336 -0.1797  0.2904
 9159W        W28013  12.732  16.656   1.933  0.2863  0.0058  0.2194
 9160W        W28014  14.660   4.824  14.280 -0.2254  0.0821 -0.0028
 9161W        W28015   8.097  13.797  11.907  0.2089  0.0913 -0.1475
 9162W        W28016   8.632  12.885   5.376 -0.0707 -0.1985 -0.0199
 9163W        W28017   3.821  15.970  11.798 -0.0468 -0.0677 -0.1912
 9164W        W28018  10.650   5.070   3.063  0.2317 -0.0069 -0.1471
 9165W        W28019  13.048   6.240   1.174  0.1041  0.2737  0.1718
 9166W        W28020  16.291   9.072   4.381 -0.1300 -0.0317 -0.2014
 9167W        W28021   4.302   1.446  14.824  0.2341  0.2557 -0.2923
 9168W        W28022  14.644  10.244  15.591 -0.0796  0.0099  0.1548
 9169W        W28023   5.782  14.083   3.988 -0.3125 -0.1042  0.2380
 9170W        W28024  10.870  16.007   0.876  0.0428  0.1221  0.0572
 9171W        W28025   7.392  15.683  11.908 -0.2674 -0.1149 -0.0242
 9172W        W28026   2.774  18.033  11.041  0.1180 -0.2179 -0.2041
 9173W        W28027   5.177   7.247   4.889  0.0894  0.1575 -0.1111
 9174W        W28028  14.444   5.272   2.035 -0.0161  0.3892  0.1349
 9175W        W28029  14.668   7.327   1.886  0.2044 -0.0283 -0.2312
 9176W        W28030  15.801  17.646   2.402 -0.2794  0.1737  0.0421
 9177W        W28031   1.538  16.925   4.431 -0.1422  0.4668 -0.0084
 9178W        W28032   3.132  14.599  11.524  0.1439  0.1194  0.1924
 9179W        W28033   6.148   5.834  15.548 -0.1071  0.1497 -0.0276
 9180W        W28034   0.733  10.389  14.245  0.0357  0.2962  0.0150
 9181W        W28035  14.808   4.401   1.671 -0.0290 -0.0878 -0.0354
 9182W        W28036   9.294  14.952  13.638 -0.1586  0.1241  0.0803
 9183W        W28037   9.305   7.443   0.550 -0.2743 -0.4447  0.2060
 9184W        W28038   1.300   6.505  11.105 -0.1446  0.3985 -0.2163
 9185W        W28039   4.357   3.150   5.320 -0.1613  0.0489 -0.0875
 9186W        W28040   0.388   4.892   4.127  0.1154 -0.0916  0.0969
 9187W        W28041   3.956   7.688   1.456 -0.0492  0.0954  0.2407
 9188W        W28042  15.213   2.994  14.358  0.1581 -0.1267  0.2748
 9189W        W28043  17.878   6.112  13.222  0.0185  0.4061 -0.2259
 9190W        W28044  17.417  16.952   3.570 -0.2296  0.1630  0.1625
 9191W        W28045   8.399  15.982  13.916 -0.0120  0.1832 -0.0183
 9192W        W28046  10.862   6.396  13.774 -0.3573 -0.1066  0.1205
 9193W        W28047  13.159  14.518   2.427  0.0175 -0.2931 -0.1928
 9194W        W28048   8.166  11.661   2.582  0.0552 -0.1907  0.0772
 9195W        W28049  15.278  12.042  15.181 -0.0413  0.0326  0.1835
 9196W        W28050  13.860   3.116  14.591 -0.2250  0.2400  0.0065
 9197W        W28051   7.029  17.503   2.549  0.0442  0.1276  0.1974
 9198W        W28052   3.721   5.234  12.237 -0.1034 -0.1524 -0.3003
 9199W        W28053  10.690  14.936  11.211  0.4078  0.1832  0.1842
 9200W        W28054  12.052  13.880  15.999 -0.0146  0.0044  0.1427
 9201W        W28055   8.273   8.257   1.169 -0.0059  0.1262 -0.3979
 9202W        W28056   1.784   2.224   2.671 -0.3010  0.0059 -0.3093
 9203W        W28057  10.779   8.585   0.305 -0.1822  0.1556  0.3179
 9204W        W28058   2.998   3.423  15.127  0.0967  0.0028  0.0341
 9205W        W28059  15.638   8.980   1.306 -0.2734  0.2304 -0.0231
 9206W        W28060   2.081   8.307  13.888  0.1652  0.2381 -0.0510
 9207W        W28061  15.156   0.827  12.546 -0.0508  0.0364  0.1126
 9208W        W28062  12.272  12.620   1.916  0.0395  0.1212  0.1123
 9209W        W28063   3.233   0.761   4.050 -0.1167  0.1462  0.0146
 9210W        W28064   2.260   5.321   2.650 -0.2966  0.0338  0.2131
 9211W        W28065  10.463  14.071   2.568  0.0690 -0.0994 -0.2835
 9212W        W28066   2.455   3.697   2.274 -0.0163  0.1373 -0.0575
 9213W        W28067  13.702   0.794  11.132  0.0855 -0.2705  0.4386
 9214W        W28068  12.810   0.000  13.571 -0.0135  0.4039  0.0553
 9215W        W28069  13.758   7.324  15.845 -0.1277  0.0051 -0.1620
 9216W        W28070   2.191   8.361   0.541  0.3164  0.2283  0.0499
 9217W        W28071   5.038   7.099   1.983 -0.0876 -0.0404  0.0098
 9218W        W28072   4.390  10.385   2.948 -0.0159  0.2785 -0.0575
 9219W        W28073  11.217   0.686   4.727  0.1155  0.2878 -0.0627
 9220W        W28074   4.931   1.613   3.063  0.0477 -0.0545  0.0182
 9221W        W28075  15.992   0.125   5.761 -0.1396 -0.0312 -0.0258
 9222W        W28076  14.218  17.432   4.196  0.0555 -0.3228 -0.2778
 9223W        W28077   9.571  14.146  13.705  0.0386  0.0566 -0.4873
 9224W        W28078   2.199  16.133  14.173 -0.0631  0.0851 -0.2057
 9225W        W28079  12.029   4.126  15.189 -0.0499 -0.1415 -0.0812
 9226W        W28080  13.450   0.453  12.815 -0.1740 -0.0322  0.0391
 9227W        W28081  16.777  15.554  12.155  0.1707  0.0154  0.0306
 9228W        W28082  14.774   2.665  15.624 -0.2146 -0.1264  0.1925
 9229W        W28083   3.137   4.694  15.278 -0.0006 -0.3573  0.1373
 9230W        W28084   8.943  16.644   0.977 -0.1006 -0.2315 -0.1472
 9231W        W28085  12.895   8.191  11.946 -0.0348 -0.1292  0.0262
 9232W        W28086  11.477  14.985   2.410 -0.0349  0.1757 -0.0463
 9233W        W28087  16.522   2.652  14.741  0.2704 -0.0545  0.0726
 9234W        W28088  17.729  17.511  12.261 -0.2413 -0.4944  0.1246
 9235W        W28089   0.878  10.416   3.321 -0.0341  0.0242  0.0790
 9236W        W28090  10.413  15.318  13.215  0.5485 -0.1513  0.1191
 9237W        W28091   4.937  15.131  16.066  0.1039  0.0421 -0.0367
 9238W        W28092  10.351  11.277  13.738 -0.0108  0.0328 -0.1158
 9239W        W28093   6.097  16.908   0.114  0.1062  0.0471 -0.0359
 9240W        W28094   8.750   4.924  15.713  0.1184  0.1901  0.1823
 9241W        W28095   0.574   3.294  11.891  0.1878  0.0133  0.0699
 9242W        W28096   5.715   1.454   1.989 -0.2193  0.1904 -0.2432
 9243W        W28097  13.548  11.753  12.075  0.1161 -0.0326  0.0746
 9244W        W28098  16.656  15.226  15.806  0.3303  0.0153 -0.0244
 9245W        W28099   8.156  16.274  11.568 -0.4340  0.1602 -0.1746
 9246W        W28100  12.387   6.063   2.418 -0.3192 -0.1648 -0.2306
 9247W        W28101   8.118  11.568   1.434 -0.1642  0.5234  0.3380
 9248W        W28102   7.430   6.976   0.233  0.1457  0.0952  0.0688
 9249W        W28103  13.220  10.355  12.168 -0.1387 -0.1570 -0.1631
 9250W        W28104   3.941   6.707   0.507  0.1541  0.3159  0.1568
 9251W        W28105   3.920   8.463   0.852  0.3653  0.0320  0.0951
 9252W        W28106   9.343   8.670   5.024  0.3240  0.3188  0.0653
 9253W        W28107  17.980  16.662   0.073 -0.1847  0.3640 -0.2247
 9254W        W28108   0.608   2.010   1.048 -0.0159 -0.0094  0.0342
 9255W        W28109   1.328   4.522   4.383 -0.2132  0.0075  0.1867
 9256W        W28110  17.193  10.366   1.853 -0.0133  0.0612  0.0851
 9257W        W28111   7.347  17.108  11.416  0.1103 -0.0657  0.1314
 9258W        W28112  10.041  10.163   1.431  0.0605  0.0403 -0.0854
 9259W        W28113  13.445  13.628   0.427  0.0589 -0.3869 -0.1101
 9260W        W28114   0.087  17.924   5.895 -0.0812 -0.2430  0.0078
 9261W        W28115   4.868   9.444   1.001  0.0208  0.2935  0.0584
 9262W        W28116  12.245   9.237   0.826  0.0633 -0.1572  0.0378
 9263W        W28117  14.504   3.142  15.420 -0.0222 -0.0556 -0.0063
 9264W        W28118  17.338  14.097  15.969 -0.1648 -0.1054 -0.0295
 9265W        W28119  12.765  14.423  14.003 -0.1442  0.0854  0.1390
 9266W        W28120   3.208   6.638  10.460 -0.2045 -0.0941 -0.1653
 9267W        W28121   6.985   3.784   1.694 -0.0355  0.0016  0.0445
 9268W        W28122   4.223   6.807   0.923 -0.0111 -0.0938 -0.0958
 9269W        W28123   8.494   2.609   2.040  0.1051  0.0988  0.0886
 9270W        W28124   5.614  15.277   3.445 -0.0551  0.0332  0.0784
 9271W        W28125   1.535  12.339   3.662 -0.1781  0.0991 -0.0075
 9272W        W28126  17.727   4.138   1.100 -0.1927  0.1187  0.1676
 9273W        W28127  10.328   7.094   2.694  0.0601 -0.0234 -0.0701
 9274W        W28128   5.784  12.620   5.091 -0.0096 -0.2317  0.1398
 9275W        W28129   5.733  18.017   1.941 -0.0437  0.0087  0.0363
 9276W        W28130  17.869  11.507   3.110  0.0103 -0.0373  0.0002
 9277W        W28131   8.242  15.378  13.994  0.0015  0.1094 -0.2909
 9278W        W28132  12.516  15.367   4.417  0.0980 -0.0845  0.0002
 9279W        W28133  12.750   5.718   2.470  0.1309 -0.3515 -0.0539
 9280W        W28134  13.432   5.976  12.226  0.2173 -0.2001  0.0049
 9281W        W28135   1.674   4.874   4.197  0.0602  0.1088  0.0638
 9282W        W28136   0.962   4.372  12.795 -0.3571 -0.3599 -0.0169
 9283W        W28137  16.501   5.066  11.752  0.3503  0.1518 -0.2450
 9284W        W28138   8.996  17.600   4.537 -0.0535 -0.1566  0.1442
 9285W        W28139   1.983  17.219  15.590 -0.0162  0.1158  0.1071
 9286W        W28140  10.424   4.929   0.521  0.0606  0.0555 -0.0856
 9287W        W28141  14.220   5.974  15.307  0.1678  0.0558 -0.0670
 9288W        W28142  12.452  13.079   4.352 -0.0775 -0.2786  0.1006
 9289W        W28143   3.766  15.152  14.131 -0.1898  0.0127  0.3482
 9290W        W28144   8.247  12.683   4.930  0.2558  0.0979 -0.1067
 9291W        W28145  14.850   0.541   3.430  0.0139  0.0166 -0.0700
 9292W        W28146  16.656  13.999  10.768  0.1462 -0.0198  0.1384
 9293W        W28147   5.689   6.144  15.645 -0.1413  0.1223 -0.1478
 9294W        W28148   4.854   4.750   4.009 -0.1731 -0.2967 -0.2677
 9295W        W28149  13.951  11.251  14.360  0.0756 -0.0089  0.0229
 9296W        W28150  17.486   5.680   1.832 -0.1042  0.2563  0.0026
 9297W        W28151  14.971   5.770   4.678  0.0316  0.0160 -0.1842
 9298W        W28152   0.643   1.161   2.295 -0.2278 -0.0047 -0.0271
 9299W        W28153  16.189  17.291  15.819 -0.3149 -0.4137  0.2794
 9300W        W28154   5.842  15.868  12.743 -0.0462 -0.1555  0.1463
 9301W        W28155  13.961   4.851   2.569 -0.1460  0.3607  0.0237
 9302W        W28156   7.889   1.140   1.785 -0.1957 -0.1436  0.0180
 9303W        W28157  17.846  12.902  14.376 -0.1123 -0.2769  0.1014
 9304W        W28158   7.237  15.256   4.741 -0.1320 -0.4828  0.1322
 9305W        W28159  17.882   5.437  12.227 -0.0254 -0.2684  0.0981
 9306W        W28160  15.548   1.819   0.827  0.0967  0.3752 -0.0199
 9307W        W28161  13.938   2.128   3.775 -0.0317  0.0797  0.0148
 9308W        W28162   9.347  13.809   0.298 -0.0558 -0.2049  0.1116
 9309W        W28163   0.860  15.139   0.009 -0.0854 -0.0720  0.2318
 9310W        W28164   9.131  17.853   3.200 -0.2344 -0.4065  0.1833
 9311W        W28165   7.440   8.702  16.081 -0.2911  0.1329 -0.1542
 9312W        W28166   8.221  16.767  14.718 -0.0437 -0.2400  0.1535
 9313W        W28167  13.151   8.858  12.319  0.0722  0.1900 -0.5043
 9314W        W28168   5.153   2.970  15.482  0.0631  0.3287 -0.0529
 9315W        W28169  11.324   3.398  10.405 -0.0968  0.0779  0.2246
 9316W        W28170   0.772   6.316  14.144 -0.0340  0.2384  0.0501
 9317W        W28171   9.376   3.937   4.904  0.0969  0.0170 -0.2819
 9318W        W28172   0.578   8.128  11.757  0.1298 -0.1418  0.0789
 9319W        W28173  12.231  12.607   4.590 -0.2255  0.0397 -0.1598
 9320W        W28174   2.047   6.837  15.738 -0.0456 -0.1338  0.2921
 9321W        W28175  13.594  16.563  14.428  0.1782  0.3846 -0.5563
 9322W        W28176   5.772   9.983   0.797 -0.1628  0.2154  0.1957
 9323W        W28177  17.852   7.018  12.981  0.1912  0.0802 -0.0147
 9324W        W28178   5.890  13.068  13.490  0.0364  0.0198 -0.0751
 9325W        W28179   1.781   1.294   0.453  0.3414  0.0415  0.0034
 9326W        W28180  16.043   5.313  11.722 -0.0028 -0.0890 -0.1400
 9327W        W28181  11.629  15.379   2.134  0.0042  0.0197  0.3239
 9328W        W28182   4.607  17.760  12.661  0.0663 -0.2510 -0.1334
 9329W        W28183  17.711   1.358   1.124  0.0101  0.1383 -0.0106
 9330W        W28184  17.118   6.775   0.532 -0.0909  0.1150  0.1278
 9331W        W28185   6.257  15.709  12.325 -0.0154  0.2459  0.1912
 9332W        W28186   3.397   2.517  13.548 -0.1488  0.1218 -0.0678
 9333W        W28187  16.047  13.285  13.354 -0.1000 -0.2025  0.2011
 9334W        W28188  17.531  10.231   4.870 -0.1123  0.3656 -0.1264
 9335W        W28189   9.768   4.424   0.001  0.0357  0.0435  0.1168
 9336W        W28190   7.775   5.197   0.701  0.4432 -0.0565 -0.0698
 9337W        W28191  14.405  17.300   1.333 -0.1000 -0.1009 -0.1948
 9338W        W28192   6.235   7.657  13.529  0.1053  0.0610  0.1983
 9339W        W28193   9.549   9.086  13.366  0.1373  0.3624 -0.1335
 9340W        W28194   9.318  12.267   5.316  0.1456  0.2607 -0.3633
 9341W        W28195  11.038   7.545   3.246  0.0190 -0.0587  0.4450
 9342W        W28196  16.547  11.293  14.053  0.2174  0.0613 -0.2031
 9343W        W28197   7.426   5.734  14.886  0.0344  0.2537 -0.0268
 9344W        W28198  11.965   1.114   1.009 -0.1055 -0.1171  0.1356
 9345W        W28199  14.642   6.213   0.394  0.3667 -0.2338  0.1540
 9346W        W28200   8.397  14.231  11.139 -0.2214 -0.1109  0.2056
 9347W        W28201   9.872  14.506   4.558 -0.2094 -0.0993  0.1706
 9348W        W28202   0.694   3.099  13.580 -0.2861  0.3286  0.0208
 9349W        W28203   2.267   5.389   2.115  0.2978 -0.1752 -0.0057
 9350W        W28204   0.573  10.948   3.873 -0.0167  0.0362 -0.0134
 9351W        W28205  14.911   0.319  12.989  0.0105  0.1975  0.0098
 9352W        W28206  11.420  14.825   3.400 -0.0426 -0.3312 -0.2528
 9353W        W28207   7.195  12.440  10.396  0.2438 -0.0845  0.0784
 9354W        W28208   7.602   7.764   2.117  0.0849  0.0902  0.0118
 9355W        W28209   5.532   6.833  14.552 -0.1424  0.0521  0.1142
 9356W        W28210  11.794   2.538   3.332 -0.2383  0.0145  0.0082
 9357W        W28211  18.021   6.423   3.335 -0.0138 -0.1440 -0.0708
 9358W        W28212   7.599   6.535  13.796  0.0380 -0.0804 -0.2758
 9359W        W28213   3.828   1.496   4.677  0.1411  0.1849 -0.1752
 9360W        W28214   4.436  10.610  11.582 -0.3700  0.2263 -0.1330
 9361W        W28215   1.344  13.532   3.162 -0.0137 -0.3228  0.5093
 9362W        W28216  15.160   3.509   1.444 -0.0311 -0.0677  0.0828
 9363W        W28217   8.104   7.721  14.446 -0.0963  0.0282 -0.3473
 9364W        W28218  15.833   3.185   1.231 -0.4643 -0.0971 -0.2223
 9365W        W28219   9.732   6.069  11.787 -0.2045 -0.3433  0.1158
 9366W        W28220   9.039   2.344  12.916  0.2828  0.3306 -0.2312
 9367W        W28221   1.014  10.215  15.581 -0.1126 -0.3361 -0.0302
 9368W        W28222   4.455   0.960  11.335 -0.0661  0.0972  0.0729
 9369W        W28223  17.675   2.417  15.984  0.2944  0.2753  0.1617
 9370W        W28224  10.524  13.441   3.107 -0.0190  0.3786 -0.1027
 9371W        W28225   6.185   9.031   4.124  0.1644  0.0385 -0.0646
 9372W        W28226  17.184  16.756  14.749  0.0908 -0.1401 -0.0444
 9373W        W28227   5.905  12.383   0.842  0.0334  0.1365  0.0023
 9374W        W28228  15.249   0.596   3.114  0.2679 -0.0099  0.1365
 9375W        W28229   2.852   5.995   3.772  0.0378 -0.1847  0.1565
 9376W        W28230  12.373  14.225  13.357  0.0396  0.1271 -0.0675
 9377W        W28231   8.402   3.923   5.067 -0.0908 -0.0389 -0.1736
 9378W        W28232   7.978   2.646  14.591  0.1021  0.1851 -0.0501
 9379W        W28233   1.975   8.361   3.671 -0.0146  0.0301 -0.1482
 9380W        W28234  11.301   6.888   0.930 -0.2237 -0.1939  0.2761
 9381W        W28235   2.570   1.880  15.223 -0.1218  0.1187 -0.2907
 9382W        W28236  11.572  16.945  12.511  0.1281  0.1898  0.1218
 9383W        W28237   9.940   1.538  12.427 -0.0878  0.1484  0.0255
 9384W        W28238   2.572   2.870  16.051  0.0254 -0.3564  0.1240
 9385W        W28239   2.002   7.046  15.316 -0.0420  0.0065  0.2868
 9386W        W28240  10.571  17.841   0.585  0.0772  0.3821  0.4217
 9387W        W28241   3.555   6.816  13.433 -0.0710 -0.5909 -0.0543
 9388W        W28242   0.108   3.668  12.595 -0.0473 -0.0768  0.0212
 9389W        W28243  16.489   4.270   0.778  0.0099  0.1089 -0.0536
 9390W        W28244   0.157   5.081  13.720  0.0893  0.0635  0.0327
 9391W        W28245  16.143   2.712   0.507  0.0582  0.1851 -0.0511
 9392W        W28246  14.438   6.175   4.103 -0.1972 -0.3847 -0.0895
 9393W        W28247  11.841  13.091  14.671 -0.1060 -0.0671  0.0915
 9394W        W28248  15.636   9.677  11.135  0.3455  0.0325 -0.2409
 9395W        W28249   1.511   8.063   1.424  0.1461  0.0704 -0.1019
 9396W        W28250  17.813  12.364   5.114 -0.1367  0.0806 -0.0647
 9397W        W28251  13.123   8.268   0.184 -0.0607  0.1996  0.2616
 9398W        W28252   3.278   7.823   4.017  0.0625  0.1311 -0.0356
 9399W        W28253   1.634  12.104  11.790  0.0619  0.2096  0.2497
 9400W        W28254   9.781   0.474  16.047 -0.0250 -0.3857  0.1237
 9401W        W28255  17.602   4.048   2.034  0.1583 -0.0628 -0.0507
 9402W        W28256  11.196   3.754   2.926 -0.0997  0.4663  0.2529
 9403W        W28257   9.324  15.676  11.907  0.0301 -0.3190 -0.2818
 9404W        W28258   8.717   7.025  11.712 -0.0568 -0.3299 -0.0479
 9405W        W28259   1.179   9.846   1.169  0.3764 -0.3234  0.0755
 9406W        W28260  13.860   7.406   3.242 -0.1130  0.0254 -0.2650
 9407W        W28261   4.737   0.911   3.054 -0.2110  0.2201 -0.0074
 9408W        W28262  16.086  11.310   4.717 -0.1231 -0.1368  0.0657
 9409W        W28263   3.947  10.417  15.891  0.0009  0.1583  0.2317
 9410W        W28264   1.079   8.854   4.321 -0.2028 -0.1290  0.3178
 9411W        W28265   4.401  14.879   2.617  0.0922  0.0437  0.0850
 9412W        W28266   7.186  16.584   2.416 -0.2183 -0.1174 -0.2106
 9413W        W28267  13.013   1.389  11.540 -0.1492 -0.1716  0.0187
 9414W        W28268   9.241  14.673   0.753 -0.1977 -0.0861  0.1096
 9415W        W28269   5.512  13.194   3.092  0.0194 -0.3972  0.0364
 9416W        W28270  17.370  11.870   5.952  0.1601 -0.1226 -0.1401
 9417W        W28271   0.059  12.824  14.834  0.1716  0.0793 -0.4564
 9418W        W28272   8.207   1.629   4.313  0.1714 -0.1268  0.0974
 9419W        W28273   6.158  16.974  14.810  0.1344 -0.0450 -0.2640
 9420W        W28274  14.997  11.428  14.382  0.1834  0.0034 -0.1617
 9421W        W28275  10.888  16.877  14.616  0.0161 -0.0284  0.0239
 9422W        W28276  13.577   8.489  15.192 -0.0780 -0.3472  0.0012
 9423W        W28277  10.412  12.148  10.680 -0.1372 -0.1178  0.0404
 9424W        W28278   1.898   5.383  13.309 -0.2664 -0.0138  0.0074
 9425W        W28279  14.751   2.944   0.599 -0.0931 -0.2316  0.0777
 9426W        W28280   3.640  16.969   1.582 -0.2037 -0.0326 -0.1020
 9427W        W28281  16.229   0.758  16.040 -0.0697  0.0790  0.0796
 9428W        W28282  10.175  14.877   1.497  0.3727 -0.0804 -0.0212
 9429W        W28283   1.343   0.132  13.096  0.1282 -0.1890 -0.1327
 9430W        W28284  12.679   0.700  14.781 -0.2424 -0.1500  0.3037
 9431W        W28285  16.164   0.598   5.459 -0.1998 -0.0174 -0.0144
 9432W        W28286   2.145  14.686   1.019 -0.1430  0.0839 -0.0827
 9433W        W28287   5.047   3.430   3.228  0.0104 -0.4012  0.2969
 9434W        W28288   4.903   0.454  16.140 -0.0493  0.2515 -0.0731
 9435W        W28289   8.872  10.227   3.704 -0.2045  0.0688  0.2580
 9436W        W28290   0.232   5.941  13.545  0.0616  0.0735  0.0971
 9437W        W28291  11.050   2.554  10.764 -0.2204  0.1405  0.0456
 9438W        W28292  14.715  10.198  13.897  0.0612 -0.0327  0.0144
 9439W        W28293  16.455  10.960  13.626  0.0976 -0.3681  0.0293
 9440W        W28294   8.214   1.819  11.810  0.4395 -0.1755 -0.2662
 9441W        W28295  14.664  11.806  14.725 -0.3170  0.2093  0.4056
 9442W        W28296  14.781   8.741  10.933 -0.1287  0.1165 -0.1120
 9443W        W28297  16.029  16.374   1.800  0.0579  0.0713 -0.0896
 9444W        W28298   7.925   9.687  12.459  0.0195  0.2231  0.2279
 9445W        W28299   6.604   6.924  12.766 -0.2252 -0.0223 -0.2118
 9446W        W28300   5.028   4.266   1.573  0.2178  0.1676  0.1058
 9447W        W28301   3.863   4.663   1.489 -0.0369  0.1501  0.2394
 9448W        W28302  13.318   6.975   2.386  0.1074 -0.2517  0.3864
 9449W        W28303   2.399  11.066  11.857  0.1849 -0.0599 -0.2164
 9450W        W28304   8.986  16.833   2.908 -0.1233 -0.0944 -0.2311
 9451W        W28305  15.924  11.867   1.814 -0.2313 -0.0872 -0.0390
 9452W        W28306  10.022   1.080  13.839  0.0505 -0.0486  0.0626
 9453W        W28307  18.030   1.950   2.025  0.0425  0.1560  0.2688
 9454W        W28308  11.040  15.887  13.546 -0.3017 -0.1178 -0.0726
 9455W        W28309  14.461   9.806   3.231 -0.2555  0.1675 -0.1135
 9456W        W28310  13.580   5.109  11.718 -0.3066  0.3052 -0.0084
 9457W        W28311  13.572   9.921   1.927  0.1161  0.3163  0.2452
 9458W        W28312  14.614  14.528  13.996  0.1564  0.0423  0.1236
 9459W        W28313   2.394  11.579  14.220 -0.0869  0.2074 -0.0932
 9460W        W28314   1.690   3.207   0.965 -0.0693  0.1869  0.2471
 9461W        W28315   4.514   6.091  10.796 -0.2481  0.0831  0.0381
 9462W        W28316   9.561   4.482   1.416  0.0848 -0.0876  0.2396
 9463W        W28317   4.965  10.996   1.302 -0.3464 -0.0826 -0.1773
 9464W        W28318  17.669  16.030   4.865 -0.1243 -0.0501  0.0971
 9465W        W28319   1.135  15.093  14.493 -0.2529 -0.3375  0.0283
 9466W        W28320  10.173   4.008   0.795 -0.0710 -0.1980 -0.0293
 9467W        W28321   5.883  11.502  12.455  0.4240  0.0230  0.2003
 9468W        W28322   3.615   1.641  11.310 -0.0150 -0.2474  0.0027
 9469W        W28323   8.040  17.275   0.181 -0.0575  0.1294 -0.0664
 9470W        W28324  17.285  13.631   0.975 -0.2955 -0.0861  0.0320
 9471W        W28325   2.635   7.530   0.414 -0.0640 -0.1189  0.0724
 9472W        W28326  15.665   0.824   0.180 -0.0946  0.0354 -0.1012
 9473W        W28327  16.483   9.464   1.559 -0.1886 -0.2485 -0.0816
 9474W        W28328   0.787  16.545   4.921 -0.1803  0.1033  0.2738
 9475W        W28329  10.853   0.137   0.908  0.2513 -0.3171  0.1312
 9476W        W28330   7.101   3.908  14.931 -0.0074  0.1314  0.0494
 9477W        W28331   2.591   5.987  12.436 -0.2195 -0.0360 -0.1164
 9478W        W28332   4.384  13.604   2.600  0.3522  0.2193 -0.0502
 9479W        W28333   1.671   4.358  11.957 -0.2348  0.3103 -0.0177
 9480W        W28334  11.050   2.559   1.932  0.0687 -0.0772 -0.2095
 9481W        W28335   4.174   3.200   1.640 -0.0277  0.1935 -0.1603
 9482W        W28336  17.314  10.918  15.088 -0.0542  0.0641  0.4441
 9483W        W28337  12.905  10.708   0.181 -0.0842  0.0233 -0.0549
 9484W        W28338   4.017  12.281  15.480 -0.1755  0.1586  0.2546
 9485W        W28339  10.392   8.683   0.695 -0.0461  0.1333  0.2115
 9486W        W28340   3.747   9.383   2.242  0.2848 -0.0201 -0.1396
 9487W        W28341  15.277  11.966  13.814  0.3407  0.1877  0.0093
 9488W        W28342  14.931   2.253  16.033 -0.1471  0.2170  0.0665
 9489W        W28343   8.930  14.465  11.188 -0.2907  0.0240 -0.0704
 9490W        W28344   0.271  14.091  11.975 -0.2392 -0.0296 -0.1156
 9491W        W28345   6.130  10.024   3.167 -0.0244 -0.0438  0.0029
 9492W        W28346  11.169  11.013  16.220 -0.3360 -0.1292  0.0005
 9493W        W28347  11.514   4.999   0.728 -0.1743 -0.2613 -0.0339
 9494W        W28348   7.973  15.673   4.879  0.1172 -0.1926 -0.3337
 9495W        W28349   8.061  17.500  12.272  0.1653  0.0285  0.1110
 9496W        W28350   1.005   5.488  13.979  0.1438 -0.0826 -0.0873
 9497W        W28351   3.385  11.128  11.411  0.0270 -0.0776  0.2043
 9498W        W28352   4.016  13.612  10.972 -0.1099  0.1610  0.4451
 9499W        W28353   6.125  14.354   4.765 -0.2122  0.1002 -0.1244
 9500W        W28354  17.270   9.436  15.371 -0.0068 -0.0261 -0.0388
 9501W        W28355   3.605   1.244  15.882 -0.0362  0.0063 -0.1284
 9502W        W28356  14.609  17.383   0.899 -0.1277 -0.3733  0.1918
 9503W        W28357   2.541   0.329  15.705  0.0880  0.0472 -0.4189
 9504W        W28358   5.433  16.146   2.822 -0.1172 -0.0780 -0.1231
 9505W        W28359  12.522  15.546  11.892 -0.1436 -0.0557  0.0039
 9506W        W28360   8.556   2.046   3.391 -0.0801 -0.0100 -0.1968
 9507W        W28361  12.869  13.197  11.850  0.0840 -0.2246  0.0954
 9508W        W28362  16.826  12.444  15.370  0.0766 -0.0175 -0.1840
 9509W        W28363  16.953   1.833  15.634  0.0799  0.3409  0.0041
 9510W        W28364   3.384   3.903   0.489 -0.1406 -0.1619 -0.0253
 9511W        W28365  12.714   0.465   0.247 -0.0325 -0.3302 -0.0034
 9512W        W28366  15.550  10.340   2.711  0.2817  0.1329  0.0154
 9513W        W28367  13.156   2.352   0.941 -0.1148  0.1397  0.0181
 9514W        W28368   5.254   4.609  14.661 -0.1614  0.0390  0.2270
 9515W        W28369   3.132  10.669  14.734 -0.0447  0.4260  0.2690
 9516W        W28370   5.158  16.760   0.830  0.1592 -0.1948  0.0939
 9517W        W28371   9.962  15.056  13.285  0.2046  0.1306 -0.0629
 9518W        W28372   2.798   1.425   4.055  0.0778 -0.1226  0.2161
 9519W        W28373   0.857   4.478   3.957 -0.1821  0.0978  0.0462
 9520W        W28374  17.348   1.129  11.745  0.0996  0.0633  0.0957
 9521W        W28375  16.351   0.380   0.182  0.0512 -0.1927 -0.0120
 9522W        W28376  16.589   8.660   3.076 -0.0312 -0.3639 -0.0870
 9523W        W28377  14.766   1.758  12.921  0.2600 -0.0722  0.0476
 9524W        W28378  17.091   4.440   4.084  0.0320  0.3044  0.1347
 9525W        W28379   6.498   3.766  12.715  0.0965 -0.1738 -0.0888
 9526W        W28380   4.389   8.111  12.243 -0.2423  0.0508  0.1272
 9527W        W28381   0.180  13.602  11.839  0.0377  0.0587 -0.1465
 9528W        W28382   0.069   8.252  11.001 -0.0272  0.0149 -0.0581
 9529W        W28383   9.095   7.828   2.117 -0.1411 -0.1041  0.1554
 9530W        W28384  17.523  13.219   3.468  0.1996 -0.1125  0.0809
 9531W        W28385   0.134  16.615  14.426 -0.0704 -0.1543 -0.4647
 9532W        W28386   8.379  13.958  13.720  0.2249  0.0696 -0.0501
 9533W        W28387   2.406   5.158   0.951  0.2625 -0.0011  0.2283
 9534W        W28388   9.257   3.026  13.470 -0.2260 -0.0904 -0.2934
 9535W        W28389   4.698   0.634  13.374  0.2427  0.0927  0.3953
 9536W        W28390  16.603   0.096   3.884 -0.0771 -0.0634 -0.1861
 9537W        W28391   1.981   1.847   0.429  0.3864 -0.1819 -0.1511
 9538W        W28392  14.015   7.381  11.504  0.0456 -0.2434 -0.3676
 9539W        W28393   9.953   1.934  12.922 -0.3533  0.1311  0.0004
 9540W        W28394   7.307  14.775  12.980  0.1371  0.1797 -0.4128
 9541W        W28395  15.581   7.897   4.075  0.1490 -0.0771 -0.1214
 9542W        W28396  10.847  12.376   2.793  0.1155  0.2430  0.0806
 9543W        W28397   8.215   9.472  14.330 -0.3793  0.2830  0.1651
 9544W        W28398   2.671  13.925  15.662 -0.0146 -0.1475  0.0125
 9545W        W28399  17.365  13.560  15.917  0.1019 -0.1078 -0.1874
 9546W        W28400  12.154  13.445   4.416 -0.1283  0.1308  0.1109
 9547W        W28401  12.904   7.211  13.389 -0.1220 -0.2555  0.0563
 9548W        W28402   0.584   9.100   1.162 -0.0649  0.2337  0.1970
 9549W        W28403  16.772   0.431   1.138 -0.1748  0.1566  0.2852
 9550W        W28404   3.424   6.751   3.492 -0.2441 -0.0369 -0.1061
 9551W        W28405   0.038  12.564   4.652 -0.1208  0.0580 -0.1483
 9552W        W28406   7.232  12.720  13.209  0.1909  0.1027 -0.1752
 9553W        W28407  11.667  15.156   4.808  0.1672  0.1062  0.1754
 9554W        W28408  13.257  11.560   0.017  0.1367  0.0671  0.2490
 9555W        W28409   6.243  13.201   4.433 -0.2302  0.6494  0.0674
 9556W        W28410   3.850   7.956  12.344 -0.2288 -0.1039 -0.1694
 9557W        W28411   8.055  17.937  15.415  0.2933  0.0205 -0.0434
 9558W        W28412   3.711   1.110  12.960  0.0072  0.2553 -0.1883
 9559W        W28413   8.373   8.788   4.308  0.0317  0.2711 -0.5352
 9560W        W28414   6.628   6.605  12.326 -0.0305  0.1159 -0.0933
 9561W        W28415   8.284   3.962   2.381 -0.2217  0.1381 -0.1091
 9562W        W28416   6.212   1.816   3.114  0.1604 -0.1147 -0.1739
 9563W        W28417  15.581   9.982  12.440 -0.2253 -0.1358  0.1800
 9564W        W28418  13.089  17.276   2.354  0.0335 -0.1973  0.1877
 9565W        W28419   0.119  10.130   5.017  0.2341 -0.0567  0.0901
 9566W        W28420  17.759  14.042   0.456  0.0748 -0.1150  0.0668
 9567W        W28421   6.861   1.300   1.417  0.0895 -0.0792 -0.0574
 9568W        W28422   1.804   6.363  13.672 -0.2475 -0.0639 -0.1720
 9569W        W28423   5.624  14.597  14.837  0.1701  0.0387  0.2440
 9570W        W28424  12.118  16.325  12.459  0.0682 -0.1845  0.3257
 9571W        W28425  13.688   1.898  11.216  0.2510  0.2916  0.3245
 9572W        W28426  15.059   7.680  14.272 -0.3112  0.1357  0.3149
 9573W        W28427  13.617  17.403  12.101  0.0222  0.2614 -0.1244
 9574W        W28428   7.616   0.711  11.841  0.0525 -0.0859  0.1003
 9575W        W28429  15.837  10.204   1.813  0.0480 -0.2120  0.0404
 9576W        W28430  17.905   6.127   3.807 -0.1831 -0.0348  0.2273
 9577W        W28431   4.396   1.420  11.650  0.1232 -0.0661  0.0479
 9578W        W28432   0.171   7.348   1.094 -0.1222 -0.5119 -0.1093
 9579W        W28433  17.712   8.516   0.451 -0.2356 -0.1284 -0.1219
 9580W        W28434  12.707   2.516   1.524 -0.2032  0.0163 -0.0991
 9581W        W28435   3.976   2.137  15.647 -0.4714 -0.0588 -0.1024
 9582W        W28436  12.117  14.128   3.946 -0.0848 -0.2173 -0.0720
 9583W        W28437   9.807  13.937   0.108  0.0869 -0.2877  0.1034
 9584W        W28438   8.226   6.911  15.900 -0.0088  0.0079 -0.1897
 9585W        W28439  13.958  10.388  14.687  0.1239  0.2013 -0.2153
 9586W        W28440  17.570   8.186   1.299 -0.0514  0.1648  0.2634
 9587W        W28441   2.382   4.535   1.547 -0.0595 -0.2619 -0.2944
 9588W        W28442  15.747   2.519  13.718  0.0865  0.3469 -0.2714
 9589W        W28443  15.631  11.894   0.977 -0.2597 -0.0563 -0.0530
 9590W        W28444   7.140   4.943   3.866 -0.0476  0.0522  0.2074
 9591W        W28445   1.195  17.865  11.998 -0.0016  0.2645 -0.0882
 9592W        W28446   9.201   3.199  15.321  0.0634 -0.2100  0.0270
 9593W        W28447  12.311   3.319   3.834  0.0601  0.0684  0.1757
 9594W        W28448   7.997   6.394  14.661 -0.0932 -0.1412  0.2873
 9595W        W28449  16.728  11.757  15.826 -0.0950  0.1655 -0.1383
 9596W        W28450   9.916  17.939  14.375  0.2007  0.1133  0.1035
 9597W        W28451  17.970  14.401  12.484 -0.3795 -0.0037 -0.0287
 9598W        W28452  16.879  15.254   1.034 -0.1359  0.3918 -0.1535
 9599W        W28453   5.058  11.258  11.784 -0.1686 -0.0044 -0.1154
 9600W        W28454   4.637   0.583   0.344  0.1573  0.1950  0.1751
 9601W        W28455  15.217   7.636  12.959  0.2154 -0.0641  0.4875
 9602W        W28456  17.570  14.897  15.753 -0.0472  0.0880  0.1317
 9603W        W28457   0.478  11.134   1.155  0.0012 -0.0368 -0.1323
 9604W        W28458   3.800   2.346  12.663 -0.0586  0.3161  0.1440
 9605W        W28459   6.718   6.873   1.714 -0.2221 -0.0662 -0.0811
 9606W        W28460  11.178  15.412   4.280  0.1034  0.0463 -0.0067
 9607W        W28461  15.451  16.367   0.672  0.1475 -0.1009 -0.2497
 9608W        W28462  12.851   0.750   3.695  0.0826  0.1022 -0.2169
 9609W        W28463   7.546   4.899   1.795 -0.1016 -0.2149 -0.1511
 9610W        W28464   0.107  11.725   4.005  0.0417 -0.0996 -0.2845
 9611W        W28465   4.466   6.468  12.685  0.0319  0.0654 -0.3102
 9612W        W28466   0.975  13.783  16.168 -0.1927  0.3760  0.2722
 9613W        W28467   9.640   9.039  12.037 -0.1736  0.1598  0.2142
 9614W        W28468  13.235   1.710  11.925  0.2295  0.3843 -0.1472
 9615W        W28469   6.015  15.308  14.876 -0.1112  0.1173  0.2086
 9616W        W28470   6.655  11.874   0.458  0.2287  0.1804 -0.0553
 9617W        W28471   2.205   9.778  14.908  0.0688  0.0362 -0.0070
 9618W        W28472   1.391  12.775   4.583 -0.0139  0.0751  0.0355
 9619W        W28473  16.859   4.777  14.091 -0.1436  0.2417 -0.1035
 9620W        W28474   6.256   7.905  14.261  0.3159 -0.1634 -0.1196
 9621W        W28475  11.072   3.488   3.550  0.1109  0.2406 -0.0264
 9622W        W28476  15.474  12.911   4.667  0.0359  0.0983  0.1336
 9623W        W28477   2.452   0.417   3.484  0.1781  0.2710 -0.0023
 9624W        W28478   1.869  10.076  12.505  0.0019 -0.1641 -0.1004
 9625W        W28479  17.225   4.249   1.308 -0.0773  0.2069  0.1324
 9626W        W28480   6.251   3.680   2.117 -0.0078  0.1604  0.2357
 9627W        W28481   5.052   8.465  14.846  0.0741  0.3268  0.0334
 9628W        W28482   3.494  11.481   3.170  0.2782 -0.4202 -0.0246
 9629W        W28483   9.003  14.709  14.008  0.2998  0.2187 -0.2488
 9630W        W28484   6.893   0.142  12.699  0.1649  0.0577  0.3486
 9631W        W28485  15.183  14.298   6.167  0.1977 -0.1195 -0.0863
 9632W        W28486   4.265   5.111  15.837 -0.1222  0.0691  0.0248
 9633W        W28487   4.679   8.495  15.286  0.2800  0.2131 -0.0034
 9634W        W28488  15.661  16.078   2.300  0.1841  0.0377 -0.1635
 9635W        W28489   2.984   5.754   0.548  0.0574 -0.0137  0.0310
 9636W        W28490   7.034   6.095   0.008  0.4614  0.0821  0.2007
 9637W        W28491  12.953  10.129   0.858  0.3263  0.0397  0.2952
 9638W        W28492  11.942   3.219  15.880 -0.4165 -0.1505 -0.2339
 9639W        W28493  17.938  11.206   4.006  0.1769 -0.0446  0.1380
 9640W        W28494  11.452   8.972   3.418  0.1408 -0.0032  0.1146
 9641W        W28495   0.142   0.170   4.690  0.0669  0.0353 -0.0242
 9642W        W28496  17.930  14.802   0.904 -0.0459  0.2689  0.2449
 9643W        W28497  17.725  11.081   4.863 -0.0229  0.1294  0.2771
 9644W        W28498   5.808   8.859   3.021 -0.1787  0.0475 -0.2043
 9645W        W28499  11.673  11.961  13.676 -0.1192 -0.0113  0.3154
 9646W        W28500  10.531  13.019  10.722  0.0532 -0.0597 -0.0623
 9647W        W28501   5.509  14.368   3.111 -0.0238  0.0539 -0.2189
 9648W        W28502   6.195  11.739  11.324 -0.2133  0.1816  0.0572
 9649W        W28503   8.888   3.903  15.949  0.1733 -0.0258 -0.2238
 9650W        W28504  15.174   5.976  11.831 -0.0669 -0.0874 -0.0562
 9651W        W28505   9.793  17.429   0.720 -0.1574  0.1915  0.0774
 9652W        W28506  13.282   9.027   1.897 -0.3095  0.0225 -0.0975
 9653W        W28507   1.937   4.999   1.237  0.1068 -0.4271  0.1983
 9654W        W28508   6.531  14.634   4.422  0.0489  0.0903  0.0943
 9655W        W28509   5.806   6.867   1.159  0.1203  0.0557 -0.4158
 9656W        W28510   6.395   8.796   2.935 -0.3111  0.1769 -0.3517
 9657W        W28511  15.896  12.608  13.922 -0.0257  0.1432 -0.0272
 9658W        W28512  16.175  11.608  11.591  0.2522  0.0285  0.2737
 9659W        W28513  13.100   7.100  11.211  0.0958  0.0634  0.1491
 9660W        W28514  11.868   5.813   3.104  0.4013  0.2859  0.1414
 9661W        W28515  13.517   1.259  15.770 -0.0965  0.1051  0.0780
 9662W        W28516  14.566  17.506  13.975 -0.0873 -0.2635 -0.2709
 9663W        W28517   2.315   0.500   2.603  0.1106 -0.0203 -0.0181
 9664W        W28518  13.599   5.654  11.871 -0.1398 -0.1848 -0.0620
 9665W        W28519  12.780   8.493  12.411  0.1416 -0.1025 -0.0656
 9666W        W28520  16.275   8.187  13.305 -0.1417 -0.1096 -0.2051
 9667W        W28521  14.161  14.548  14.269  0.1256 -0.2302  0.0235
 9668W        W28522  17.251  11.167  14.285 -0.0842 -0.1865  0.2131
 9669W        W28523   7.951   1.537  13.461  0.1011 -0.2683  0.2656
 9670W        W28524   6.678   1.160   3.056 -0.0033  0.0186  0.1127
 9671W        W28525  13.038  12.816   1.515  0.2952 -0.1704  0.2572
 9672W        W28526   0.844  12.537  14.965  0.2070 -0.0858 -0.0941
 9673W        W28527   5.613   4.352  14.427 -0.1572  0.2951 -0.1045
 9674W        W28528  16.525   3.143   1.813 -0.0598 -0.0992  0.0429
 9675W        W28529  15.889   2.650  14.165 -0.0552  0.3337  0.0122
 9676W        W28530   1.720   3.149  16.222  0.0190 -0.0765 -0.0809
 9677W        W28531  16.480   8.157   4.689  0.0313  0.1492  0.0640
 9678W        W28532   2.099  11.626  12.633 -0.1467  0.3004 -0.1425
 9679W        W28533   4.290  10.274   0.067  0.4698 -0.1699 -0.1347
 9680W        W28534   8.868  17.410  15.251 -0.1947 -0.3623 -0.0879
 9681W        W28535  12.468  14.389  14.405  0.0421 -0.2124 -0.2054
 9682W        W28536   6.607   7.000  14.112  0.1016 -0.1066  0.0329
 9683W        W28537   3.866  11.182  16.121 -0.1474 -0.0716  0.0048
 9684W        W28538  12.948  16.743   4.513  0.1990 -0.1842  0.0032
 9685W        W28539   3.472  14.405  13.526  0.0539  0.0528  0.2428
 9686W        W28540   3.139   4.958   2.108  0.0594  0.0827  0.1157
 9687W        W28541   2.093  12.708  14.129 -0.1694 -0.3593 -0.0764
 9688W        W28542  12.720   2.765   4.292 -0.0587 -0.1383 -0.0530
 9689W        W28543   2.270  15.155   2.058  0.1305  0.1903 -0.2678
 9690W        W28544  14.332   2.666  11.503  0.1761  0.0175  0.0010
 9691W        W28545  12.454  17.015   3.217 -0.1725  0.0652 -0.0191
 9692W        W28546  16.827  17.056   5.292 -0.2828  0.1642 -0.2897
 9693W        W28547  17.539   0.705   3.333 -0.0353 -0.0707  0.5407
 9694W        W28548   9.333   4.876  13.548  0.1073 -0.0269  0.1098
 9695W        W28549  16.140  13.098  15.080 -0.1745 -0.2525  0.0575
 9696W        W28550  13.401   5.528   0.747 -0.2675  0.2033  0.2082
 9697W        W28551   7.131   9.508  12.926  0.0289  0.0927 -0.2325
 9698W        W28552  16.884   8.283   0.135  0.0786 -0.1469  0.0612
 9699W        W28553  16.676  12.095  13.391 -0.0108  0.1478 -0.0614
 9700W        W28554   4.321   3.981   2.802  0.0399  0.2243 -0.2602
 9701W        W28555   8.452  17.935   2.630 -0.0762  0.1125 -0.0097
 9702W        W28556   5.466  11.623   1.542  0.1657  0.2799  0.0149
 9703W        W28557   9.068   2.009   4.124  0.3217  0.1884 -0.0353
 9704W        W28558   6.340   9.629  12.670 -0.1878 -0.3176 -0.0056
 9705W        W28559  16.318  15.463   1.065  0.0200  0.1904 -0.2056
 9706W        W28560  11.572   0.746  14.495 -0.0419 -0.1180 -0.1620
 9707W        W28561   9.477   6.604   4.536  0.1317  0.0701  0.2392
 9708W        W28562   4.410  17.880  11.839 -0.0809 -0.1204  0.0918
 9709W        W28563   4.341  15.143   0.604  0.1060 -0.1570  0.1089
 9710W        W28564   8.185   1.505   0.034 -0.3765  0.3501 -0.0654
 9711W        W28565  13.403  14.575  12.084  0.0094 -0.2665  0.2568
 9712W        W28566   5.258   8.163  15.591  0.2283  0.0636  0.0309
 9713W        W28567   8.151   7.291  15.179 -0.0553  0.0193 -0.3955
 9714W        W28568   8.024  12.954  11.844 -0.0309  0.0224 -0.0712
 9715W        W28569   9.596   2.933   1.541  0.0020  0.0440 -0.2218
 9716W        W28570  10.792   5.743   1.542  0.0684  0.0124  0.1706
 9717W        W28571   8.494  13.861   2.562  0.0552 -0.3734  0.0112
 9718W        W28572   5.640  14.605   4.042 -0.1065 -0.0928 -0.1249
 9719W        W28573   5.041   9.298   0.592  0.2561 -0.2114  0.1215
 9720W        W28574  13.539   9.597   1.032 -0.1251 -0.0197 -0.0809
 9721W        W28575  14.196  16.206   4.044 -0.2046 -0.3087  0.0535
 9722W        W28576  17.465  15.222   4.306 -0.2004  0.1565 -0.3104
 9723W        W28577  15.154   6.971   3.935 -0.2641  0.0304 -0.0778
 9724W        W28578  14.096  17.562   0.665  0.1730 -0.1593  0.4259
 9725W        W28579  10.868  12.637   3.446 -0.1193  0.3967  0.0969
 9726W        W28580  16.851   1.128   0.769  0.2342 -0.1838  0.0809
 9727W        W28581  10.554  17.499  15.446  0.0950  0.0905 -0.0368
 9728W        W28582   7.434   2.972  15.696  0.2037 -0.0160 -0.0920
 9729W        W28583  13.721   4.137  15.113  0.2211 -0.0045  0.1006
 9730W        W28584  14.830  15.163   2.093 -0.1153 -0.0581 -0.0541
 9731W        W28585   0.081  16.106   1.252  0.0022 -0.1623 -0.1248
 9732W        W28586   9.520  16.531   2.263 -0.1184  0.3167  0.1070
 9733W        W28587  11.104   0.544  13.356 -0.1272 -0.0640  0.4088
 9734W        W28588  14.734   6.910  16.013 -0.3379 -0.1687  0.0920
 9735W        W28589  16.095  10.566   4.596  0.1331  0.2805 -0.3250
 9736W        W28590   5.686   3.794  14.779  0.1067  0.2121 -0.0151
 9737W        W28591  15.876   6.703  13.407  0.2847 -0.0556  0.2694
 9738W        W28592   4.097  11.526   2.216  0.3486 -0.0394 -0.0706
 9739W        W28593   9.301   0.109  15.143 -0.0191  0.1453 -0.1829
 9740W        W28594  13.059  12.791   2.317 -0.0481 -0.1826  0.1789
 9741W        W28595   2.987  16.284  10.930  0.1097  0.1214  0.1737
 9742W        W28596  13.146  14.756  15.038 -0.2358 -0.0993  0.2998
 9743W        W28597  15.136  10.088   2.809  0.1033  0.0158 -0.1394
 9744W        W28598   0.189   6.175  11.941  0.0004 -0.0008  0.1491
 9745W        W28599  16.146  14.893   1.815 -0.0890  0.0821 -0.1096
 9746W        W28600   9.869   8.765  15.784  0.0893 -0.2279 -0.2444
 9747W        W28601  14.631   6.345  16.016  0.2014  0.0562 -0.2017
 9748W        W28602   2.290   5.599  14.105  0.1948 -0.1031  0.0283
 9749W        W28603   0.102   2.095   1.019 -0.0084 -0.1897 -0.2003
 9750W        W28604  15.747   4.211  12.248  0.2664  0.0598  0.0749
 9751W        W28605  17.063   8.414   2.521  0.1569  0.1508  0.3380
 9752W        W28606   2.167  11.423  13.776 -0.1247  0.1080 -0.4341
 9753W        W28607  14.258   9.044  11.503 -0.0189  0.3727 -0.2642
 9754W        W28608   7.296  17.930   0.360 -0.0327 -0.4211 -0.0013
 9755W        W28609   7.288  14.252  12.238 -0.0091 -0.3956 -0.2221
 9756W        W28610  16.232   5.137  12.213 -0.0030 -0.0371 -0.1564
 9757W        W28611  11.313  10.086  13.346  0.2215  0.1851  0.0534
 9758W        W28612   4.417  15.966  13.872 -0.1992 -0.2046 -0.0347
 9759W        W28613   5.123  15.866  13.441  0.0277 -0.1581 -0.0528
 9760W        W28614  10.777  16.330   1.233  0.1566  0.1849  0.3204
 9761W        W28615  14.098  17.731  14.238 -0.3116  0.0436 -0.0926
 9762W        W28616  17.066   9.858   3.835  0.0183 -0.0114 -0.0482
 9763W        W28617   1.126   1.979   2.851 -0.1183 -0.1577  0.1002
 9764W        W28618   0.893  17.206   3.149 -0.0339 -0.3098  0.0030
 9765W        W28619  16.569   8.454  15.993 -0.0091  0.1115  0.2398
 9766W        W28620   9.316  11.841  14.171  0.0342  0.0515  0.1033
 9767W        W28621   6.433   7.170   1.979  0.3344  0.2307 -0.0099
 9768W        W28622  12.286   4.663   3.656  0.0039  0.0929 -0.1736
 9769W        W28623   4.008  16.110  14.317 -0.2212 -0.2811 -0.0450
 9770W        W28624  14.594   2.066   3.136  0.2588  0.0658  0.2153
 9771W        W28625   1.865  15.521  11.764  0.0971  0.0596  0.0551
 9772W        W28626  10.334  15.533  12.777  0.2118  0.0900  0.0095
 9773W        W28627   7.526   0.383  13.409  0.1289  0.2069 -0.1317
 9774W        W28628  16.843  17.426  14.198 -0.1388  0.0092 -0.1622
 9775W        W28629  11.575   0.569   1.016 -0.2496  0.2395 -0.1515
 9776W        W28630   0.346   0.852  13.902 -0.0649 -0.0436 -0.3220
 9777W        W28631   0.789   6.494   0.104  0.2659 -0.2045  0.0904
 9778W        W28632   2.581   9.403   3.330  0.1456 -0.0334  0.0210
 9779W        W28633   1.997   4.836  14.892 -0.3392  0.0231 -0.0652
 9780W        W28634   6.929  17.173   0.968  0.2056  0.3717  0.0501
 9781W        W28635  17.394   6.833  10.807  0.1402 -0.0853  0.2317
 9782W        W28636   1.056  14.805  12.765 -0.3566  0.0221 -0.1279
 9783W        W28637   1.294   9.329   4.576  0.3637  0.1650 -0.0032
 9784W        W28638   5.733   1.477  15.479  0.1182 -0.3367  0.1878
 9785W        W28639   3.870  10.246   3.834 -0.1790  0.2953  0.0280
 9786W        W28640   2.919  14.114  12.266 -0.0439  0.1180 -0.3695
 9787W        W28641   4.787   9.526   5.082  0.0391 -0.1429  0.2451
 9788W        W28642  17.116  12.935   0.978  0.0193 -0.0286 -0.0342
 9789W        W28643   8.150   9.034  11.772  0.1033 -0.0148  0.0769
 9790W        W28644  16.428  12.256   4.210 -0.2647  0.3765  0.2537
 9791W        W28645   6.864   9.811   1.895  0.1648 -0.0108 -0.2932
 9792W        W28646  14.972   9.549   3.981 -0.1312  0.0612  0.0497
 9793W        W28647   5.643   5.396  11.077 -0.2335 -0.1030  0.0520
 9794W        W28648   6.681   1.959   4.050  0.2237  0.0364  0.1475
 9795W        W28649  11.509  11.581   1.582 -0.0652 -0.3074 -0.0977
 9796W        W28650   8.051  12.453   0.634  0.3674 -0.3280 -0.0460
 9797W        W28651   4.808  11.127  15.113  0.2300  0.0674  0.1191
 9798W        W28652   0.809  15.087  11.229 -0.0606 -0.1550 -0.2829
 9799W        W28653  16.474   3.908  12.792 -0.0457 -0.2536  0.1885
 9800W        W28654  18.010  14.810  15.521  0.1659 -0.0445  0.1443
 9801W        W28655   8.297   1.781   5.734 -0.1709  0.0287 -0.3654
 9802W        W28656  13.212  15.109  13.523 -0.1888 -0.0755  0.1537
 9803W        W28657   6.060   6.039   5.465  0.2337 -0.1264  0.2678
 9804W        W28658  16.217   7.055   0.499 -0.1997 -0.2859 -0.2051
 9805W        W28659   2.115   2.905  15.863 -0.1903  0.2008 -0.2109
 9806W        W28660  15.090   8.447   3.329  0.1590 -0.1355 -0.3633
 9807W        W28661  14.591   5.240  11.655 -0.1509  0.0429 -0.0368
 9808W        W28662   0.217   3.133  12.674  0.0310  0.0239 -0.0894
 9809W        W28663  17.478  10.159   3.963 -0.1853  0.1267  0.0342
 9810W        W28664  17.223  16.147   0.786 -0.2244  0.3768  0.1329
 9811W        W28665  13.981   6.232  10.526  0.0846  0.1672 -0.1065
 9812W        W28666  10.982  10.167   0.276  0.1129  0.1404  0.0800
 9813W        W28667  15.362   4.869   4.319  0.1181 -0.1825 -0.0084
 9814W        W28668   6.046  11.629   4.499  0.0699  0.2549  0.0537
 9815W        W28669   3.428   9.454  11.602  0.0981  0.1712  0.1976
 9816W        W28670   5.394   9.484  15.006 -0.2030 -0.0046  0.1084
 9817W        W28671  14.307  12.412   3.393  0.0475  0.1356 -0.0194
 9818W        W28672   6.606  10.074  15.351 -0.1016 -0.3326 -0.2869
 9819W        W28673   3.491   4.757  14.015  0.3167 -0.3110  0.3217
 9820W        W28674  15.639  15.734  11.917 -0.1868 -0.1257  0.2413
 9821W        W28675   5.518   7.016   2.089 -0.1253 -0.0608 -0.1108
 9822W        W28676   8.267   1.172  13.483  0.1690 -0.3339 -0.0861
 9823W        W28677   3.735   8.015   4.340 -0.0665  0.1589 -0.1357
 9824W        W28678  11.258   5.610  14.753  0.0637 -0.2359 -0.2373
 9825W        W28679   7.729  14.923  14.667 -0.1069  0.2951  0.1783
 9826W        W28680   7.063  11.776   2.550  0.1273 -0.3946  0.0398
 9827W        W28681   3.850   0.427  15.013  0.1206  0.0898  0.1065
 9828W        W28682  12.542   5.069   3.243 -0.5116  0.0016 -0.0767
 9829W        W28683   7.901   3.741   3.556  0.1417 -0.0566 -0.3293
 9830W        W28684  13.897   0.088  13.501 -0.1367  0.0880  0.0118
 9831W        W28685   4.111  12.349  13.944 -0.0089 -0.0376 -0.1221
 9832W        W28686   2.744   6.322  14.487 -0.3118 -0.2141 -0.0606
 9833W        W28687   5.996   5.304   0.080 -0.0914 -0.2050 -0.0151
 9834W        W28688  13.282  14.238   1.468 -0.0825 -0.0317 -0.0221
 9835W        W28689   6.541   2.158  14.358  0.3400 -0.0683 -0.1568
 9836W        W28690  11.090   5.627  15.548  0.1555  0.1044 -0.3939
 9837W        W28691  10.562   3.894  12.107  0.1687  0.1230 -0.0027
 9838W        W28692  10.365   7.325  12.058  0.0969 -0.3428  0.2081
 9839W        W28693   3.154  16.899   1.625  0.0497  0.0036 -0.2186
 9840W        W28694   1.290   4.753  11.375  0.0327 -0.5899  0.1000
 9841W        W28695  15.239  10.796  13.620 -0.0190  0.1719  0.4912
 9842W        W28696  16.071   9.789  12.232  0.2819 -0.0249  0.0384
 9843W        W28697   8.312   1.703  14.471  0.1986 -0.1751 -0.1563
 9844W        W28698  13.151  12.667  10.686 -0.0286 -0.1066 -0.1868
 9845W        W28699   3.725   6.419  13.751  0.1731  0.3771  0.5657
 9846W        W28700   0.875  13.771   2.573  0.0370  0.0831  0.2217
 9847W        W28701   9.453  16.119  15.270 -0.1147 -0.0862 -0.0208
 9848W        W28702   6.317   3.723  14.668 -0.0750  0.0735 -0.0521
 9849W        W28703   8.154  14.877  12.746  0.0121  0.1385  0.0991
 9850W        W28704  17.881   1.434   2.664 -0.0240 -0.0760 -0.0078
 9851W        W28705  16.299  11.941   5.907  0.0759  0.0835 -0.2228
 9852W        W28706   7.508  14.207   1.513 -0.2365 -0.0020 -0.1802
 9853W        W28707  16.268   2.424   1.335 -0.0266  0.2026  0.0671
 9854W        W28708  12.917   1.228  14.444  0.1594  0.2748 -0.0859
 9855W        W28709   6.212   8.286  13.905  0.1373  0.2229  0.0172
 9856W        W28710   6.578   1.026  14.538  0.2458  0.1863 -0.0302
 9857W        W28711   5.334  15.844   1.212  0.2409 -0.5140  0.0619
 9858W        W28712   1.501   9.841   3.264 -0.3254  0.0310 -0.1217
 9859W        W28713  12.226  15.997  14.737  0.1007  0.2076 -0.2870
 9860W        W28714  12.337   8.268  12.530  0.0862 -0.1361  0.0944
 9861W        W28715  10.987   5.391  11.776 -0.0018 -0.0368  0.0512
 9862W        W28716   4.524  17.248  12.616 -0.0228 -0.0918  0.0197
 9863W        W28717   8.813   4.967  15.135 -0.1387 -0.0546  0.0228
 9864W        W28718   4.851  15.424   0.878 -0.1686 -0.0551 -0.3704
 9865W        W28719  11.614  14.806  13.818 -0.1346 -0.2007  0.2231
 9866W        W28720   6.562   6.552   3.099 -0.0783 -0.0086 -0.1248
 9867W        W28721  15.987  14.311   3.565  0.0673  0.2192  0.2565
 9868W        W28722   5.862   3.037  15.011 -0.2740 -0.1615 -0.2032
 9869W        W28723   7.640  17.850   4.065  0.1492  0.0164 -0.0522
 9870W        W28724   9.795  16.334  14.983  0.2224 -0.1345 -0.1696
 9871W        W28725   3.000   1.065   4.415 -0.0673  0.0030  0.2013
 9872W        W28726  10.165  16.053   3.336 -0.1198  0.2658 -0.0444
 9873W        W28727  11.441   4.287   2.184  0.2539  0.2357 -0.1291
 9874W        W28728  12.676  16.376   2.370 -0.2005 -0.1791  0.1852
 9875W        W28729   8.936  15.321  11.179 -0.0067 -0.2076  0.0876
 9876W        W28730   2.790  14.720  14.192 -0.0607  0.0726  0.3099
 9877W        W28731  16.472  17.183  14.987  0.1485  0.2497 -0.1310
 9878W        W28732  17.811   5.169   3.907  0.2775  0.1820 -0.0774
 9879W        W28733  15.692   6.483  12.416 -0.0931 -0.1378 -0.0038
 9880W        W28734  12.502   0.547   1.976 -0.2018 -0.5640 -0.1247
 9881W        W28735  13.894   5.886  12.889  0.2734  0.2096  0.0203
 9882W        W28736   0.330   8.223   3.388  0.0936  0.1847  0.1828
 9883W        W28737   0.863   6.001  15.203 -0.1684  0.0731 -0.1416
 9884W        W28738   5.950  14.610   2.408  0.1162  0.0239 -0.1454
 9885W        W28739  16.639  16.977  14.034 -0.3479  0.2802 -0.3195
 9886W        W28740   0.537   4.331   0.575 -0.1376  0.0626  0.0481
 9887W        W28741   6.537  11.015   1.381 -0.1977  0.0630  0.0513
 9888W        W28742  15.906  10.896  15.631 -0.0755 -0.0614 -0.0846
 9889W        W28743  15.543  14.873   2.445 -0.1002 -0.0300 -0.1052
 9890W        W28744  12.187   3.752   3.144 -0.3501 -0.2700  0.0414
 9891W        W28745  13.273  16.586  13.240  0.2102  0.0459 -0.2178
 9892W        W28746   5.962  15.979  16.193 -0.0814  0.0898  0.0188
 9893W        W28747   3.068   0.333  15.008 -0.1176  0.2361 -0.3098
 9894W        W28748   7.702   5.498  15.684  0.0937 -0.1500 -0.3635
 9895W        W28749  12.788  11.582  11.562  0.0096  0.0038  0.3082
 9896W        W28750   0.435   1.370   3.437 -0.1268  0.2343  0.1962
 9897W        W28751  15.561   9.878   2.595 -0.1010  0.0664  0.1101
 9898W        W28752   3.668  15.451  14.975  0.0096 -0.1234  0.0342
 9899W        W28753  10.241  10.626  12.433  0.2169  0.0250  0.1177
 9900W        W28754   7.226  11.462  14.681  0.1157  0.0653 -0.1132
 9901W        W28755   6.999   0.382   2.054 -0.0967  0.0429  0.0429
 9902W        W28756  12.008   1.268  14.683  0.1516  0.2560 -0.0633
 9903W        W28757   1.170   4.413   2.464 -0.2024 -0.2511  0.1274
 9904W        W28758  18.031  16.212  12.958  0.0263  0.1758 -0.0959
 9905W        W28759   2.632  14.391   5.622 -0.0067 -0.3939  0.2142
 9906W        W28760  17.564   5.912   1.022  0.2185 -0.1964  0.0260
 9907W        W28761  17.401  14.085   1.372  0.2587 -0.1257  0.2483
 9908W        W28762   0.759   5.260   3.828 -0.2774 -0.2028  0.0200
 9909W        W28763   4.288   6.580  13.327 -0.0332 -0.2643 -0.3450
 9910W        W28764  13.113   1.148   3.502  0.3633 -0.2276  0.1364
 9911W        W28765  14.980   2.158   3.852  0.1566  0.2588 -0.5140
 9912W        W28766  14.098   5.038   0.585 -0.1292  0.3470 -0.1333
 9913W        W28767   4.572  16.647  14.671 -0.3674  0.1115 -0.1280
 9914W        W28768  10.058  16.746   2.399 -0.0605 -0.0054 -0.0659
 9915W        W28769  16.255   7.003   3.599  0.0836  0.1134 -0.0710
 9916W        W28770   9.921   0.553   2.306  0.1042 -0.2326  0.1221
 9917W        W28771   8.176   9.503  11.559 -0.2800  0.1080  0.0983
 9918W        W28772  17.989  11.145  11.950  0.2372 -0.1449  0.1068
 9919W        W28773  14.778   9.752  13.671 -0.2553 -0.2240 -0.1192
 9920W        W28774  17.225  12.257   1.487 -0.3308 -0.0877 -0.2825
 9921W        W28775   1.840   3.110   2.563 -0.2775 -0.2361  0.0025
 9922W        W28776   5.200  13.596   3.727  0.0178 -0.1689  0.1810
 9923W        W28777  11.151   8.625   1.215 -0.0167 -0.0803 -0.0026
 9924W        W28778   6.099   6.457  14.302 -0.3830 -0.1837 -0.1287
 9925W        W28779  14.649   0.056   0.200  0.0591  0.1376  0.0214
 9926W        W28780   7.393  17.906  12.064 -0.2988 -0.0734  0.1949
 9927W        W28781   6.719   4.759  13.791  0.1947  0.0879 -0.1079
 9928W        W28782   2.212   8.770  15.378  0.0358 -0.5103 -0.1197
 9929W        W28783   8.181   5.325  15.508  0.0557 -0.0369  0.0320
 9930W        W28784   9.243  13.779  15.023 -0.0218 -0.1120 -0.2412
 9931W        W28785  13.074   3.197  11.573  0.0746 -0.0138 -0.0785
 9932W        W28786  14.744  12.720   3.546 -0.1259 -0.2163 -0.0295
 9933W        W28787  12.630  10.645  15.948 -0.1687 -0.1111  0.1760
 9934W        W28788  17.722  13.560  12.582  0.4147 -0.1385 -0.1757
 9935W        W28789   9.126   6.381  14.643 -0.1332  0.0694  0.0853
 9936W        W28790   4.938   0.228   1.636 -0.0288 -0.1809 -0.1113
 9937W        W28791  17.462   1.640  11.517 -0.2609 -0.1184  0.2777
 9938W        W28792   1.862  10.150  14.051  0.1959  0.2470 -0.0857
 9939W        W28793   4.609   0.239   2.509  0.4516 -0.1252  0.0790
 9940W        W28794   1.046   8.224  14.800  0.0991  0.0316  0.0383
 9941W        W28795  11.459   8.318   2.761 -0.0463  0.1672  0.2981
 9942W        W28796  16.711   3.597   1.634 -0.0809  0.3180 -0.1811
 9943W        W28797   3.932   1.636   0.857  0.2254 -0.2526 -0.2141
 9944W        W28798  13.869  15.092   4.390 -0.0532 -0.1128 -0.0660
 9945W        W28799   4.492  12.117   4.212 -0.1395  0.0425  0.0081
 9946W        W28800   2.237   4.231  12.668  0.1831  0.0923  0.2994
 9947W        W28801   4.392  16.074   3.835 -0.2360 -0.0632  0.0327
 9948W        W28802  17.002  11.661  12.168 -0.1285 -0.1433 -0.1112
 9949W        W28803   6.776  14.631   1.679  0.1203  0.2948 -0.0045
 9950W        W28804   6.271  15.645   0.718  0.1111 -0.0928  0.2459
 9951W        W28805   0.935   4.491   2.912 -0.0753  0.0060  0.0337
 9952W        W28806   5.142   6.311   1.040  0.2495  0.3927  0.1172
 9953W        W28807   3.955   6.290   0.827 -0.2816 -0.1348 -0.0533
 9954W        W28808  10.245   8.157  14.175  0.0294  0.0556 -0.1151
 9955W        W28809   7.800  13.967  15.215 -0.1316 -0.2157  0.0228
 9956W        W28810   4.031  10.829   1.442  0.1135  0.0269  0.1491
 9957W        W28811   5.850  10.816   2.900 -0.0467 -0.0815  0.2224
 9958W        W28812  15.553   7.847  14.027 -0.1054 -0.1922  0.2065
 9959W        W28813  17.932   8.180  14.113  0.1739 -0.1829 -0.2895
 9960W        W28814   6.726  16.014  11.587  0.0100 -0.3670  0.1895
 9961W        W28815  12.807   2.778   1.013 -0.1631  0.0705  0.4125
 9962W        W28816   0.968  16.723  14.739 -0.0316  0.4852  0.1615
 9963W        W28817   7.283  14.867  11.708  0.2594  0.0163  0.1331
 9964W        W28818  14.833  17.895   2.541 -0.2213  0.0168 -0.1563
 9965W        W28819   7.382   2.892   3.091  0.1959 -0.1279  0.0822
 9966W        W28820  10.308  14.741  14.668 -0.0697 -0.0401  0.1165
 9967W        W28821   3.433   6.552   4.129  0.1962 -0.4233 -0.0468
 9968W        W28822   2.765  15.855   3.615 -0.0881  0.1775  0.2787
 9969W        W28823  15.273  12.007   0.154  0.2738  0.0481 -0.1699
 9970W        W28824   9.359   4.679   4.301 -0.1937  0.0327 -0.1754
 9971W        W28825  12.662  14.067  12.862 -0.2017  0.4206  0.1633
 9972W        W28826  17.140   5.905   4.160  0.2484  0.1475 -0.3242
 9973W        W28827   5.602   2.575  12.952  0.0382  0.2573 -0.3873
 9974W        W28828   3.242   5.031  16.211  0.0446  0.3723  0.0203
 9975W        W28829   4.287  10.969   4.364  0.1589 -0.1185  0.1294
 9976W        W28830   0.085  14.395  14.295  0.2480  0.1397 -0.2121
 9977W        W28831  14.232  18.028  12.325  0.0563  0.0719 -0.0528
 9978W        W28832   3.675   3.253  15.059 -0.2215 -0.0904  0.1423
 9979W        W28833  16.970   8.695   3.524  0.3545  0.2155 -0.0677
 9980W        W28834  14.689   4.117  16.020  0.2018 -0.2408  0.0214
 9981W        W28835   4.585   8.745  11.656  0.0099 -0.1706 -0.2030
 9982W        W28836   8.469   0.254   4.401 -0.2229  0.2591 -0.0992
 9983W        W28837   6.169  11.475  16.211 -0.0082 -0.3818 -0.0225
 9984W        W28838  10.790   9.356   2.345  0.0484 -0.2810  0.0579
 9985W        W28839   5.202   3.797   3.921  0.0729 -0.1902 -0.3385
 9986W        W28840  13.852   1.302  14.166 -0.1335 -0.0436 -0.1442
 9987W        W28841  11.686  14.452   2.985 -0.0469  0.1570 -0.0898
 9988W        W28842   8.519   3.858   1.926  0.1182 -0.0889  0.1508
 9989W        W28843   9.326   1.177   1.238  0.1452 -0.1529  0.2687
 9990W        W28844  14.422   9.381  13.793  0.0606  0.1140  0.0234
 9991W        W28845  16.950  11.560   0.946 -0.3497  0.0337 -0.2782
 9992W        W28846   3.159   9.923   4.511 -0.0988 -0.0070  0.1159
 9993W        W28847   0.957  17.431   4.479 -0.0200  0.2217 -0.5394
 9994W        W28848  10.562   0.225  12.463  0.2372  0.3210 -0.1369
 9995W        W28849  14.513   6.984   0.213  0.0455 -0.3740 -0.0777
 9996W        W28850  17.164   3.494  16.028 -0.1066 -0.1224  0.0891
 9997W        W28851   4.490  12.752   2.312  0.0083  0.1592 -0.2237
 9998W        W28852   7.073  10.368  13.090 -0.0558 -0.3457  0.2004
 9999W        W28853  17.596   4.719   2.759  0.0986  0.1714 -0.2105
10000W        W28854  14.688  13.725   2.418  0.1080  0.0440 -0.0614
10001W        W28855   7.865   7.186   0.481 -0.0221  0.0175  0.0734
10002W        W28856   2.480   2.963  11.535  0.1433 -0.0370 -0.0704
10003W        W28857   9.460   5.113   4.550  0.3147  0.1425  0.1609
10004W        W28858  16.049   5.528   2.242 -0.1829 -0.1249 -0.2258
10005W        W28859  12.643  10.159  13.199  0.1355 -0.1208 -0.1323
10006W        W28860   0.995  10.271   2.135 -0.2434 -0.0386 -0.2449
10007W        W28861   2.513  16.229   3.827 -0.0765 -0.0896  0.0200
10008W        W28862  11.556  15.897   2.131 -0.0045  0.2192  0.1770
10009W        W28863   9.950   0.669  11.695  0.2347  0.0957 -0.2925
10010W        W28864  15.660  14.395   5.394  0.0750  0.1912 -0.1152
10011W        W28865  10.879  11.280   2.693 -0.0494  0.0554 -0.0271
10012W        W28866  10.234  11.559  13.319 -0.0067  0.1174 -0.2754
10013W        W28867   5.493  14.451  16.138  0.1980  0.2287  0.4681
10014W        W28868   8.980   2.183   3.195  0.3201  0.1388  0.0187
10015W        W28869   2.492  12.322  11.525  0.0712 -0.1275  0.1918
10016W        W28870  14.525   7.378  11.361  0.1652  0.0463 -0.1310
10017W        W28871  11.894  17.541   4.705 -0.1338  0.0410 -0.0714
10018W        W28872  10.972  13.267  13.248  0.0859  0.1454  0.0122
10019W        W28873  11.572  12.697  13.053  0.2263  0.1977  0.0142
10020W        W28874   8.532   0.221  13.170  0.2587  0.1683  0.2403
10021W        W28875   7.726  10.161  12.522 -0.2338 -0.0103 -0.0449
10022W        W28876  17.789   7.157  14.041 -0.5024  0.0795  0.0932
10023W        W28877  16.926   5.764   4.691 -0.4617 -0.2242  0.1586
10024W        W28878   9.770  14.763  15.834  0.2395 -0.1086 -0.1363
10025W        W28879  10.216   0.320  15.661 -0.1295 -0.1285  0.1773
10026W        W28880  17.074   0.343   2.480  0.2186 -0.2077  0.1652
10027W        W28881  11.974  16.976  13.798 -0.0309 -0.1086 -0.0218
10028W        W28882   4.625  14.136   3.244 -0.0813 -0.1345 -0.3554
10029W        W28883   5.126   9.917  13.063 -0.2526 -0.1798 -0.4376
10030W        W28884   2.645   5.847   0.887  0.1146  0.1217  0.2065
10031W        W28885  14.243   1.605  13.298  0.1363 -0.1696 -0.2925
10032W        W28886   3.829   9.564   1.293  0.1910  0.1960  0.2097
10033W        W28887   6.275   6.008   1.551 -0.0531 -0.2050 -0.0284
10034W        W28888   0.243   2.074   1.598 -0.0625 -0.0409 -0.1373
10035W        W28889   0.327   6.416  14.482 -0.0890 -0.1506 -0.1434
10036W        W28890   6.970  10.768  10.582 -0.0219  0.0440  0.1439
10037W        W28891  10.221   8.959  12.183 -0.1609 -0.2449 -0.2945
10038W        W28892  15.260   0.778  11.410 -0.1557 -0.4851 -0.0340
10039W        W28893  15.212  14.231   1.274  0.0075  0.1524 -0.2850
10040W        W28894  13.867  17.915  16.133  0.0716  0.0157 -0.0599
10041W        W28895  17.401  13.636   2.480  0.1966 -0.2079 -0.2041
10042W        W28896  11.041   2.165   2.726 -0.1472  0.1345 -0.2974
10043W        W28897  12.376   7.005   2.435 -0.0630  0.0236 -0.4371
10044W        W28898  11.077   0.494  15.514 -0.2755  0.0638  0.0661
10045W        W28899   6.989   8.090   2.984  0.2833  0.2612  0.0252
10046W        W28900   4.291  13.657   1.742  0.0417  0.0322 -0.0273
10047W        W28901   2.594   4.505  12.864 -0.1506 -0.2397  0.1364
10048W        W28902   3.732  14.241   4.958 -0.1987 -0.2234  0.2991
10049W        W28903  12.175   1.659   4.653 -0.1468 -0.1815 -0.1882
10050W        W28904  12.517   0.257   2.425  0.1154  0.0177  0.0450
10051W        W28905   1.496   1.908   1.505 -0.1184  0.0824  0.1119
10052W        W28906   0.155  13.501  11.348  0.0354 -0.3170 -0.0573
10053W        W28907  11.913  14.743   4.913 -0.3538  0.1353 -0.1417
10054W        W28908  14.265  12.866  13.513 -0.1815 -0.1899 -0.1302
10055W        W28909  13.775  12.550   1.936 -0.2550  0.0306  0.1102
10056W        W28910   9.094   3.390   2.567  0.1943 -0.1084  0.1067
10057W        W28911   1.133   0.900  11.588  0.2183 -0.2056  0.1347
10058W        W28912  18.004   0.327  13.054 -0.2359 -0.0656  0.2558
10059W        W28913  10.023   4.042   0.269  0.4814  0.2164 -0.1552
10060W        W28914  15.423   5.247  11.124  0.1520  0.0673  0.3070
10061W        W28915  12.625   0.533   4.106 -0.0858  0.2508 -0.0147
10062W        W28916  16.412  14.931  14.512 -0.0878 -0.0989 -0.0922
10063W        W28917  11.863  13.797  12.210  0.0758 -0.4260  0.5027
10064W        W28918  13.281   8.881   2.767  0.3164 -0.1107  0.0106
10065W        W28919  11.086  13.697  11.598  0.1316 -0.0408  0.0527
10066W        W28920   8.469  15.193   3.119  0.0446 -0.0066  0.1733
10067W        W28921  11.613  17.828   3.898 -0.0454  0.1017  0.0958
10068W        W28922   4.926  13.472  12.043 -0.0235 -0.1108  0.3049
10069W        W28923   9.146  10.527   2.863 -0.3219 -0.0612  0.0608
10070W        W28924   1.465  14.538  13.009  0.1214 -0.2805 -0.1022
10071W        W28925   0.121  11.076   3.075  0.0464  0.5615  0.0811
10072W        W28926   0.097  17.242  11.199  0.1624 -0.2271  0.0934
10073W        W28927   8.819  13.119   4.353  0.2609 -0.3983  0.1252
10074W        W28928  12.858  17.308   5.412  0.2893 -0.0416  0.0788
10075W        W28929  13.298  17.899   4.317 -0.1195  0.1946 -0.0582
10076W        W28930  14.742   5.205  13.970 -0.1421  0.0130  0.0996
10077W        W28931  12.148   5.926  12.746 -0.0229 -0.0527  0.1581
10078W        W28932   1.406  13.402  14.558  0.0617  0.0692 -0.1853
10079W        W28933   7.467   1.484   2.443  0.0933  0.0238  0.3861
10080W        W28934  12.802   5.001  14.028 -0.1037 -0.0171  0.0023
10081W        W28935  13.669   3.363  12.050  0.3462  0.0314  0.0896
10082W        W28936   6.416  13.025   2.605 -0.1121 -0.0457 -0.3216
10083W        W28937  11.521   5.119   4.214 -0.2166  0.0811 -0.0945
10084W        W28938  15.647  17.344   2.773 -0.0816 -0.2422 -0.1098
10085W        W28939   0.797   4.089   2.623 -0.1126 -0.1350  0.1697
10086W        W28940   0.222   1.127  16.175  0.0309  0.2672  0.1882
10087W        W28941  14.547   1.587   2.489 -0.0987  0.1869 -0.0122
10088W        W28942  17.667  11.496  14.528  0.0236  0.0105  0.2658
10089W        W28943  10.213  13.459  10.403  0.0746 -0.1393  0.1538
10090W        W28944  16.206  16.969   0.470  0.2738 -0.0368  0.0192
10091W        W28945   9.733  17.631   4.042  0.2010  0.0282  0.2079
10092W        W28946   1.953   0.895  12.787  0.1230  0.0524 -0.1398
10093W        W28947   0.036   5.123  12.633  0.2069  0.1665 -0.0822
10094W        W28948   9.293  12.366  11.833 -0.0494 -0.0042 -0.0844
10095W        W28949  10.594  13.529  14.560  0.4683  0.1103 -0.1271
10096W        W28950  14.803   6.685  13.278  0.0668 -0.0454 -0.0063
10097W        W28951  15.054   0.823   1.502 -0.0400  0.2327  0.2173
10098W        W28952   2.375   2.208   1.681  0.1781  0.3681 -0.0557
10099W        W28953   1.315  11.789   0.994  0.0511 -0.1148 -0.3513
10100W        W28954   5.045  17.015  12.352  0.2495  0.0577 -0.0040
10101W        W28955   3.083   2.984   3.671 -0.2295  0.0533  0.0438
10102W        W28956   0.337   2.294   2.808 -0.1630 -0.1498  0.0491
10103W        W28957  16.973  13.374  13.921  0.1261  0.1039 -0.3996
10104W        W28958   3.296   3.196   1.075 -0.1546  0.1106  0.3746
10105W        W28959  14.970   2.208  14.687 -0.2639 -0.4028 -0.0369
10106W        W28960  14.863  14.380   0.890  0.1946 -0.0740  0.0560
10107W        W28961   9.498   3.253   2.146 -0.0592  0.0889 -0.0633
10108W        W28962  14.173   0.761  13.983 -0.1027  0.2282 -0.2003
10109W        W28963   0.833   1.507  12.473 -0.2110  0.0332 -0.0228
10110W        W28964  15.718   2.708   1.662  0.3462 -0.0577 -0.0892
10111W        W28965  17.793  12.799   2.381 -0.0163 -0.0128  0.3343
10112W        W28966   9.570  17.571   1.564 -0.3983 -0.0647 -0.0291
10113W        W28967  10.466  16.937   4.771  0.1190 -0.2801  0.0983
10114W        W28968   7.642   0.934   3.298 -0.2108 -0.3787 -0.1702
10115W        W28969   4.073   8.693   1.690  0.0567  0.0874 -0.0072
10116W        W28970   4.147  14.229   0.407 -0.0928  0.3479  0.0323
10117W        W28971   5.731   7.379   3.656 -0.1019  0.1727 -0.0000
10118W        W28972  12.660  11.947  13.606  0.2024 -0.0830  0.1726
10119W        W28973   4.651  14.160   1.753 -0.0808  0.0269 -0.0131
10120W        W28974  16.255   0.401   1.294  0.0714 -0.1284 -0.0740
10121W        W28975   0.158   3.037   3.918 -0.2066  0.0649 -0.1297
10122W        W28976  17.005   1.372  14.983 -0.0472  0.1735 -0.2352
10123W        W28977   7.291   9.612  16.221  0.1261  0.2204  0.0312
10124W        W28978  13.023   5.439  13.767  0.0139  0.3185  0.1137
10125W        W28979  15.125   7.886   3.909 -0.2828 -0.1198 -0.4027
10126W        W28980  10.160  12.801  12.001  0.4334 -0.0828 -0.1779
10127W        W28981  14.053   6.876   3.029 -0.1158 -0.1075 -0.1599
10128W        W28982  18.019   0.064   0.078  0.1403  0.2873  0.0802
10129W        W28983   0.813  10.651  12.632  0.2256  0.0663 -0.0310
10130W        W28984   0.391  11.819  14.874  0.1538  0.2010 -0.1268
10131W        W28985  17.049   3.190   2.786 -0.0037 -0.1005 -0.1724
10132W        W28986   7.191   7.425  12.107  0.1378  0.1779 -0.0065
10133W        W28987   4.047   3.414   4.050 -0.0808  0.0092 -0.2187
10134W        W28988   8.755  14.377  13.187 -0.0461  0.0587  0.3508
10135W        W28989  12.327   1.099   2.534 -0.3466 -0.1765  0.0813
10136W        W28990  11.334   2.042   3.521 -0.1021  0.0196 -0.0538
10137W        W28991   6.865   4.308   2.615  0.1000  0.0912 -0.1922
10138W        W28992   4.421   2.211   5.286 -0.2587 -0.3393 -0.2315
10139W        W28993  14.230  16.598   2.963  0.2611 -0.0447  0.4570
10140W        W28994  15.976   1.492   0.832  0.1053 -0.2360 -0.0917
10141W        W28995  12.229  10.882   0.666 -0.0838 -0.0740  0.1819
10142W        W28996   7.027  12.481  13.562  0.0006  0.0867  0.3458
10143W        W28997   2.730  15.583  13.608  0.0246 -0.1045  0.1273
10144W        W28998   4.253  15.325  14.089  0.1570 -0.0425  0.0526
10145W        W28999   1.285   5.252   3.949 -0.0435  0.0667  0.2382
10146W        W29000   5.593  16.245  15.705  0.5219 -0.3109 -0.1318
10147W        W29001  10.156   9.645  16.218 -0.1534  0.1433  0.1505
10148W        W29002  11.662   0.287  11.568  0.1345  0.0095  0.1572
10149W        W29003   8.647   0.051  14.370 -0.1135  0.0905 -0.0409
10150W        W29004  10.638  10.563   3.459 -0.0307  0.2023 -0.0756
10151W        W29005  14.829  15.474  15.021 -0.0587 -0.1116  0.1073
10152W        W29006  16.739   6.553  11.322 -0.2554  0.1579  0.2466
10153W        W29007  16.678   3.628   2.117  0.2387  0.2098 -0.0257
10154W        W29008   0.804   0.557   0.322 -0.1877 -0.1422 -0.0566
10155W        W29009   6.220   4.835  12.677 -0.0292 -0.2761  0.1367
10156W        W29010   0.580  14.192  15.293 -0.0332  0.1234  0.1060
10157W        W29011   8.108  12.450  11.939 -0.2027  0.0076 -0.1948
10158W        W29012   1.618   0.495   1.549  0.1960 -0.0663  0.1189
10159W        W29013   7.062   9.399   2.290  0.0590 -0.2669  0.0753
10160W        W29014   6.620  13.375   5.709  0.0316  0.1032 -0.1058
10161W        W29015   9.043  12.244   4.467 -0.1464 -0.0493 -0.2397
10162W        W29016  11.275  16.579  14.834  0.0444 -0.0941 -0.2332
10163W        W29017   5.698  11.179  14.957  0.0834  0.0554 -0.1985
10164W        W29018   6.043  13.849   4.389  0.0384 -0.0039 -0.0315
10165W        W29019  14.049   4.202   3.242 -0.3497 -0.1297 -0.1312
10166W        W29020  12.725  16.998  15.406  0.0001  0.0302 -0.0106
10167W        W29021   6.274   3.697  13.295  0.0900 -0.0245 -0.0079
10168W        W29022   0.420  15.606  11.855  0.2990 -0.0473  0.1939
10169W        W29023   0.733  12.390   3.099 -0.1140  0.0511  0.3894
10170W        W29024  14.762  14.030  12.683 -0.0705 -0.1895  0.2186
10171W        W29025   6.134  13.520  13.722 -0.2742 -0.0001  0.1618
10172W        W29026  16.433  14.299  15.068 -0.2153 -0.0526  0.0872
10173W        W29027  10.373  13.089   1.789  0.0676 -0.3107 -0.0376
10174W        W29028  12.902   4.039   2.378  0.3248 -0.0943 -0.2324
10175W        W29029  17.808   9.678   0.379 -0.0551 -0.1082 -0.3213
10176W        W29030   0.971  16.185   3.388  0.0651 -0.0199 -0.0044
10177W        W29031  10.958  14.391   0.460  0.0115  0.0387 -0.2415
10178W        W29032   7.457  13.264  13.902 -0.0290 -0.0627 -0.1544
10179W        W29033   2.251   1.592   1.151  0.2615  0.0873  0.1380
10180W        W29034   5.642   8.693  10.578 -0.1622 -0.0810 -0.0513
10181W        W29035   6.677   7.191  11.984  0.2518  0.2555  0.1378
10182W        W29036  10.695  15.965  12.164 -0.0581 -0.1506  0.2867
10183W        W29037   3.705   4.736  12.176 -0.2092 -0.0084 -0.0035
10184W        W29038   4.534  12.966   0.655 -0.3137  0.2366  0.1328
10185W        W29039  14.647  15.375  11.798  0.2662  0.2339 -0.1031
10186W        W29040  15.502   4.664   0.132 -0.1217  0.1156 -0.4039
10187W        W29041   1.597  15.172   0.368 -0.0838 -0.1833  0.3699
10188W        W29042   1.766   5.423   3.905 -0.3031  0.0537  0.1053
10189W        W29043  18.010   4.996   1.374 -0.0332 -0.0912 -0.0750
10190W        W29044  12.448   4.374   0.334  0.2794 -0.1514  0.0615
10191W        W29045  11.436  14.413  13.534 -0.0525  0.3322  0.0156
10192W        W29046  16.050  16.609  15.260 -0.1778  0.0294  0.1353
10193W        W29047   2.453   2.421   0.720 -0.0563  0.1546  0.0731
10194W        W29048   3.166   0.680  14.628 -0.0190  0.1524 -0.1325
10195W        W29049   3.062   6.667  14.720  0.0163  0.2016  0.0836
10196W        W29050   6.286   2.953  14.163  0.3198  0.0239  0.0577
10197W        W29051  16.631  15.628   1.786 -0.0267 -0.1806 -0.0210
10198W        W29052   4.208   6.089   3.050  0.1963  0.2070  0.1345
10199W        W29053   1.666  12.635   1.923 -0.0277  0.1120  0.2229
10200W        W29054   6.805  16.849  14.668  0.0956  0.1053 -0.0355
10201W        W29055  11.436   8.966  15.622  0.1494 -0.0750 -0.0087
10202W        W29056  10.606   6.639  12.059  0.3187  0.0267 -0.0597
10203W        W29057  13.860  15.937   5.985  0.1729 -0.1823  0.0459
10204W        W29058   3.781  15.169  11.837  0.2420 -0.1071  0.3476
10205W        W29059   0.295   8.415   1.924  0.0151 -0.2212 -0.0509
10206W        W29060  10.395   7.003  15.411 -0.0453  0.2885  0.0130
10207W        W29061  13.795  12.098   1.725  0.1079 -0.0704 -0.1876
10208W        W29062  15.796   2.404  11.683  0.1504 -0.0773 -0.3462
10209W        W29063  17.974  17.364   4.768 -0.2431 -0.3590  0.2191
10210W        W29064  12.822  14.011   4.508 -0.2149  0.2327  0.2549
10211W        W29065   7.573  15.959   4.594 -0.1370 -0.0149  0.0409
10212W        W29066  13.137  14.181   3.201  0.1208 -0.3748  0.1731
10213W        W29067   9.133  13.895  12.812 -0.1155 -0.0790  0.0257
10214W        W29068  14.796   7.757   1.943 -0.2319 -0.4571 -0.0807
10215W        W29069  14.791   1.308  12.664  0.2707 -0.1117 -0.1251
10216W        W29070  16.701   2.746  11.256  0.0621  0.0350  0.0015
10217W        W29071   7.392   2.039   4.139 -0.1731 -0.0630 -0.0151
10218W        W29072  15.408  15.761  15.621  0.1736  0.0917 -0.2381
10219W        W29073  14.627   3.818  13.389  0.0684  0.1801  0.0816
10220W        W29074  13.932  17.513   1.114 -0.2306 -0.0020  0.1164
10221W        W29075  14.989  11.970   1.694 -0.2613  0.0541 -0.1796
10222W        W29076   9.936  17.294   2.312 -0.0693  0.2556 -0.1833
10223W        W29077   5.176  17.261   1.599  0.0090  0.0506 -0.0007
10224W        W29078  15.391  12.531  15.072  0.1508  0.1195 -0.0413
10225W        W29079   3.583   1.165  14.887  0.2527 -0.0475  0.0277
10226W        W29080  16.646   9.180   9.902  0.2062  0.3369 -0.1202
10227W        W29081   4.383  14.811   3.733 -0.1033  0.0964  0.1394
10228W        W29082   3.454   9.402   2.652  0.1400  0.1581  0.0678
10229W        W29083  10.645  16.754   3.102 -0.0397  0.1883 -0.1799
10230W        W29084  14.612   4.389   4.657 -0.0035  0.0504 -0.0856
10231W        W29085  14.236   2.609   3.743 -0.0681  0.1419  0.1116
10232W        W29086  13.426  16.931  14.768  0.2111 -0.0039  0.1038
10233W        W29087   7.644   8.900  14.060 -0.2611  0.0336  0.0654
10234W        W29088   7.153   2.536   2.823 -0.2648 -0.2992 -0.1805
10235W        W29089   0.062  15.641  13.081 -0.2174 -0.1665 -0.1290
10236W        W29090   9.305  10.442  10.777 -0.0998 -0.0139  0.1500
10237W        W29091  13.783  12.683   0.314  0.1411 -0.0200  0.0280
10238W        W29092  12.130   3.657  15.929  0.1585  0.1310 -0.0514
10239W        W29093   0.174   7.321   3.530 -0.0797  0.1743 -0.3041
10240W        W29094   0.993  17.272  14.414 -0.0087  0.3135  0.1355
10241W        W29095   2.920   8.110   3.101  0.0819 -0.2906 -0.1124
10242W        W29096   8.283  17.815   1.603  0.1074 -0.0462  0.3678
10243W        W29097   0.466   6.877  12.340  0.0930 -0.0807 -0.2867
10244W        W29098  17.063  16.611  12.088 -0.1778  0.2163 -0.0915
10245W        W29099   9.348  17.681   4.854 -0.1651  0.0960 -0.2360
10246W        W29100   9.206   9.193   3.853 -0.2331  0.1013 -0.0705
10247W        W29101  13.266  15.501  16.109 -0.0344  0.1869 -0.1348
10248W        W29102  10.818   1.974  12.806  0.3270  0.3631  0.1213
10249W        W29103  13.824  11.125   2.186  0.0636  0.1629  0.1525
10250W        W29104  11.766   1.431   4.737  0.0119 -0.1006  0.1230
10251W        W29105  11.404   6.415   1.622  0.0833  0.0875 -0.1087
10252W        W29106  12.237  13.920  14.354  0.1493  0.1655 -0.0711
10253W        W29107  14.173   4.789  12.242  0.2355  0.0977  0.0419
10254W        W29108   2.316  11.884   1.737 -0.0553 -0.1557  0.0008
10255W        W29109   0.154   7.691  14.667  0.0800  0.1390  0.0812
10256W        W29110  11.501  16.638   0.776 -0.2068  0.0696 -0.0697
10257W        W29111   4.949  13.035  12.868  0.0322  0.2990  0.2935
10258W        W29112   2.760   2.279   2.133  0.0777  0.1073  0.0793
10259W        W29113   9.453   1.106  12.721 -0.0709 -0.2278 -0.0293
10260W        W29114  10.786  14.988   1.245 -0.2509 -0.0812 -0.0232
10261W        W29115   3.012   5.993   2.204 -0.0867 -0.1377  0.1212
10262W        W29116  15.536  11.072  11.494  0.2587  0.0811 -0.1425
10263W        W29117   2.130  12.452   0.737  0.0928  0.0543 -0.1831
10264W        W29118  15.841   9.646  15.997 -0.0215  0.1823 -0.3357
10265W        W29119  14.562   2.987  11.839  0.1658 -0.0282 -0.0224
10266W        W29120   0.022   0.990   0.910 -0.2217 -0.0965 -0.0281
10267W        W29121  13.107  16.292   4.658 -0.2602  0.1425 -0.1874
10268W        W29122   7.619   8.548   4.630  0.0123  0.1453 -0.0474
10269W        W29123  13.728  17.331   4.834 -0.1331 -0.0993 -0.0584
10270W        W29124  11.051  14.862  12.407  0.1356 -0.1443  0.0321
10271W        W29125   3.587   9.319   3.612  0.1738 -0.4998  0.1337
10272W        W29126  11.774  11.266  14.791 -0.1959 -0.0279 -0.0189
10273W        W29127  14.225   7.255   0.676  0.1440 -0.0399  0.2321
10274W        W29128   1.043   9.741  15.691 -0.0651  0.0187  0.2099
10275W        W29129   3.853   6.704   3.180  0.4110  0.1259  0.0617
10276W        W29130  16.508   6.087   1.085 -0.0791 -0.1136 -0.0851
10277W        W29131  14.297   9.229   1.311 -0.2308 -0.4317  0.0439
10278W        W29132   8.113   6.913   3.313  0.1594 -0.0984  0.1839
10279W        W29133   6.125  12.029   4.890  0.1830  0.1096 -0.0904
10280W        W29134  15.050  13.964  16.056  0.4080  0.0466 -0.0849
10281W        W29135  14.156  12.168   3.941  0.3667  0.1117 -0.2556
10282W        W29136   9.390   8.375  13.914  0.0885 -0.0517  0.1046
10283W        W29137   1.103  12.352  10.794 -0.0271 -0.3713 -0.0372
10284W        W29138  17.530  16.870  14.008 -0.2301  0.0245 -0.0433
10285W        W29139   1.696   2.403   1.373  0.3947  0.0824  0.1773
10286W        W29140  17.772   2.142   0.601  0.1870 -0.0983 -0.0766
10287W        W29141   6.796  17.428  12.066  0.0352  0.0382 -0.0537
10288W        W29142   1.088  14.408  11.901 -0.3700 -0.0271  0.1693
10289W        W29143   6.218  15.402   3.799 -0.2147  0.1352  0.0036
10290W        W29144   8.561   8.421   4.641 -0.0646  0.0661 -0.1441
10291W        W29145   9.361   5.124   2.193 -0.0348  0.3175 -0.3835
10292W        W29146   3.993  11.492   0.222 -0.0115 -0.1393  0.0134
10293W        W29147  15.576  12.177  16.053 -0.1596  0.1569 -0.1341
10294W        W29148  10.457  17.762  13.363  0.2893 -0.0321 -0.0392
10295W        W29149   8.207  16.745   4.884  0.1103 -0.2031  0.1182
10296W        W29150   2.092  17.207  13.089 -0.3512  0.0155 -0.3050
10297W        W29151   4.778   5.046   1.234 -0.1510  0.5109  0.0697
10298W        W29152  10.889   6.330  15.802  0.0361 -0.0327  0.3315
10299W        W29153  13.565   6.330  15.738 -0.0862  0.2591  0.0226
10300W        W29154   8.335   5.068   2.205 -0.0552 -0.0577 -0.1897
10301W        W29155  12.522  17.703   0.919 -0.1224  0.0819  0.2553
10302W        W29156   4.306  16.908  15.016 -0.0484  0.0706 -0.0794
10303W        W29157  16.214   7.087  11.928  0.0641  0.1822  0.2956
10304W        W29158   7.485   5.324   3.874 -0.2164  0.0790  0.1066
10305W        W29159   1.300   0.038  13.736  0.0927 -0.0731 -0.0865
10306W        W29160   2.014   5.138   0.027 -0.0062  0.0461  0.1298
10307W        W29161  16.758   6.353  14.493  0.0639  0.0338 -0.2728
10308W        W29162  11.039   3.037  10.752  0.0717  0.0352 -0.0034
10309W        W29163   8.486  11.497  15.229  0.2645  0.1937 -0.1327
10310W        W29164   1.603   3.652   2.018 -0.0823  0.1415 -0.0909
10311W        W29165  14.725   3.271  12.924  0.2128 -0.3788 -0.0048
10312W        W29166  14.366  16.080   0.421  0.1344  0.2418 -0.2461
10313W        W29167   3.070   3.621   0.859 -0.0903 -0.0522  0.2332
10314W        W29168  10.672  11.704   2.748  0.1096 -0.0610  0.0415
10315W        W29169   8.468   1.649  13.498 -0.2433 -0.1672 -0.1792
10316W        W29170   7.237   9.667   1.551  0.0449  0.1867 -0.3051
10317W        W29171  10.871  10.825  15.381  0.1326  0.0333 -0.3425
10318W        W29172   7.823  10.908  14.199 -0.2149  0.1247 -0.2981
10319W        W29173   8.785  15.918   1.458 -0.0747  0.5356  0.1924
10320W        W29174   6.524   2.736  14.619 -0.0495 -0.0184 -0.0544
10321W        W29175  14.498  13.661  13.123 -0.1963 -0.2502  0.1100
10322W        W29176   6.707   6.154  13.680 -0.0311  0.2945 -0.0009
10323W        W29177  17.734  15.487   3.956  0.2651  0.0428 -0.3982
10324W        W29178   8.495   2.419   0.951 -0.2551  0.0600  0.0537
10325W        W29179   8.405  13.880   3.544 -0.0246 -0.0487  0.0870
10326W        W29180   2.231   8.984   2.122  0.1893  0.2427 -0.0440
10327W        W29181   1.664   4.861  12.335  0.1879  0.2080 -0.1275
10328W        W29182  14.667  17.930  12.964 -0.3091  0.2134  0.1205
10329W        W29183   9.731   1.417  14.118  0.1373 -0.1273  0.2157
10330W        W29184   5.179   4.138   0.032 -0.2279 -0.0723  0.2910
10331W        W29185   5.480   7.229   0.784 -0.0824 -0.0542  0.0366
10332W        W29186   2.369   5.100  15.444 -0.0355  0.0010  0.0099
10333W        W29187   5.396   2.627  13.496 -0.0011 -0.0381 -0.1665
10334W        W29188  10.329  16.848   5.743 -0.0795  0.1390  0.0590
10335W        W29189  16.754   1.709   4.617 -0.0941 -0.1258 -0.4266
10336W        W29190  17.817   8.930   2.452 -0.1273  0.2187 -0.1938
10337W        W29191  15.612  15.684  13.851  0.0467  0.0395  0.1108
10338W        W29192   1.512  17.233  15.314 -0.3031  0.3454  0.1369
10339W        W29193  17.189  12.170  14.121 -0.1838  0.1440  0.0164
10340W        W29194   0.140   4.346   3.448  0.0215  0.1526 -0.1295
10341W        W29195  16.812   9.463  12.450 -0.1959  0.1137 -0.0799
10342W        W29196  13.713  12.425  11.741 -0.2048  0.1435  0.0203
10343W        W29197   3.008  12.255  11.469 -0.1178  0.2678  0.0993
10344W        W29198   7.345  15.377  12.837 -0.1162 -0.0879 -0.0701
10345W        W29199   1.309   9.727   2.818 -0.1553  0.0557 -0.0731
10346W        W29200   8.551   9.192  16.061 -0.0399 -0.1360 -0.4036
10347W        W29201   8.185   7.835  13.437  0.1015  0.4030  0.3508
10348W        W29202   4.938  11.892   2.315 -0.1248 -0.1673 -0.1485
10349W        W29203  15.713  14.155  12.448 -0.5067 -0.2169  0.1586
10350W        W29204  14.716   4.890   1.319 -0.0484  0.3490  0.0876
10351W        W29205   8.398  13.335  14.918 -0.0312 -0.2408 -0.2235
10352W        W29206   8.507   5.419   2.481  0.1541  0.0043  0.1083
10353W        W29207  11.903   2.204  11.206 -0.1116 -0.1132  0.0391
10354W        W29208   3.837   8.328  14.614 -0.0553  0.2241  0.0254
10355W        W29209  12.752   8.061   2.713  0.3598 -0.1998 -0.1775
10356W        W29210   1.197  15.930   0.027  0.2466  0.1844 -0.0171
10357W        W29211   0.573  13.083  14.365  0.1342  0.2237  0.0038
10358W        W29212   5.564   9.587   3.789  0.0284 -0.1728 -0.0420
10359W        W29213   8.307  15.087   1.027 -0.1416 -0.3142 -0.3932
10360W        W29214  17.030   9.210  15.028  0.2948 -0.2834  0.0062
10361W        W29215   1.678   4.239  15.583 -0.1648  0.3955 -0.0466
10362W        W29216  17.779   4.611   0.110  0.0427 -0.0623 -0.0903
10363W        W29217   5.112   1.272   4.456 -0.2580 -0.1999 -0.0238
10364W        W29218   1.069   2.901   0.390  0.0636  0.3898  0.1966
10365W        W29219   3.163  11.800   1.677 -0.1474  0.1768  0.2941
10366W        W29220   6.146   2.059  13.470 -0.1430  0.0701  0.0210
10367W        W29221   9.200  12.951  14.383 -0.0759 -0.2333 -0.1610
10368W        W29222   8.613  16.434   1.409 -0.1664 -0.0116  0.2678
10369W        W29223  14.201  16.955   4.524  0.1716  0.1109  0.1056
10370W        W29224   6.857   6.292   3.603 -0.0745 -0.2500  0.0361
10371W        W29225   5.206   3.644  11.677 -0.0867 -0.0118 -0.0937
10372W        W29226  14.389   3.304   0.355 -0.0987 -0.3802 -0.0997
10373W        W29227  13.496   3.059  14.268  0.1351  0.1947 -0.1314
10374W        W29228  15.023  16.399   1.607 -0.2667 -0.0605  0.0635
10375W        W29229  13.311  13.825  15.409  0.1632 -0.0358  0.1120
10376W        W29230  10.307   3.492  11.217 -0.0566  0.0089  0.1899
10377W        W29231   7.855  16.416   4.336  0.0720  0.0910  0.2017
10378W        W29232   3.364   3.846   4.525  0.2268  0.1575 -0.2182
10379W        W29233   7.763   0.401   3.263 -0.1303  0.1410 -0.1369
10380W        W29234   3.331  16.158  16.046 -0.0289 -0.0608  0.3733
10381W        W29235   7.119   9.587   2.759 -0.0539  0.2809  0.1299
10382W        W29236  16.885   9.708   0.636 -0.1070  0.0550 -0.0668
10383W        W29237  17.903  10.970   5.280 -0.2539 -0.1497  0.2298
10384W        W29238  17.819  15.383  15.531 -0.1840  0.5052  0.0212
10385W        W29239  13.426  16.035   2.632 -0.1677 -0.5218 -0.0636
10386W        W29240   9.065  15.229  13.331 -0.0180  0.1789  0.0395
10387W        W29241  15.671  17.433   3.805  0.0261 -0.2610  0.0878
10388W        W29242   5.175   4.450   0.734  0.0287  0.0926  0.0402
10389W        W29243   4.152   7.159   0.512  0.0027  0.1921 -0.0900
10390W        W29244   3.276   1.689  13.556  0.1653 -0.2748 -0.2935
10391W        W29245   4.235   5.313  10.474 -0.2315 -0.0640 -0.0673
10392W        W29246  16.137   6.306  14.453 -0.1986 -0.0317 -0.5747
10393W        W29247  12.988   2.048   1.329  0.1607 -0.1276 -0.0188
10394W        W29248  10.531   3.002   0.110  0.2250  0.1188 -0.1536
10395W        W29249  15.508   6.530  15.814 -0.0721  0.0919  0.3480
10396W        W29250  11.347  11.733  13.329 -0.0449 -0.0023 -0.0365
10397W        W29251  12.419  17.265   3.660 -0.3088  0.2773  0.0173
10398W        W29252   6.568   2.021  13.058 -0.0782 -0.0389  0.1826
10399W        W29253  15.728  11.229   4.267 -0.1196 -0.1844  0.0778
10400W        W29254   7.525  10.524  12.904  0.0711  0.2457  0.0749
10401W        W29255  16.205   8.593  15.118 -0.1899  0.1849  0.2016
10402W        W29256   4.601  17.075   1.380  0.2010  0.0679  0.2069
10403W        W29257  17.197  12.044   0.527  0.0066  0.1487  0.1137
10404W        W29258  14.792  12.442   4.748 -0.1553 -0.0581 -0.0486
10405W        W29259  17.117   6.444   2.337 -0.1162  0.2630  0.1729
10406W        W29260  17.016   9.234  10.273  0.4783 -0.1071  0.1184
10407W        W29261   3.979   4.592   4.567  0.3550  0.1207  0.0334
10408W        W29262   2.758   4.873  15.600 -0.0237 -0.0861 -0.3202
10409W        W29263  10.312  12.205   4.043  0.3017 -0.2499 -0.1019
10410W        W29264  16.353   5.298   1.495  0.0794  0.0122 -0.0831
10411W        W29265   5.411  14.397  11.893  0.0689 -0.2092 -0.1212
10412W        W29266   2.089   6.523   1.270  0.0022  0.0647  0.0987
10413W        W29267   1.463   5.570   0.088  0.4069 -0.0212 -0.0542
10414W        W29268  16.204  11.574  15.021  0.1526 -0.0017 -0.0003
10415W        W29269  14.811   5.200   0.275 -0.0053  0.2059  0.2008
10416W        W29270  10.563   8.772   3.102  0.5178  0.1586 -0.0576
10417W        W29271   0.877   4.951   2.668  0.1290 -0.2730  0.0140
10418W        W29272  17.853  12.003  13.045 -0.0143  0.1774 -0.2348
10419W        W29273   6.585   5.476  11.645 -0.1011  0.3469 -0.1070
10420W        W29274   9.423   5.866   2.924  0.2430  0.1640 -0.1564
10421W        W29275  16.767  15.293   3.771  0.2291 -0.2746  0.1537
10422W        W29276   7.496   9.967  15.476  0.0800  0.0749 -0.0563
10423W        W29277  15.830   6.017   2.321 -0.0121 -0.0111  0.1355
10424W        W29278  13.197   8.497  12.736 -0.3866  0.0031  0.0226
10425W        W29279  16.961   1.438   3.372 -0.0041  0.2429  0.1717
10426W        W29280   6.217   8.589  15.202 -0.2339 -0.1059  0.0397
10427W        W29281   0.896   3.997   3.934 -0.2941  0.2150  0.0930
10428W        W29282   5.915   9.454   1.781  0.2684  0.1247  0.0014
10429W        W29283  13.118  11.097  13.277  0.0864  0.4102  0.0871
10430W        W29284   8.939   5.803   3.733  0.0236 -0.1161  0.0815
10431W        W29285   4.939  15.749  12.464  0.3727  0.2397 -0.0345
10432W        W29286  14.632  13.793  11.650 -0.0517 -0.0357  0.2433
10433W        W29287   4.783  15.418   4.556 -0.1566  0.0860 -0.0238
10434W        W29288   7.679   1.129  12.261  0.0158  0.0197 -0.1344
10435W        W29289  15.692  15.190   2.091  0.2753 -0.1050 -0.2177
10436W        W29290  16.887   3.469  15.444  0.1108 -0.0692 -0.0398
10437W        W29291  10.642   3.169  11.482  0.0805  0.0025  0.2217
10438W        W29292  13.504   4.476  11.825  0.1128  0.2166 -0.2322
10439W        W29293   7.410  16.214  11.045 -0.0131 -0.0714 -0.0779
10440W        W29294   7.683  15.030   2.075 -0.1896 -0.2505  0.1713
10441W        W29295  12.382   5.699  12.243 -0.1659  0.1800  0.1502
10442W        W29296   2.775   7.171  12.144 -0.3169  0.6065  0.0027
10443W        W29297  10.208   0.321  14.406  0.2396  0.1069  0.2268
10444W        W29298   5.940   8.282  14.888  0.0927  0.0530  0.2551
10445W        W29299  11.708   3.072  12.248  0.2206 -0.2345  0.2702
10446W        W29300   4.466  16.382  12.828  0.0573  0.0382 -0.0267
10447W        W29301  12.591   4.869   4.105  0.0934 -0.2572  0.0709
10448W        W29302   9.149   8.834   3.546  0.1368 -0.0405  0.0453
10449W        W29303   6.763   5.708  14.078  0.0125  0.0858 -0.0596
10450W        W29304  12.931   5.721  15.775 -0.1145 -0.2484 -0.1725
10451W        W29305   1.175  12.301   5.271 -0.0809  0.0669  0.0399
10452W        W29306   1.841   5.447   0.424 -0.1331 -0.2210 -0.1157
10453W        W29307   2.726  15.145  15.064  0.1462  0.0398 -0.0343
10454W        W29308   6.966   9.710  12.416  0.0417  0.0379  0.0944
10455W        W29309  14.520   2.719   4.387 -0.1136  0.0974 -0.3326
10456W        W29310  13.112  10.076  15.842 -0.0693 -0.0529 -0.0817
10457W        W29311  13.487   7.123  14.081  0.2209 -0.1388 -0.0386
10458W        W29312  10.567   1.133  15.165  0.0994  0.0121 -0.2329
10459W        W29313   0.683   5.830   1.455  0.1592  0.0910  0.2449
10460W        W29314   0.563   8.429   2.950 -0.3845  0.1820  0.0918
10461W        W29315  15.963   4.922  13.684  0.1174 -0.0545 -0.0973
10462W        W29316  14.089   6.498  14.685 -0.2199 -0.0954 -0.1520
10463W        W29317  15.715  18.034   3.905  0.0955  0.2097 -0.0622
10464W        W29318   7.712   8.081  14.344  0.1001  0.1681  0.1937
10465W        W29319   0.556   3.595  15.912 -0.1716 -0.1205  0.0779
10466W        W29320  17.939  10.249  12.192  0.0923 -0.2551 -0.0436
10467W        W29321  10.316   1.007  11.625 -0.2614 -0.1627  0.2519
10468W        W29322   0.506   0.319  11.970  0.0136  0.0011 -0.2179
10469W        W29323   7.745   9.342   0.161 -0.3513  0.0241  0.2407
10470W        W29324  16.670   4.939  12.328 -0.3745  0.2801 -0.0344
10471W        W29325  10.828   2.932   1.137 -0.0211  0.0701 -0.1421
10472W        W29326   9.026  14.079   4.032 -0.0002 -0.2476 -0.1534
10473W        W29327   9.388   2.864   3.101 -0.1932 -0.1301  0.3243
10474W        W29328  13.419   4.937  12.487 -0.2280  0.1128 -0.3823
10475W        W29329   0.769   6.951  12.779 -0.0296  0.1901  0.1754
10476W        W29330  12.216  10.090   0.246 -0.1153  0.3102  0.3263
10477W        W29331   7.199  13.922   4.206 -0.0079 -0.0282  0.0711
10478W        W29332  15.709   0.017  13.624 -0.1920 -0.1872 -0.0248
10479W        W29333  11.990   6.404  13.538 -0.5074  0.1520 -0.1939
10480W        W29334  14.150   0.055  14.547 -0.1352 -0.0142 -0.0971
10481W        W29335   2.635  13.260   2.146 -0.1367  0.0578 -0.0721
10482W        W29336   9.179  17.506  12.199  0.0462  0.1317  0.2308
10483W        W29337   5.755   6.444   2.795  0.1149 -0.0288 -0.1903
10484W        W29338  14.457   9.391  15.754 -0.3545  0.0090  0.2677
10485W        W29339   4.029   3.206  14.287  0.1133  0.1250  0.2415
10486W        W29340  17.282   1.494  13.675  0.0391 -0.0954 -0.2239
10487W        W29341  15.637   8.807  12.206 -0.0502 -0.0490 -0.0938
10488W        W29342   9.921  16.882   1.231  0.0939 -0.0760 -0.0974
10489W        W29343   1.227   5.769   2.202  0.3151 -0.1602  0.0327
10490W        W29344   9.647  11.890  13.708 -0.2048  0.0013  0.1125
10491W        W29345  10.303  14.080  13.916  0.3906 -0.1891 -0.0129
10492W        W29346  10.665   7.797  15.579  0.0977  0.0180  0.1795
10493W        W29347   2.283   1.988  12.478  0.2449  0.0574  0.1834
10494W        W29348  14.802  10.478  14.359  0.3750 -0.0707  0.2709
10495W        W29349  13.929  11.019  13.918 -0.0571 -0.1587  0.0766
10496W        W29350   6.095  16.063   4.464 -0.1060  0.0732  0.1265
10497W        W29351   4.494  15.305   3.911  0.2833  0.3580 -0.1462
10498W        W29352  17.380  10.569  14.312 -0.2198  0.0269 -0.1735
10499W        W29353  17.656  12.259  15.117  0.3890  0.1230 -0.1491
10500W        W29354   5.038  17.808   2.813 -0.3248 -0.0294 -0.1338
10501W        W29355   9.196  12.571  11.413 -0.2453  0.2569  0.2402
10502W        W29356   0.518   5.781   3.264  0.0868 -0.1626 -0.0366
10503W        W29357   8.168   0.009  12.851  0.0971  0.1159 -0.0972
10504W        W29358   2.250   9.803  14.343 -0.1412 -0.1203  0.0019
10505W        W29359   2.424   5.818  13.592 -0.2321 -0.3052 -0.1675
10506W        W29360  15.823  12.694  14.881 -0.0848 -0.1219  0.1570
10507W        W29361  12.195   1.109  13.287  0.0467 -0.0406 -0.1138
10508W        W29362  11.133  14.323   4.804  0.3198 -0.2691 -0.0638
10509W        W29363   9.113  16.068  12.600  0.1161 -0.0785 -0.0518
10510W        W29364   8.592   1.685   1.612  0.0334  0.1203  0.0461
10511W        W29365   9.239  14.744  16.085  0.1106 -0.0549 -0.1406
10512W        W29366   0.460   3.355   1.968 -0.0310  0.1182 -0.0585
10513W        W29367  10.840   0.591  12.199  0.3820 -0.2817  0.2446
10514W        W29368  15.511  11.554   1.979 -0.0756 -0.2709 -0.1725
10515W        W29369   7.575  15.518   1.829  0.0073 -0.2258  0.1993
10516W        W29370   5.748  11.942   3.341  0.3059 -0.0279 -0.0498
10517W        W29371   6.000  17.562   3.570  0.0319 -0.2746 -0.2625
10518W        W29372  13.095  14.036  13.160  0.0746 -0.1833 -0.0176
10519W        W29373  13.903   2.424   2.379  0.1320  0.0384 -0.0276
10520W        W29374   5.369   3.205  15.142  0.0067 -0.0972 -0.0675
10521W        W29375   6.588  13.516  11.170  0.1429 -0.4261 -0.2477
10522W        W29376   6.594   3.319   3.030 -0.1366  0.1373  0.0911
10523W        W29377   1.921  16.064  11.816 -0.3687 -0.1065 -0.0369
10524W        W29378   1.185  12.932  11.565 -0.2174  0.0130 -0.2528
10525W        W29379   8.468   0.675   5.216  0.2649 -0.1116  0.1216
10526W        W29380  14.076  10.756  15.466 -0.0911 -0.0598  0.0826
10527W        W29381   5.344   1.093   1.239  0.1094 -0.1907 -0.0365
10528W        W29382  17.611   9.267   3.099 -0.0807 -0.1283  0.0086
10529W        W29383   7.709  12.886   4.264  0.0896  0.2469  0.0688
10530W        W29384   4.586  13.299   0.213  0.0685 -0.0890 -0.1402
10531W        W29385  10.005   5.028   0.850 -0.0019 -0.1714  0.0810
10532W        W29386   0.238  17.807   4.957  0.3106 -0.2543 -0.2509
10533W        W29387  12.806  12.556   1.138 -0.5011  0.1772  0.0125
10534W        W29388   2.187  16.679  14.190  0.0044  0.0127 -0.1764
10535W        W29389   9.761   9.453   3.210 -0.0257 -0.4177  0.0270
10536W        W29390   9.512  12.061   4.650  0.0456 -0.2710 -0.2493
10537W        W29391   9.885  11.156   2.531  0.0159 -0.4505 -0.1114
10538W        W29392  16.033  10.986  14.029 -0.1529 -0.3647  0.1641
10539W        W29393  16.147  11.681   3.450 -0.1672  0.1062 -0.1189
10540W        W29394  11.105   6.771  12.978  0.1040 -0.0806  0.2012
10541W        W29395   0.818   7.357  15.793 -0.0093  0.1434  0.1113
10542W        W29396   7.755   6.992   2.567 -0.1752  0.2416  0.2141
10543W        W29397   2.183  13.434   2.712  0.2163 -0.1065 -0.3175
10544W        W29398   4.334   0.185  14.262  0.1218  0.0040 -0.0537
10545W        W29399   7.181  14.840   3.016 -0.0909 -0.1054  0.1467
10546W        W29400  14.760   9.447  10.311  0.1531  0.4078  0.0414
10547W        W29401   1.970  11.024   3.443 -0.0744 -0.1280 -0.0695
10548W        W29402   3.137  16.724  15.284 -0.3131  0.2650  0.0498
10549W        W29403   2.209   2.336  15.991  0.0181 -0.0969  0.1227
10550W        W29404  11.245  10.815   3.380  0.3567  0.0892 -0.3822
10551W        W29405   7.848  10.979  15.662 -0.0477  0.0139  0.2150
10552W        W29406   5.354   6.506  13.287  0.0060 -0.2112 -0.0431
10553W        W29407   3.463   0.949  11.580  0.0534  0.1147 -0.1051
10554W        W29408  10.040  13.254   1.425  0.1995  0.0721 -0.0095
10555W        W29409   5.464  13.495   4.838  0.0946 -0.0514 -0.1037
10556W        W29410   7.802  13.871   3.509 -0.0725 -0.0344  0.1364
10557W        W29411   0.249   8.708  13.812  0.2541 -0.3670 -0.0276
10558W        W29412  13.681   8.078   0.806 -0.1762 -0.0289  0.0027
10559W        W29413  15.398  14.355   0.514  0.2257  0.1175 -0.1342
10560W        W29414   8.602   7.297   1.192 -0.2531 -0.0180  0.1089
10561W        W29415   5.281  13.492  13.993 -0.2500  0.4053 -0.0321
10562W        W29416   2.383   3.509   5.307 -0.3460 -0.0679 -0.0479
10563W        W29417   6.128   2.437  14.744  0.4203  0.2017 -0.1880
10564W        W29418   6.592  17.537   1.686  0.3434 -0.0312  0.0914
10565W        W29419   6.920   8.490   3.879  0.0873  0.0863 -0.2339
10566W        W29420   0.505  13.744   2.045  0.0133 -0.0466 -0.3165
10567W        W29421   1.413  15.907   3.115  0.1568  0.1789  0.1988
10568W        W29422  13.591   5.190   2.401  0.0933  0.0291  0.1956
10569W        W29423   1.920   5.860   3.656 -0.1771 -0.1452 -0.2066
10570W        W29424  14.247  17.459   4.662 -0.1912 -0.0367 -0.3622
10571W        W29425   3.612  12.841   0.898 -0.0944  0.0708 -0.2703
10572W        W29426  16.125  13.877   3.791 -0.1854 -0.3074  0.2137
10573W        W29427   9.520  15.451  13.513  0.0510 -0.0394  0.0886
10574W        W29428   8.765  17.488   0.906  0.1253 -0.0766 -0.0861
10575W        W29429   5.441   7.409   1.334 -0.1330 -0.0899 -0.0064
10576W        W29430   9.277  17.724   0.266 -0.0398  0.0697 -0.0314
10577W        W29431   4.189  11.864  15.181 -0.1768  0.1814 -0.1436
10578W        W29432   4.320   0.091  13.535  0.2677  0.1223  0.0325
10579W        W29433   1.831   9.357   0.713  0.3106 -0.1296  0.0848
10580W        W29434  11.578   3.742  15.959  0.0006  0.1079  0.3702
10581W        W29435  15.151  14.122  12.375  0.0676 -0.1611 -0.2101
10582W        W29436   8.332   3.522   2.687  0.0954 -0.1584 -0.0252
10583W        W29437   0.590   7.636   4.266  0.3142 -0.1907  0.0554
10584W        W29438   6.541  17.934  15.725 -0.4042 -0.0554 -0.0196
10585W        W29439  17.297  10.938   0.282 -0.2101 -0.0682  0.0279
10586W        W29440   5.494   8.011   0.854 -0.0311  0.0555  0.1149
10587W        W29441  16.806  17.780  10.726 -0.0295  0.1148  0.0031
10588W        W29442  11.591   2.662   3.793  0.3397 -0.0927 -0.1976
10589W        W29443  14.395   5.855  15.883 -0.1689 -0.1552  0.0678
10590W        W29444   2.966   4.194   4.387 -0.1134 -0.0173 -0.1791
10591W        W29445  15.244  10.759   1.466 -0.2484  0.0135  0.0542
10592W        W29446  13.633   6.381   0.731 -0.0599  0.0538 -0.1426
10593W        W29447   2.256  10.852   3.900  0.1343  0.0057 -0.3159
10594W        W29448   2.715  13.288  13.524 -0.0213  0.0145 -0.0034
10595W        W29449   3.472  10.540   4.247 -0.1655 -0.0731 -0.1393
10596W        W29450   2.338   1.674   4.143 -0.0176  0.0091  0.1616
10597W        W29451   8.017  13.031  14.793 -0.0927  0.0340  0.0733
10598W        W29452  15.956   7.440  11.062 -0.0005 -0.2935 -0.1199
10599W        W29453   4.500   2.946  14.350  0.0822  0.0985  0.0657
10600W        W29454  13.585   8.412  13.061  0.1247  0.1623  0.2760
10601W        W29455  12.024  15.402   4.540 -0.0823  0.0210 -0.3017
10602W        W29456   1.486  17.891   5.242  0.2854  0.1047  0.1965
10603W        W29457   2.034   0.547   1.865 -0.1507 -0.0657 -0.1219
10604W        W29458  16.859  11.976   1.280  0.0368  0.0589  0.0202
10605W        W29459   1.536   8.529  12.764 -0.1337 -0.1438 -0.1088
10606W        W29460  11.504  10.384  15.232  0.1980  0.0182  0.0266
10607W        W29461  10.371  14.478  15.085 -0.1071  0.0995 -0.3035
10608W        W29462   1.790  17.187   4.858 -0.1326  0.2336 -0.1072
10609W        W29463   7.034   1.561   3.822  0.0639 -0.0793 -0.0706
10610W        W29464   3.895   6.289  15.194 -0.0124 -0.1856 -0.1721
10611W        W29465  12.669   6.623  12.727  0.1297  0.0360 -0.0650
10612W        W29466   4.322   8.377   1.191 -0.0993 -0.0355  0.3136
10613W        W29467  10.655  11.385  11.364  0.0201  0.3229 -0.1516
10614W        W29468  17.779  10.509  13.038  0.0364 -0.1788  0.1855
10615W        W29469   3.118   2.549   1.868 -0.0624  0.4923  0.1165
10616W        W29470   3.984   9.912  16.098  0.0238 -0.3589 -0.0149
10617W        W29471  16.492  10.864  10.666  0.0117 -0.2819  0.0500
10618W        W29472  13.416   5.266   3.428 -0.0233 -0.2581 -0.0804
10619W        W29473   5.853   2.784   2.274 -0.1502 -0.0368  0.1942
10620W        W29474   9.790  11.829   3.274  0.2396 -0.3254  0.0132
10621W        W29475  14.782   9.137   1.190  0.0300  0.1300 -0.0135
10622W        W29476   6.505   0.434   5.624 -0.0577 -0.4480  0.1007
10623W        W29477  14.673   5.951  11.079 -0.0462 -0.3755 -0.3757
10624W        W29478   7.470  11.928   0.183  0.1452  0.0460 -0.1517
10625W        W29479   3.777  14.829  14.528  0.0663 -0.0057 -0.0125
10626W        W29480   4.152  16.250   1.603  0.0000 -0.1735 -0.0266
10627W        W29481   4.488   5.897  14.119 -0.0440  0.2039  0.1440
10628W        W29482   5.024  14.233   2.989 -0.0370 -0.0477  0.1458
10629W        W29483  16.104   6.132  11.227 -0.1268  0.0870 -0.1291
10630W        W29484   4.997  16.955  13.901  0.0149 -0.1129 -0.0469
10631W        W29485   7.938  17.173  14.861 -0.1712 -0.3182  0.0064
10632W        W29486   1.280   2.618   3.868  0.3512  0.1509  0.1581
10633W        W29487   9.574   7.614   3.244  0.0625 -0.1811  0.1907
10634W        W29488   1.399  16.292  13.047 -0.1787 -0.3489 -0.1563
10635W        W29489   0.204  16.612   1.922  0.1709  0.1517 -0.1927
10636W        W29490   4.322   9.201   3.787 -0.1721  0.0002  0.1154
10637W        W29491   6.103   7.005  12.955 -0.0944  0.0063 -0.2309
10638W        W29492  16.804  14.937  12.230 -0.1782  0.0146  0.2208
10639W        W29493  16.935   0.614  14.413 -0.3565 -0.2034 -0.1290
10640W        W29494  14.808   0.431   1.830 -0.0191 -0.1832  0.1630
10641W        W29495   4.319  17.415  13.960 -0.3036 -0.1250 -0.0434
10642W        W29496  17.411   2.477   0.680  0.0255 -0.1737  0.1836
10643W        W29497   5.917   1.540   3.428 -0.0658  0.2165 -0.0155
10644W        W29498   7.372   8.722  13.356  0.0982 -0.3351 -0.2877
10645W        W29499  13.380  13.067   4.943  0.0767  0.2278  0.1393
10646W        W29500  12.589   3.357  12.307 -0.3169  0.0716 -0.0956
10647W        W29501   6.035  11.109  12.213 -0.3834 -0.2279  0.1080
10648W        W29502  16.955   6.284   4.430  0.1026 -0.1748 -0.0564
10649W        W29503   7.127  17.624  13.477  0.1208  0.0835 -0.1298
10650W        W29504  13.637  11.846   4.267 -0.2741 -0.1162 -0.2369
10651W        W29505   4.702   5.240   2.184 -0.1126  0.0650 -0.0001
10652W        W29506   0.149   4.483  15.951 -0.4722  0.2868 -0.1210
10653W        W29507   9.328   1.397  11.844  0.1027  0.1688 -0.0989
10654W        W29508  10.838   6.489   4.587  0.1752  0.1992 -0.0027
10655W        W29509   0.640   8.889  11.265 -0.0808 -0.0352  0.0863
10656W        W29510   8.589   9.552   1.662 -0.0658 -0.0519  0.1433
10657W        W29511   0.519   7.042   9.776  0.2822  0.0563 -0.1206
10658W        W29512   3.103   4.096  15.712  0.2632 -0.0486 -0.0366
10659W        W29513  14.367  10.048   2.269  0.0176  0.2111  0.1769
10660W        W29514  11.054   3.375   1.082 -0.1296 -0.2341  0.0322
10661W        W29515  10.874   6.552  14.886  0.2897  0.1155 -0.0134
10662W        W29516   0.560  10.034  14.959 -0.0260 -0.2666  0.0618
10663W        W29517  15.431   4.848   0.765 -0.0113 -0.1467 -0.1031
10664W        W29518  13.905   3.586   0.302 -0.2114 -0.2321 -0.0963
10665W        W29519   5.572   5.154   3.058 -0.1472  0.3305  0.1014
10666W        W29520  14.483  13.740   4.824  0.3082 -0.1167 -0.1377
10667W        W29521  12.467   1.945   3.632 -0.1287  0.2260  0.0524
10668W        W29522   1.538   8.950   1.638 -0.2672 -0.0177  0.0890
10669W        W29523   8.614  12.279   1.734 -0.1452  0.0688 -0.0995
10670W        W29524   1.492   7.530   3.585 -0.0457  0.1381 -0.3499
10671W        W29525   8.236   5.374   3.293 -0.1763 -0.2042 -0.0468
10672W        W29526  13.607  14.308   2.211 -0.3320 -0.2256  0.0291
10673W        W29527   3.950  14.271  12.288  0.1750  0.0138  0.3120
10674W        W29528  15.284   8.882   0.531  0.1105  0.0833  0.2070
10675W        W29529   2.344  15.248   3.687  0.0499 -0.0194  0.1753
10676W        W29530  14.372   2.348   2.189 -0.2711  0.2668  0.1167
10677W        W29531  10.086   1.337  12.894 -0.0508 -0.1370  0.0281
10678W        W29532  12.420  11.855   0.445 -0.2064 -0.1674  0.1940
10679W        W29533  10.301   2.097  13.880  0.5322  0.2371 -0.1455
10680W        W29534  16.189   1.095  12.454  0.1561  0.1305 -0.0694
10681W        W29535  15.293   6.578   1.787 -0.0980  0.0939 -0.1611
10682W        W29536   6.635   0.539   0.323 -0.2238  0.1692  0.0085
10683W        W29537   7.640  10.346   3.250  0.0600  0.2056 -0.0473
10684W        W29538  10.247  12.604   1.986 -0.1966 -0.0642 -0.0687
10685W        W29539   4.386  15.663   1.002 -0.0638  0.0485  0.1105
10686W        W29540  14.269   7.478   0.246  0.0208  0.1379  0.2953
10687W        W29541   8.907  13.976  11.362 -0.1245 -0.1656  0.3038
10688W        W29542  11.134   9.498   1.958 -0.1532 -0.0067  0.0625
10689W        W29543   0.557  17.330  13.276 -0.1521 -0.1145 -0.2147
10690W        W29544   1.679   4.095   1.020  0.1536  0.1038  0.2363
10691W        W29545   7.580  15.386  15.604  0.2582 -0.1550 -0.1726
10692W        W29546  16.596   2.270  11.189  0.3541  0.1267 -0.1509
10693W        W29547  10.124  11.042   2.120 -0.1371  0.0795 -0.0675
10694W        W29548  12.190   4.804   4.506 -0.3030 -0.0424  0.1107
10695W        W29549   1.049   8.500  13.424  0.1303 -0.3766  0.2087
10696W        W29550  10.840  12.277   1.448  0.1219 -0.0384  0.1961
10697W        W29551   1.423   8.423  12.288  0.0115  0.0468  0.0828
10698W        W29552   6.558   9.905   5.210  0.4399  0.1154  0.2789
10699W        W29553  17.403  17.019   1.741  0.1150 -0.0153  0.1773
10700W        W29554   2.257   0.735  14.563 -0.1729 -0.4626  0.0357
10701W        W29555   8.493  15.153   2.621  0.1317 -0.1585 -0.0775
10702W        W29556  12.860  10.774   3.633  0.1977 -0.1249  0.1650
10703W        W29557  13.802   3.870   2.922  0.0901 -0.1579  0.1963
10704W        W29558  10.369  17.014   3.715 -0.1859  0.1254 -0.0987
10705W        W29559  16.791   6.825   2.435 -0.2273  0.0342 -0.1054
10706W        W29560   1.464  17.427   4.531 -0.1022  0.1877  0.0479
10707W        W29561   8.895   3.331  13.334 -0.0895  0.2594 -0.1160
10708W        W29562  13.356   9.796  13.552 -0.1135  0.4047  0.0358
10709W        W29563  13.836   2.939  15.598 -0.1514  0.0660 -0.0668
10710W        W29564   5.317   1.437   1.680  0.2658 -0.0017  0.0958
10711W        W29565   6.728   1.813  14.015  0.2220  0.0063 -0.0479
10712W        W29566  17.470   5.084   3.110 -0.4241 -0.1621  0.1596
10713W        W29567   9.112   7.816  13.947  0.1886  0.0218  0.1169
10714W        W29568   3.789  14.663   4.174  0.3643  0.1261  0.2937
10715W        W29569   3.338   6.590  15.953 -0.0074  0.1730  0.0602
10716W        W29570  16.973   3.940   4.745  0.0782  0.1054  0.1811
10717W        W29571  13.347   9.282  11.508  0.2552  0.1989  0.0606
10718W        W29572   0.693   2.830  12.743  0.0429  0.0653 -0.3697
10719W        W29573  11.358   4.020  12.049 -0.1774 -0.2478  0.0693
10720W        W29574   8.730   2.007  11.661  0.2010  0.3435  0.0452
10721W        W29575  10.349  16.099  13.652 -0.2755 -0.2194 -0.3093
10722W        W29576  12.685  16.711  11.575  0.3295 -0.3306  0.1104
10723W        W29577   0.898  16.365   4.430 -0.4108 -0.0527  0.1771
10724W        W29578   3.423   8.582  14.428 -0.1505  0.1001  0.0938
10725W        W29579   9.716  17.326  13.734  0.2070 -0.0641 -0.3753
10726W        W29580  14.096  17.417  12.919  0.0286  0.0767  0.1847
10727W        W29581   2.584   3.355  15.900  0.2222 -0.0867  0.1836
10728W        W29582  10.206   0.699   2.772  0.2762 -0.0436  0.2738
10729W        W29583  12.870   7.134   3.352 -0.1650 -0.1715 -0.0069
10730W        W29584   4.512   6.987   1.838 -0.1350  0.1366  0.0263
10731W        W29585   5.143   3.984   0.514 -0.0321  0.2247  0.1445
10732W        W29586  14.827   9.722  15.641 -0.2291  0.1625 -0.2798
10733W        W29587  16.444  12.350  16.159  0.1026 -0.1624 -0.1191
10734W        W29588  14.021  13.493  12.672  0.1291 -0.0019  0.1432
10735W        W29589  11.152   5.082   1.019 -0.0761 -0.0584  0.1892
10736W        W29590  17.134  14.552  13.881  0.2583  0.1222 -0.1400
10737W        W29591   9.275   4.224   4.042 -0.1242 -0.1714  0.0914
10738W        W29592   7.546  16.865   1.950  0.3686  0.0530  0.4036
10739W        W29593   6.080   1.194  14.628 -0.0273  0.3370 -0.1769
10740W        W29594   6.540   4.035   1.873 -0.1109  0.1141 -0.2591
10741W        W29595   1.694  11.192   0.797 -0.2033  0.1293 -0.3395
10742W        W29596   5.906  11.161   4.635  0.1631 -0.1493 -0.0439
10743W        W29597   0.274   1.899   4.160 -0.3366  0.1010 -0.1105
10744W        W29598   5.688   8.216   1.251 -0.3402 -0.0714 -0.0632
10745W        W29599   9.793   9.738   0.272 -0.1234 -0.2468 -0.1946
10746W        W29600  13.504  12.085   1.060  0.2326  0.1300  0.2424
10747W        W29601   1.991  14.514  12.910  0.0227 -0.0145 -0.0282
10748W        W29602   5.169   5.366   1.302  0.1056  0.0767  0.0678
10749W        W29603   6.376  12.930  11.834 -0.1232  0.0388 -0.0504
10750W        W29604  10.022  14.315  11.834  0.0209 -0.4191 -0.0118
10751W        W29605  15.906   5.607   0.969 -0.2099 -0.0856  0.0492
10752W        W29606   0.100   4.182  12.667  0.1740  0.2047  0.2156
10753W        W29607   1.971  11.782  14.643 -0.0916 -0.1255  0.0971
10754W        W29608  11.751  12.228   4.756 -0.2384  0.2324  0.4327
10755W        W29609   3.010   0.811   5.267 -0.0919  0.1859  0.0406
10756W        W29610   9.997   9.396   4.719  0.1793 -0.0850  0.0330
10757W        W29611   2.622  11.163   2.717  0.1583  0.1620 -0.0950
10758W        W29612  14.815   0.946   1.995 -0.0424  0.0970  0.1368
10759W        W29613   4.100  11.135   1.081 -0.2781 -0.1512  0.1109
10760W        W29614  17.779  10.935   2.386  0.0861  0.0737 -0.0500
10761W        W29615   8.555  14.116   1.397 -0.0484 -0.3008  0.1565
10762W        W29616   1.992   9.636  15.936  0.1477  0.1786 -0.0876
10763W        W29617   8.008   5.928  14.950  0.5326 -0.2236  0.0328
10764W        W29618  14.757  17.830   0.573  0.1066  0.1582  0.0797
10765W        W29619   3.049  14.336   1.470 -0.1444  0.1601  0.4509
10766W        W29620   1.327  11.090   1.662 -0.0104  0.4393  0.0984
10767W        W29621  14.304   4.722  13.074  0.1410  0.3685  0.0533
10768W        W29622   6.188  12.122   4.299  0.1832  0.2127  0.1561
10769W        W29623  10.658  13.292   0.919 -0.0520 -0.1510  0.0954
10770W        W29624  10.993  12.195  15.495  0.2843  0.1029 -0.2284
10771W        W29625   9.779   4.032   3.789 -0.0062 -0.0051 -0.1995
10772W        W29626   1.122  17.500  13.897  0.1203  0.0750  0.1337
10773W        W29627  14.059  15.999   4.944  0.0171 -0.1242 -0.0964
10774W        W29628   6.679  12.343   0.321  0.0797 -0.3977  0.0534
10775W        W29629  17.139   5.523   2.135  0.1903 -0.2681 -0.2881
10776W        W29630  11.218  10.871   2.809 -0.0715 -0.0642  0.3012
10777W        W29631   8.503   7.286   3.227 -0.1247 -0.0451 -0.2903
10778W        W29632  14.686   0.992   0.631 -0.0620  0.0575 -0.0127
10779W        W29633   8.546  13.384   3.617  0.0896 -0.1112 -0.1163
10780W        W29634   9.184   0.973   2.470 -0.3010  0.2404  0.0377
10781W        W29635  13.133  11.491  14.409  0.0286 -0.0692 -0.3653
10782W        W29636  15.990   2.034   2.622  0.0349 -0.0557 -0.0555
10783W        W29637  11.741   8.366   1.953 -0.3193 -0.1261 -0.0298
10784W        W29638  14.025  17.170  11.935  0.0579 -0.2455 -0.3321
10785W        W29639   2.446  17.742  11.195 -0.1979  0.1694 -0.0326
10786W        W29640  14.679   5.640   5.668  0.2883 -0.1976  0.2903
10787W        W29641  16.163   6.079  12.973  0.1882 -0.1497  0.0964
10788W        W29642   9.916   8.949  15.044  0.0866 -0.0045  0.2498
10789W        W29643  16.283   4.150   2.100  0.0280  0.1585  0.1231
10790W        W29644  10.167   0.659   3.276  0.0432  0.0938  0.1594
10791W        W29645   9.750  16.792  15.315  0.1036  0.0112  0.1493
10792W        W29646   4.031   8.513  15.936  0.0442 -0.1421 -0.2699
10793W        W29647   2.626  13.468  13.065 -0.0909  0.0160 -0.0056
10794W        W29648   1.682  12.786   3.232 -0.1377  0.2802  0.0279
10795W        W29649   3.796   2.414   1.678  0.2303  0.1915 -0.0986
10796W        W29650  17.375   8.244  15.479  0.1565 -0.0580 -0.2310
10797W        W29651  16.110   5.289   0.019  0.0727 -0.0102  0.0502
10798W        W29652   6.143   3.241   1.928 -0.0426  0.2705 -0.2157
10799W        W29653   3.011   4.186  13.621 -0.2271 -0.0536  0.0660
10800W        W29654   6.987  14.148   1.655 -0.2110 -0.1616 -0.1429
10801W        W29655   9.874   5.440   2.804 -0.0117  0.2413 -0.2119
10802W        W29656   2.895  12.178  15.010  0.0611 -0.1699 -0.0172
10803W        W29657   1.912  13.222  12.407 -0.1801 -0.4746  0.3908
10804W        W29658  15.545  11.393  15.589  0.0507  0.1042  0.0654
10805W        W29659  16.781  12.070  11.940  0.0160 -0.1978 -0.1047
10806W        W29660  17.322  10.481   0.660  0.2856  0.0429 -0.0775
10807W        W29661   9.767  16.784   3.042 -0.0333  0.0992  0.1826
10808W        W29662   2.606  11.841   3.219  0.1164  0.2169 -0.0216
10809W        W29663  16.145   4.645   2.119  0.0607 -0.3379 -0.2888
10810W        W29664  14.791   4.283  15.590  0.1170  0.0466  0.0398
10811W        W29665   1.554   9.372  15.053 -0.0196  0.1917 -0.3047
10812W        W29666  12.375   6.513   1.554  0.1681 -0.1107 -0.2508
10813W        W29667  15.501   4.157   3.654 -0.0020 -0.2718  0.0348
10814W        W29668   2.386  13.485  12.351  0.2289 -0.0519  0.2434
10815W        W29669   7.224   0.650  14.576 -0.2334  0.2460 -0.1810
10816W        W29670   2.793  11.440  12.336 -0.1050 -0.3550 -0.5501
10817W        W29671   2.251  12.954   0.558 -0.4093 -0.3597  0.0162
10818W        W29672  11.112   0.066  15.800 -0.0375  0.0270  0.0173
10819W        W29673  12.305   1.749  15.464  0.1581  0.1872 -0.1870
10820W        W29674   8.900   0.131  11.811 -0.1566  0.1974  0.1231
10821W        W29675   3.026   7.614  14.865 -0.1190 -0.1658 -0.1255
10822W        W29676  14.627  16.669  14.101  0.2554  0.0716  0.0062
10823W        W29677  16.081   4.079  13.073  0.2319 -0.1671  0.1260
10824W        W29678   6.311  13.034  14.118  0.3357 -0.1422 -0.0853
10825W        W29679   7.248   6.677  13.496 -0.2282  0.1975 -0.0029
10826W        W29680   1.045   2.013   2.184 -0.1517  0.1197  0.1278
10827W        W29681   6.891   4.658  14.878  0.1588  0.0803 -0.3082
10828W        W29682  13.298   8.897  11.844 -0.2039  0.0409  0.1171
10829W        W29683  15.838  15.076  12.335  0.2538 -0.0434 -0.0843
10830W        W29684   8.671  14.671   1.412  0.0196 -0.2318  0.1376
10831W        W29685  16.349  16.211  15.790  0.2233  0.0980  0.1609
10832W        W29686   3.933  11.953  12.513  0.0595  0.2820  0.1257
10833W        W29687  14.090   8.953   1.674  0.3661  0.0645  0.2619
10834W        W29688  11.295   0.496   4.287  0.1854 -0.1075 -0.3378
10835W        W29689  13.819   8.926  15.491 -0.3130  0.2115  0.3403
10836W        W29690  10.246  10.552  10.989  0.1056  0.2119  0.1363
10837W        W29691  17.161   6.202  11.489  0.0205 -0.0936  0.0387
10838W        W29692  13.490  17.345   1.126  0.2043  0.2727 -0.0636
10839W        W29693   4.530  17.707  15.558 -0.2614 -0.2738 -0.1781
10840W        W29694   6.376  17.210   0.911  0.2037  0.0136  0.0672
10841W        W29695   1.877  11.002  15.600 -0.2224 -0.0682  0.1860
10842W        W29696   9.168   4.734   3.806  0.1479 -0.0618 -0.3074
10843W        W29697   5.225   2.607  15.182  0.1151  0.0521  0.2692
10844W        W29698  17.920   9.696   2.818 -0.0202  0.1415  0.4805
10845W        W29699   5.314  14.468   1.257  0.0114  0.1538 -0.1113
10846W        W29700   4.440  13.942  10.337  0.0689 -0.1161  0.2798
10847W        W29701   2.382   7.931  15.846 -0.1899  0.2384  0.1197
10848W        W29702  16.723  11.151  12.313 -0.1735  0.0917 -0.3846
10849W        W29703   0.117   5.822  12.400 -0.1163  0.2641 -0.2019
10850W        W29704  11.647   7.274  13.024  0.4304  0.0929  0.0975
10851W        W29705   8.110  12.611   2.669  0.0208  0.2723  0.1868
10852W        W29706  17.041  16.593   2.688 -0.2442 -0.3039 -0.0202
10853W        W29707   8.169  10.450   0.713  0.0145  0.2404  0.0077
10854W        W29708   9.476   8.868  13.876  0.0084 -0.0623  0.0885
10855W        W29709   3.260  10.976   4.021 -0.1828  0.0824 -0.2908
10856W        W29710   3.454  13.503   4.746 -0.2211  0.4647  0.3537
10857W        W29711   5.355  12.178   2.191  0.1104  0.0648  0.2885
10858W        W29712   0.141  10.698   0.302 -0.0920  0.0411  0.4140
10859W        W29713   5.034   1.770  11.624 -0.0629  0.0931 -0.2804
10860W        W29714  10.507  10.986  12.227  0.2007 -0.2832  0.0156
10861W        W29715  12.999  13.352   5.159 -0.0966 -0.0990  0.0772
10862W        W29716   2.228   0.969   2.790 -0.0668 -0.0395 -0.2642
10863W        W29717  14.689  17.295   4.137 -0.2263  0.0032  0.3104
10864W        W29718   8.434  11.338   0.815 -0.0024 -0.2179 -0.0902
10865W        W29719   1.533   0.924   0.612  0.1175  0.0505 -0.0672
10866W        W29720   2.602   2.478  13.953  0.0072 -0.2448 -0.1667
10867W        W29721   9.045  16.279   1.683 -0.0819  0.1822 -0.0244
10868W        W29722   3.493   5.760  12.130  0.2155  0.1379 -0.0166
10869W        W29723   5.119   9.107  14.137 -0.0147 -0.0637  0.0138
10870W        W29724   0.267   7.689   2.540  0.0433  0.0921  0.0059
10871W        W29725  16.236   0.560  11.589 -0.0880 -0.0994  0.1241
10872W        W29726   7.897   0.723  15.832  0.0292  0.2243 -0.1381
10873W        W29727   5.406  11.072   3.549  0.2805  0.0155 -0.1077
10874W        W29728   0.490  14.945  15.943 -0.1182  0.1601  0.0875
10875W        W29729  12.913  16.479  13.650 -0.3510  0.5653  0.1736
10876W        W29730  16.089   3.509   3.814 -0.0252 -0.3268  0.0393
10877W        W29731   2.159  12.589  15.647 -0.1582  0.0887 -0.0281
10878W        W29732  14.194  12.547  14.367  0.0184 -0.0341  0.0083
10879W        W29733   8.752   4.988  14.185 -0.1846  0.1294 -0.0250
10880W        W29734   5.286  10.695   1.026  0.2671 -0.1484 -0.0464
10881W        W29735  10.741  11.234  11.850 -0.0243  0.0399 -0.1785
10882W        W29736   9.716   5.527  11.814  0.1806 -0.0543 -0.3087
10883W        W29737  12.438   4.943   0.990  0.1355 -0.0979 -0.2341
10884W        W29738   3.570  11.331   3.807  0.2906  0.0570  0.0444
10885W        W29739   2.246  17.971  15.978 -0.0379  0.0758 -0.0584
10886W        W29740   2.604   4.593  11.843 -0.0041 -0.0104 -0.2507
10887W        W29741  12.099   2.705  15.053 -0.0524  0.1500 -0.2186
10888W        W29742  11.733  11.047   1.781 -0.1924  0.1901  0.1797
10889W        W29743   6.413  11.862   3.349  0.0386 -0.0020  0.2758
10890W        W29744   1.205  12.549   3.230  0.0020  0.2773 -0.2230
10891W        W29745  10.676  13.090   3.893  0.1744  0.0747 -0.0836
10892W        W29746   0.373  10.181  12.240  0.1097  0.1169 -0.3194
10893W        W29747  12.625   4.590  13.119 -0.2727 -0.1492 -0.3185
10894W        W29748  10.466  14.567   0.546 -0.1167  0.0461 -0.0565
10895W        W29749  16.861   3.731   0.144 -0.2824 -0.2905 -0.1021
10896W        W29750   2.872  10.972  12.606 -0.2073 -0.1748 -0.1261
10897W        W29751  13.829   4.346  13.079 -0.0402 -0.1330  0.1145
10898W        W29752   9.012  13.496  11.956 -0.2129  0.0922  0.3306
10899W        W29753  17.971   9.472   2.304  0.0148 -0.0540  0.0448
10900W        W29754  10.614   5.935   3.811  0.0485  0.2383 -0.1031
10901W        W29755   9.482   2.188   1.899  0.3244 -0.2017  0.1502
10902W        W29756  13.787  12.681  15.965  0.3020  0.2025 -0.0145
10903W        W29757  17.623   6.663  13.909 -0.1485  0.0296 -0.1812
10904W        W29758  13.547  11.488   0.701 -0.0445 -0.0057  0.2329
10905W        W29759  14.623   7.190  11.843 -0.0842  0.0868  0.0327
10906W        W29760   7.015   8.791  15.318 -0.1613  0.2159 -0.0248
10907W        W29761   5.456   7.106   5.297 -0.0099 -0.2249  0.2306
10908W        W29762   3.490   8.423  14.957  0.1724  0.0103  0.1306
10909W        W29763  13.412   0.878  11.564  0.0092 -0.3122 -0.0579
10910W        W29764  11.704  13.404   2.146  0.1763 -0.0204  0.3034
10911W        W29765   1.014   9.689  12.397  0.1335 -0.2593  0.2073
10912W        W29766   2.093  10.432  11.750  0.1018 -0.1631 -0.1800
10913W        W29767  17.131   9.076  11.683  0.2315  0.1157 -0.0438
10914W        W29768  10.090  17.519  14.101  0.0926 -0.0106  0.0030
10915W        W29769  14.388   6.562   2.652 -0.0738 -0.3084 -0.0512
10916W        W29770   5.232   5.145   2.637 -0.1870 -0.5015  0.0384
10917W        W29771  12.359   2.196  14.795 -0.2248  0.1275  0.0866
10918W        W29772  10.489   9.101  12.991  0.2165 -0.3354 -0.2934
10919W        W29773   4.757  12.759  11.526 -0.0381 -0.0768  0.1324
10920W        W29774  10.217   3.097  12.767 -0.0361 -0.1512  0.1970
10921W        W29775  10.957   9.533   1.502  0.2117 -0.1205  0.1114
10922W        W29776  14.549   2.464  14.593 -0.2381  0.0012 -0.1636
10923W        W29777   9.972   0.231   3.605 -0.0144  0.0404  0.0951
10924W        W29778   3.703   1.011   3.917 -0.1275 -0.0182 -0.1658
10925W        W29779   2.055  10.299   1.792 -0.0841  0.3497 -0.2392
10926W        W29780  11.953  13.363  12.484 -0.0394 -0.0889  0.0038
10927W        W29781   6.708  15.012   2.083 -0.1232 -0.1703  0.2466
10928W        W29782   1.870  12.146   0.452  0.2766 -0.2010  0.2412
10929W        W29783   2.087  13.963   1.391 -0.1413 -0.1661 -0.1511
10930W        W29784  11.406   9.377  14.920 -0.1566  0.1152  0.1157
10931W        W29785  11.474   0.369  13.730  0.0725 -0.0552  0.0937
10932W        W29786   3.130   5.737   2.646  0.2431 -0.0769 -0.3026
10933W        W29787   0.829   2.462  15.279 -0.0187 -0.0649 -0.2664
10934W        W29788   2.219   8.308   4.215 -0.0387  0.2139  0.1825
10935W        W29789  11.330   6.101  15.614 -0.2141 -0.1171 -0.0670
10936W        W29790   7.845  11.163   0.069  0.3099  0.1602 -0.0862
10937W        W29791   5.359   6.809   2.814 -0.3227  0.1249  0.4203
10938W        W29792  15.155   9.479  15.330 -0.0098  0.1640 -0.0375
10939W        W29793  15.716  13.943   1.384  0.2983  0.2011  0.0567
10940W        W29794  12.026  17.234   3.002 -0.1229 -0.1460  0.0632
10941W        W29795  11.263   6.302  12.888 -0.3689 -0.0367 -0.0607
10942W        W29796  10.073   3.072  11.520  0.0540  0.3009  0.1171
10943W        W29797  14.516   8.258  14.861  0.0317  0.2270  0.0430
10944W        W29798   3.634   2.206  11.364  0.2929 -0.1131  0.1187
10945W        W29799  17.393   4.092   3.851  0.1424  0.2754  0.0419
10946W        W29800  17.972   8.408   2.302 -0.0043 -0.1696 -0.2212
10947W        W29801   4.300   8.451  14.874  0.0285 -0.0133 -0.1660
10948W        W29802   9.361  16.656  14.992  0.1099  0.0209  0.2146
10949W        W29803   2.987   2.745  11.568 -0.1527 -0.2923 -0.0009
10950W        W29804   5.329   6.293  13.785  0.1322 -0.1067  0.0119
10951W        W29805  11.813  10.568   0.753  0.0537 -0.0509  0.1891
10952W        W29806  14.512  16.085  12.263  0.0289 -0.2039 -0.0701
10953W        W29807   5.467   3.075   1.434 -0.0259  0.0788  0.0538
10954W        W29808   3.147   5.960  11.632  0.2479 -0.0909  0.0624
10955W        W29809   2.159   3.657   2.681  0.0070  0.1705 -0.1415
10956W        W29810   6.082   1.687   0.204 -0.0035 -0.1651  0.0683
10957W        W29811   3.885  17.934  14.878  0.0427 -0.0460  0.1206
10958W        W29812  12.443  15.097   2.067  0.0408 -0.1748 -0.0676
10959W        W29813   2.239  16.119   0.882 -0.1398 -0.1493 -0.2342
10960W        W29814  15.827  14.513   1.444 -0.0416 -0.3541 -0.1920
10961W        W29815  16.065  15.334  15.402 -0.1782  0.0451  0.3219
10962W        W29816  14.281   5.987   1.688 -0.0956  0.1182 -0.1112
10963W        W29817   9.369  12.283  12.327 -0.2885 -0.4054 -0.0086
10964W        W29818  11.186   0.118   1.733 -0.0878 -0.3330 -0.0374
10965W        W29819  14.991   7.778   2.537  0.0969  0.1336  0.0100
10966W        W29820   3.668   7.185   3.431 -0.0102  0.1928 -0.0665
10967W        W29821   4.336  15.139  12.308  0.0922  0.2028 -0.0031
10968W        W29822   7.886   1.991   0.847  0.1383 -0.2353  0.3922
10969W        W29823  12.237   7.865   0.622 -0.1153 -0.0614 -0.1352
10970W        W29824   3.610  15.309   0.106 -0.0252  0.0875  0.2266
10971W        W29825   5.465   1.843   4.319 -0.1273 -0.0553  0.0109
10972W        W29826   6.783  16.800   3.649  0.3399  0.0167  0.0903
10973W        W29827   9.329   9.773  13.493  0.2750 -0.3122  0.1989
10974W        W29828   0.361  12.646   1.280 -0.0261 -0.0480  0.1780
10975W        W29829   8.733   4.964   2.481 -0.0206  0.1715  0.0031
10976W        W29830   5.576  16.928  12.427 -0.1336  0.1096 -0.0401
10977W        W29831   7.446  15.073   3.762  0.0521 -0.3092  0.0518
10978W        W29832   6.500   2.148  12.057 -0.1830 -0.1132 -0.1102
10979W        W29833   0.887   9.468   0.943 -0.2273  0.1582 -0.1814
10980W        W29834  16.180  11.008   2.853 -0.1714  0.0137  0.5610
10981W        W29835  11.618   8.604  15.084  0.2388 -0.1605  0.0505
10982W        W29836   0.911   2.264  13.115  0.2126  0.2355  0.2895
10983W        W29837   4.674   3.177   1.768  0.0462 -0.2350 -0.0884
10984W        W29838  17.987  11.305  15.441 -0.4747 -0.1048  0.0878
10985W        W29839   0.980  13.127  11.992 -0.0641  0.1924  0.0690
10986W        W29840  11.199  12.733  12.671  0.1145  0.2561 -0.2064
10987W        W29841  10.866  14.135   4.382  0.1045  0.2078  0.0892
10988W        W29842   4.305  13.934  15.271  0.0941  0.0217  0.0971
10989W        W29843  10.067  10.191  12.150  0.1669 -0.0033 -0.1840
10990W        W29844  12.786  13.061   4.759 -0.4183  0.1262  0.0975
10991W        W29845   4.559  15.002   1.061  0.2242  0.1123 -0.2136
10992W        W29846  13.308   6.027   0.743  0.3432 -0.1904 -0.0862
10993W        W29847   9.928   4.840   4.282 -0.1622  0.2334  0.2068
10994W        W29848   7.522  10.939  11.907  0.1209 -0.3657  0.2659
10995W        W29849   3.629   5.831   4.876  0.0256 -0.5218 -0.2617
10996W        W29850  16.064  15.713  12.897 -0.1386  0.1779  0.2309
10997W        W29851  15.787   2.009   3.904  0.1439 -0.0725 -0.2097
10998W        W29852  15.837  12.543  13.244 -0.2077 -0.4395 -0.1104
10999W        W29853  10.181  16.845  12.094  0.0693 -0.0736  0.0835
11000W        W29854   3.763   6.825  15.043 -0.1263 -0.1432 -0.0361
11001W        W29855  13.033   1.549  14.082 -0.1829 -0.4479 -0.5374
11002W        W29856   9.005   7.372  15.666 -0.3329  0.3749  0.1918
11003W        W29857  15.161  11.456   1.616 -0.0931  0.1604  0.0262
11004W        W29858   7.269   5.635   1.385  0.3098 -0.1337  0.0131
11005W        W29859   4.912   0.207   3.050  0.1079  0.2808 -0.0999
11006W        W29860   1.274   6.652   1.794  0.2354  0.1563  0.1495
11007W        W29861   2.517   1.684  13.026 -0.0355 -0.1251  0.0363
11008W        W29862  12.415   9.865   2.093 -0.0782  0.1039 -0.0993
11009W        W29863  11.791   7.571   1.428  0.2492 -0.2326  0.2033
11010W        W29864  12.587   7.472  12.187  0.1644  0.2195  0.1111
11011W        W29865   3.409   0.361   3.239  0.2602  0.3653 -0.1937
11012W        W29866   5.503   3.293  12.030  0.0427 -0.1032 -0.0417
11013W        W29867   6.318   4.204  15.446  0.1909  0.0792  0.1567
11014W        W29868   5.782   8.452   4.806  0.0062 -0.3332 -0.1384
11015W        W29869  11.708  16.085  15.601 -0.3329  0.1410  0.1198
11016W        W29870   4.360   5.644   2.437  0.1338 -0.0000  0.0291
11017W        W29871   4.194  13.889  11.954 -0.0930  0.0122  0.1414
11018W        W29872  17.235   6.068   1.540 -0.0017 -0.2642  0.3153
11019W        W29873   8.861   8.500  13.106  0.4658  0.1911  0.0007
11020W        W29874  15.802   4.505   3.289 -0.3625 -0.1064  0.0113
11021W        W29875  11.416  15.443   2.611  0.3137 -0.0143 -0.0659
11022W        W29876  16.255  10.885  13.131 -0.1672 -0.0456 -0.2074
11023W        W29877   6.767   7.788  15.634 -0.1336  0.0553 -0.1095
11024W        W29878   9.290  16.254   4.843  0.1875 -0.1223 -0.1109
11025W        W29879   5.658  13.641  13.042  0.1593 -0.0864  0.0938
11026W        W29880   2.842   1.922  10.724  0.2994  0.0773  0.1430
11027W        W29881  15.621  18.037  12.155 -0.1072  0.0598  0.2453
11028W        W29882  17.491   2.478  13.607 -0.0361 -0.2161  0.0226
11029W        W29883   0.800   7.675   1.598  0.0203 -0.1098 -0.0577
11030W        W29884  16.692   8.788  15.128  0.2251 -0.1567 -0.2386
11031W        W29885  11.469   7.851  11.653  0.2333 -0.0621 -0.2082
11032W        W29886   4.315   0.936  11.825  0.0995  0.1004  0.3074
11033W        W29887  16.796   3.927  10.580 -0.1175  0.5509  0.2445
11034W        W29888  17.849   5.332   1.730  0.0922 -0.1387 -0.0701
11035W        W29889   9.984  16.664  12.537 -0.0300 -0.1014  0.1427
11036W        W29890  14.416   4.603  15.638  0.0294  0.1832 -0.0898
11037W        W29891  16.263   9.017  14.310  0.0524  0.0249  0.0710
11038W        W29892  11.818   7.131   2.298  0.0489 -0.0852  0.0711
11039W        W29893   0.653   2.877   0.680 -0.0005 -0.1434  0.0058
11040W        W29894   7.628   2.363   2.510 -0.1369 -0.4418 -0.0551
11041W        W29895  17.078  14.393  14.566 -0.1320 -0.1480 -0.1772
11042W        W29896  11.530  11.507   3.987  0.0867 -0.2512 -0.1747
11043W        W29897   1.114   8.198   3.961  0.0630 -0.0603 -0.0363
11044W        W29898   4.393   8.813   4.729 -0.0897 -0.0086  0.2846
11045W        W29899   0.146   0.003   5.415  0.4012  0.1916 -0.0305
11046W        W29900  13.518  17.303  13.766  0.1738  0.0141 -0.0870
11047W        W29901   1.066   3.498   3.820 -0.1552 -0.0488  0.1132
11048W        W29902  11.186  16.209  15.717  0.1840  0.2400  0.0016
11049W        W29903   5.839  11.768  15.479  0.0801  0.2548  0.2753
11050W        W29904  17.064  12.993  15.470 -0.1481 -0.0144 -0.3825
11051W        W29905   4.990  13.823   0.421 -0.0535  0.0731 -0.0020
11052W        W29906  10.577   8.701   3.625  0.2719  0.1566 -0.1520
11053W        W29907  16.625   3.503  11.900 -0.2512  0.2387 -0.1798
11054W        W29908   9.964   4.188   3.309 -0.3432 -0.0515 -0.0982
11055W        W29909   9.198  15.353   4.939  0.0621  0.3387 -0.1104
11056W        W29910  13.070  12.743  12.921  0.2954  0.0544  0.0108
11057W        W29911   2.503   8.262  14.436  0.0799  0.1551 -0.0663
11058W        W29912   7.265   6.010  15.728  0.0512 -0.0938 -0.2390
11059W        W29913   1.975  15.284  10.418  0.1874  0.1652  0.3260
11060W        W29914  17.852  16.885  15.842 -0.1978  0.1081 -0.0684
11061W        W29915   7.340   3.399   0.818  0.2121  0.1220  0.1801
11062W        W29916   2.298   2.389   2.174  0.1293 -0.1024  0.0716
11063W        W29917   8.302  10.795   1.063  0.2265 -0.1040  0.1679
11064W        W29918  17.252   3.702  13.240 -0.4213  0.0253 -0.0018
11065W        W29919  15.328   7.589   1.252 -0.1744 -0.0987 -0.2721
11066W        W29920   8.196   3.529   3.190  0.3960 -0.0247  0.0153
11067W        W29921   5.262   9.945   0.404 -0.1389  0.0597  0.0784
11068W        W29922   4.635   2.189   1.780  0.3634  0.1351  0.0595
11069W        W29923  10.275   2.203   0.137  0.2749  0.1611  0.1517
11070W        W29924   2.984   9.756   5.760 -0.0684 -0.1673  0.0876
11071W        W29925  17.512   5.109   2.056  0.1864 -0.0499  0.3726
11072W        W29926  14.353   6.475   1.954  0.0832 -0.0235 -0.0481
11073W        W29927   5.346   4.237  11.795  0.1913 -0.0210 -0.1283
11074W        W29928  14.100   9.899   3.955  0.3680  0.1175 -0.1001
11075W        W29929   1.775   6.164  11.838  0.1993 -0.4861 -0.1537
11076W        W29930   3.054  16.889  13.994 -0.1051  0.2599 -0.0773
11077W        W29931   2.432  14.249  12.053  0.1121 -0.0586  0.0836
11078W        W29932   8.055  11.707   5.318  0.0067 -0.0785 -0.0335
11079W        W29933  16.732   7.497   4.704  0.0773 -0.2660 -0.1733
11080W        W29934  18.029   5.799  13.991 -0.1185 -0.1644 -0.0526
11081W        W29935  13.163   2.519   3.396  0.1172  0.3081 -0.1146
11082W        W29936  10.661   8.239   0.692  0.1992  0.1486 -0.2036
11083W        W29937   9.384  12.234   2.661  0.0631 -0.1125  0.1622
11084W        W29938   2.790   7.914   3.689 -0.2925  0.0168  0.0159
11085W        W29939  16.907   8.042  12.782  0.0061 -0.0167  0.1917
11086W        W29940  10.641  16.382  15.609 -0.1160 -0.4711 -0.1872
11087W        W29941   8.037  10.934   2.799  0.0379  0.0054  0.1234
11088W        W29942   3.126   7.527   1.276 -0.0597 -0.0429  0.2627
11089W        W29943  17.694  16.336   5.954 -0.0442  0.1155  0.0384
11090W        W29944  16.907  11.088  10.381 -0.0029 -0.0642 -0.0316
11091W        W29945  13.043   4.029   1.646  0.0375 -0.0830  0.0859
11092W        W29946  12.354  11.823  15.286 -0.0719  0.0513 -0.0617
11093W        W29947  11.994   2.633  15.582  0.3214 -0.1379 -0.2238
11094W        W29948  15.192  14.575   1.639  0.1362  0.1760  0.3190
11095W        W29949   1.584   7.747  13.418 -0.2766 -0.2505  0.3010
11096W        W29950   7.669  10.849   1.764  0.0794 -0.1250  0.1564
11097W        W29951   9.339   9.759   1.183  0.4058 -0.0062 -0.0266
11098W        W29952   9.626   5.894   3.595  0.1622  0.1060  0.0581
11099W        W29953   5.015  16.223  14.718 -0.0015  0.0444 -0.0403
11100W        W29954   0.026   4.653  12.927 -0.0224 -0.1112 -0.1336
11101W        W29955   5.942   7.459  15.997  0.0357  0.2617  0.0663
11102W        W29956  13.002  12.128   1.823  0.0877 -0.3258 -0.0119
11103W        W29957  11.568  14.511   4.595 -0.1777 -0.3958  0.1971
11104W        W29958   6.746   0.254   5.221  0.0074 -0.0216 -0.2188
11105W        W29959   8.602  15.978   0.261 -0.2848 -0.2080  0.1282
11106W        W29960   5.996   9.187  13.962 -0.0762 -0.2191 -0.0219
11107W        W29961  16.918   6.797  11.731  0.3221  0.1917  0.1363
11108W        W29962   1.090   4.532   3.486 -0.0914  0.2182  0.1862
11109W        W29963  10.222   6.492  11.086 -0.1340  0.1641  0.1155
11110W        W29964  12.941   8.765   0.128 -0.0551 -0.0304  0.1146
11111W        W29965   1.898   4.076   0.551 -0.1183  0.1296 -0.0343
11112W        W29966  16.528  11.913  12.341 -0.0966  0.1552 -0.0916
11113W        W29967   1.289  17.065   4.881  0.2601 -0.3131  0.1336
11114W        W29968  11.330   9.840   5.774 -0.0621  0.1066 -0.0559
11115W        W29969   2.375  13.770   4.015  0.2668 -0.2174 -0.1813
11116W        W29970  13.763   2.498   1.575 -0.0558 -0.1457  0.1892
11117W        W29971   5.722   6.506  13.991 -0.1651  0.1273  0.3233
11118W        W29972   8.268  17.846  11.003 -0.0179  0.0147 -0.1641
11119W        W29973  10.318   4.799   2.122  0.1661  0.0726  0.0496
11120W        W29974  11.828   0.470  15.345 -0.0768  0.0479  0.0512
11121W        W29975  16.757  16.175   1.052 -0.0546 -0.2495 -0.2205
11122W        W29976   4.058  13.560   2.197 -0.3037 -0.2205  0.0352
11123W        W29977   6.654   8.694   3.424 -0.1092  0.2038  0.0061
11124W        W29978  10.828  14.414   2.670 -0.1248  0.1273  0.2051
11125W        W29979  14.245  11.723  11.497 -0.1335 -0.0153  0.1290
11126W        W29980   5.300   3.751   4.767 -0.0104  0.1424  0.1750
11127W        W29981  11.605  16.692  15.696 -0.0645 -0.0467  0.3154
11128W        W29982   4.651  10.944  11.998 -0.1680  0.0865  0.1066
11129W        W29983   5.955  13.929   2.959 -0.0697  0.0691 -0.0345
11130W        W29984   1.313  16.204  12.431  0.0588 -0.1625 -0.0922
11131W        W29985   5.401   5.611   1.716 -0.3454  0.2647 -0.0456
11132W        W29986   1.497  11.931  15.901  0.0322 -0.0177 -0.1568
11133W        W29987  14.070  15.818   3.672  0.1463 -0.1110  0.1413
11134W        W29988   8.192  14.477  12.008  0.2528  0.0845  0.1069
11135W        W29989  12.360   8.824  14.614  0.0486 -0.2906  0.1520
11136W        W29990  12.959   1.987  15.783  0.1537 -0.1154  0.0536
11137W        W29991   4.666  17.545   1.243  0.2272 -0.2015 -0.1317
11138W        W29992   8.942   4.622   3.438 -0.0241 -0.0574  0.3275
11139W        W29993   2.591  13.983  14.658  0.0685  0.0710 -0.3563
11140W        W29994   8.425   4.300   1.667 -0.1257 -0.0688 -0.2423
11141W        W29995  17.013   8.424  15.035  0.1762  0.0278 -0.2093
11142W        W29996  17.691   5.570   2.988 -0.4043 -0.0097 -0.2691
11143W        W29997  13.491  16.082  14.316  0.0381  0.3868  0.1006
11144W        W29998   0.707   1.644  12.032 -0.0470 -0.0594 -0.0907
11145W        W29999  11.884  11.674   3.621 -0.2425  0.0350 -0.2578
11146W        W30000   2.302   2.306  15.285 -0.1451 -0.2548  0.0210
11147W        W30001  11.200  13.718   4.238  0.0377  0.3415  0.1111
11148W        W30002   2.151  13.273   3.200 -0.2333 -0.0506 -0.3779
11149W        W30003   0.252   9.622  11.446  0.1722 -0.4029  0.0921
11150W        W30004  14.144   5.336   2.488 -0.2702  0.1565 -0.0242
11151W        W30005  15.745  16.259  12.046  0.0320 -0.2356  0.2808
11152W        W30006  11.259   3.453   0.089  0.0650 -0.1693 -0.3657
11153W        W30007   8.845   9.796   3.516  0.1378  0.2719  0.4414
11154W        W30008  10.774  16.686   4.379  0.0278  0.3396 -0.0474
11155W        W30009   0.046   6.460  11.453  0.0319 -0.1424  0.2764
11156W        W30010   3.113  17.259   4.214  0.3027  0.1573  0.1521
11157W        W30011  11.760  10.056  11.367 -0.1799 -0.2370 -0.0547
11158W        W30012   0.097  15.000   3.664 -0.1762  0.1049  0.3874
11159W        W30013  15.614   5.793   4.688  0.0823  0.0095 -0.1917
11160W        W30014   5.022   3.293   3.843 -0.2185  0.2093  0.3582
11161W        W30015  11.403   2.128  14.677  0.2000  0.1040  0.2771
11162W        W30016   2.216  11.588   4.623  0.0544 -0.2293  0.1791
11163W        W30017   4.084  14.765  12.481 -0.1247 -0.0881 -0.0563
11164W        W30018  16.822   3.064  15.047  0.1809  0.2084  0.0175
11165W        W30019  11.168   1.924   4.487 -0.1769 -0.1349  0.1303
11166W        W30020   7.697   7.241   2.119  0.2717  0.0262  0.1484
11167W        W30021   1.527  17.344  15.928  0.1363 -0.0358  0.1490
11168W        W30022   0.361   5.405  14.030 -0.0843 -0.2869  0.1650
11169W        W30023  14.952  11.682   5.001 -0.0423  0.1902 -0.2473
11170W        W30024   7.163   6.462  12.384 -0.1053  0.1333  0.2740
11171W        W30025  16.101   0.652  13.074 -0.1399 -0.0800  0.1103
11172W        W30026  11.867  14.159  13.989 -0.0790 -0.3145  0.1585
11173W        W30027   4.131  17.679  13.417 -0.1066  0.2139  0.0146
11174W        W30028  14.704   0.143   4.223  0.0766 -0.0686  0.1616
11175W        W30029   7.264   9.713  15.003  0.0420 -0.1283  0.2067
11176W        W30030   1.402   1.511  12.384  0.5170  0.0837  0.3171
11177W        W30031  11.267   8.401   1.927 -0.1341 -0.2022  0.1180
11178W        W30032  12.608  17.755   1.414 -0.2618 -0.2199 -0.0664
11179W        W30033   5.713  12.081   5.229 -0.2179  0.1423 -0.0675
11180W        W30034  17.365   2.579  13.090  0.1898 -0.2138  0.2928
11181W        W30035   0.695  13.000  15.856 -0.0735  0.1966  0.0100
11182W        W30036   7.929  12.674   3.366 -0.0898  0.2498 -0.2943
11183W        W30037  10.743  16.313   2.087 -0.0509 -0.3180 -0.0442
11184W        W30038   3.462  17.403  14.746 -0.1907  0.1797  0.1096
11185W        W30039   7.714  13.070  14.343  0.0003  0.1084  0.0122
11186W        W30040   2.399  12.913  10.376  0.0369 -0.0857 -0.0333
11187W        W30041   0.794   6.570  12.480 -0.3515  0.0775 -0.1108
11188W        W30042   6.576  14.410   1.299 -0.0461  0.0826  0.1595
11189W        W30043   6.507   5.403  14.997  0.1609 -0.1637 -0.0144
11190W        W30044   9.432  14.412  11.402 -0.2997 -0.0328  0.0190
11191W        W30045  10.691  12.461  12.926 -0.0177  0.0801 -0.0961
11192W        W30046   7.474   6.262   2.121 -0.2762 -0.2903  0.2766
11193W        W30047   1.515   0.440  12.764  0.1388  0.2611  0.1253
11194W        W30048   0.689   4.191   1.102 -0.2179 -0.0903 -0.0028
11195W        W30049   1.953   3.696   0.967  0.1787  0.2029 -0.1600
11196W        W30050   9.149  14.253   2.998  0.0923 -0.0687 -0.2420
11197W        W30051   6.779   3.353  12.587 -0.0137 -0.2042  0.2977
11198W        W30052   6.460   6.432   1.727  0.2711 -0.0157 -0.2658
11199W        W30053   8.140  16.963  12.594  0.1657  0.0874 -0.3342
11200W        W30054   6.006  13.887  14.476 -0.3462 -0.0772  0.1937
11201W        W30055   5.295   8.147  10.408  0.1164  0.0110  0.0943
11202W        W30056   8.610   6.586  13.534 -0.0409  0.2031 -0.2422
11203W        W30057   6.607   4.097   3.047  0.0222  0.1676  0.1115
11204W        W30058  12.793   1.933  12.202  0.2125 -0.0860 -0.1683
11205W        W30059  10.422   5.904  14.639 -0.0629  0.1877  0.2232
11206W        W30060  11.223   3.010   2.772  0.0460 -0.0767 -0.0638
11207W        W30061  17.572   2.653   0.239 -0.2367  0.1720 -0.1128
11208W        W30062  15.750   4.051  13.706  0.0872  0.1645  0.0016
11209W        W30063  11.567   2.515  14.346  0.1785  0.1046  0.1351
11210W        W30064  13.494   7.847   3.536  0.0157  0.1019  0.1387
11211W        W30065  16.972   4.398  11.964  0.0760 -0.1896  0.1225
11212W        W30066   4.086   5.560   0.176  0.2878 -0.0740  0.4146
11213W        W30067   2.300   9.346   1.740 -0.1320 -0.0769  0.0761
11214W        W30068  10.088  14.000   2.891 -0.0008  0.0804 -0.0084
11215W        W30069  16.911   9.608  14.647  0.1061  0.2719 -0.1111
11216W        W30070   3.353  10.903   1.836  0.0131  0.3284  0.1186
11217W        W30071   7.074  11.338  15.667  0.1879  0.1064  0.0513
11218W        W30072   4.813   8.856  14.924  0.0499 -0.1799 -0.0298
11219W        W30073  14.275  14.349   3.982 -0.1061  0.1508  0.0705
11220W        W30074   0.245   2.490  14.179 -0.0308 -0.2452 -0.0785
11221W        W30075   3.006   6.269  12.439  0.0348  0.1721 -0.0083
11222W        W30076   9.546   0.006   1.574 -0.2012  0.2833  0.0277
11223W        W30077   4.734   2.721  12.027 -0.1551 -0.0558 -0.1201
11224W        W30078   1.916  15.989   4.531  0.1850 -0.1214 -0.1669
11225W        W30079  15.603  17.991   0.236  0.2294 -0.0052  0.0435
11226W        W30080   8.118  14.139   5.030  0.4457  0.1830  0.1842
11227W        W30081   4.302   8.175   0.660  0.1856  0.0637  0.2064
11228W        W30082   0.970  15.449  14.839 -0.1884 -0.1397  0.1586
11229W        W30083  13.216  11.329   1.445  0.3192  0.4015  0.0382
11230W        W30084  11.994   2.296   2.238 -0.0438  0.1749 -0.1473
11231W        W30085   6.971   8.337   1.572 -0.2393  0.1131 -0.1883
11232W        W30086   5.933   9.953   1.269  0.2244 -0.0594 -0.0524
11233W        W30087   8.648  17.440   3.351 -0.1631  0.2655  0.1199
11234W        W30088  17.643  13.247   0.992  0.0719  0.0839 -0.0809
11235W        W30089  11.764  15.077  11.906  0.1854 -0.2781 -0.1785
11236W        W30090  11.610  16.204   2.500 -0.1443  0.0926 -0.3909
11237W        W30091  14.995  13.224  14.806  0.1763 -0.0089 -0.0701
11238W        W30092   3.463  17.932   2.980 -0.2248 -0.0114 -0.1245
11239W        W30093  14.380  11.148  14.042 -0.1396  0.1483  0.0957
11240W        W30094   7.664  15.462   2.352  0.0547 -0.1504 -0.2691
11241W        W30095  14.689   1.295   1.575 -0.1093 -0.1464 -0.0744
11242W        W30096   4.260   1.370   1.856  0.3920  0.0081  0.1226
11243W        W30097   3.988   9.242   1.610 -0.2945  0.1792 -0.1643
11244W        W30098   5.558   9.321   0.663 -0.0535 -0.0825 -0.0651
11245W        W30099  15.870  13.656  12.617  0.0224 -0.0257 -0.0823
11246W        W30100  16.458  14.381   3.833 -0.0793  0.0587  0.1541
11247W        W30101   5.596   0.836   0.825  0.1098 -0.0411 -0.1112
11248W        W30102   7.125  16.067   5.267  0.0632 -0.2646  0.0130
11249W        W30103  11.128  13.593   1.519  0.0309 -0.1717 -0.0484
11250W        W30104   2.278   1.970   2.547 -0.0537 -0.0321 -0.4658
11251W        W30105  13.042   9.948   2.110  0.2075 -0.1487  0.0112
11252W        W30106  17.148  11.271  12.622 -0.0843  0.2890 -0.1390
11253W        W30107   2.438  14.689  11.158 -0.3003  0.2182  0.1923
11254W        W30108   7.062   0.287   4.552  0.0728  0.0109 -0.1930
11255W        W30109  16.861  10.288  12.099  0.1243  0.2463  0.0110
11256W        W30110  13.911   3.251  12.488  0.3719  0.1954  0.0679
11257W        W30111   8.066   8.607   0.492 -0.0531 -0.1892  0.1664
11258W        W30112  11.463   2.101  11.820  0.1442 -0.1904 -0.1059
11259W        W30113   0.555   0.818   2.668  0.1447 -0.1281 -0.0242
11260W        W30114  12.018   9.020  14.321  0.1018  0.0385 -0.1682
11261W        W30115  16.036  15.142  12.757  0.0261  0.2652  0.0974
11262W        W30116  10.240   1.747  12.042  0.1117 -0.1538  0.0414
11263W        W30117   5.242   0.214   0.850 -0.2015  0.0878 -0.0382
11264W        W30118   0.542   3.204  13.070  0.3293  0.0275  0.3300
11265W        W30119   9.096  13.549   1.528 -0.1360 -0.0269  0.0376
11266W        W30120   2.597   0.653  13.718 -0.1851  0.2270 -0.3606
11267W        W30121   8.845   0.570   2.381  0.1682 -0.2738  0.0281
11268W        W30122   3.213   5.495  16.078 -0.0369 -0.0675 -0.1991
11269W        W30123   7.812  10.598  16.060  0.2927 -0.0632 -0.2337
11270W        W30124  16.057   6.076  12.451 -0.1409  0.1970  0.1135
11271W        W30125   5.673  14.745   0.382  0.2848 -0.3650 -0.1309
11272W        W30126   7.305   7.424   2.355  0.1803 -0.2522  0.2744
11273W        W30127  16.540  11.831   0.932  0.1234  0.1194 -0.2026
11274W        W30128   5.553   1.192  14.893  0.0143 -0.1463 -0.3842
11275W        W30129   9.527   8.039  14.634 -0.2195  0.0992  0.0794
11276W        W30130   9.279  10.947   3.163 -0.0602  0.3009 -0.1440
11277W        W30131   6.895   8.680  11.240 -0.1520 -0.2785  0.1227
11278W        W30132  12.448  15.066  16.002  0.0366  0.1034 -0.0589
11279W        W30133  11.120   8.103   0.963 -0.3218 -0.0504  0.1337
11280W        W30134   9.239   2.218  14.675  0.0058 -0.0333 -0.0381
11281W        W30135   0.611  10.505  15.863  0.1759 -0.0691  0.1865
11282W        W30136  15.786   2.336   1.241 -0.0388  0.1158  0.1485
11283W        W30137   9.907   3.386   1.930 -0.3574  0.0831  0.0653
11284W        W30138  14.967  14.888  11.959 -0.0446 -0.1368 -0.2151
11285W        W30139   6.576   7.580  16.092 -0.1731  0.0281 -0.0880
11286W        W30140  15.051  16.072   2.990  0.0843 -0.1944  0.2897
11287W        W30141   4.044   7.557  13.965  0.0065 -0.2025 -0.2252
11288W        W30142   4.162   6.950   3.509  0.0058 -0.0788  0.2913
11289W        W30143  11.347   5.398  15.177  0.2227 -0.1036  0.0131
11290W        W30144   4.089   7.309   1.822 -0.0183 -0.1361  0.0219
11291W        W30145   7.049  14.528   0.978 -0.2899  0.2403  0.0853
11292W        W30146   8.409  17.582   3.836  0.0879 -0.1149  0.1027
11293W        W30147   7.705  14.371  15.523 -0.0398 -0.1847 -0.0015
11294W        W30148   1.922   8.870  13.029  0.1770 -0.0025  0.0778
11295W        W30149   8.047   2.396  15.631  0.0119  0.1130 -0.2405
11296W        W30150   3.669  11.023   2.839  0.0106  0.1522  0.0556
11297W        W30151   9.468  15.347  11.048  0.0269  0.1131  0.4727
11298W        W30152   6.140  17.848   1.761 -0.1009 -0.0154  0.1195
11299W        W30153   7.452  15.948  13.270  0.2789 -0.0568 -0.0469
11300W        W30154  10.356  14.608  12.021 -0.0671  0.2180 -0.1108
11301W        W30155   0.817   7.864   0.806  0.0335 -0.0729  0.2620
11302W        W30156   5.778   2.538   3.567 -0.3434  0.0450  0.1423
11303W        W30157  17.066  17.318  14.827 -0.0722 -0.0306  0.2777
11304W        W30158  16.522   9.442   0.391 -0.0588  0.0613 -0.1342
11305W        W30159   0.678   3.695  14.541  0.3171 -0.0292  0.1388
11306W        W30160  11.109   0.844   5.187 -0.0610  0.0689 -0.0851
11307W        W30161  16.097  10.693   0.995 -0.0190 -0.0140  0.0078
11308W        W30162   6.109  14.505  14.052 -0.0521  0.0255  0.2901
11309W        W30163   9.770  13.643  14.579 -0.1057 -0.2598 -0.0303
11310W        W30164  11.514   9.797  10.346  0.1701 -0.4238  0.1050
11311W        W30165   0.968  17.919   2.629 -0.1413 -0.0571 -0.1596
11312W        W30166  10.388   2.651  15.507 -0.1371  0.3091  0.4028
11313W        W30167   6.171  14.967   3.000  0.0823 -0.1051  0.2509
11314W        W30168  12.026   7.487   2.634 -0.0074 -0.1245 -0.1575
11315W        W30169   1.205  16.701   5.220 -0.2874  0.0257 -0.0535
11316W        W30170  14.223   2.731  15.329 -0.1751  0.3043 -0.0205
11317W        W30171  13.776   1.764   0.995 -0.0685  0.3833  0.0470
11318W        W30172   3.951  10.623   3.159  0.0626 -0.3221  0.1515
11319W        W30173   1.431  16.137  14.596 -0.2958 -0.0262  0.1264
11320W        W30174   8.284   9.235   2.953 -0.0481  0.0342  0.0828
11321W        W30175  13.284  13.105  13.159  0.0287 -0.0122 -0.0537
11322W        W30176   3.728  11.273   1.357 -0.0600 -0.0814  0.1022
11323W        W30177  13.279   7.136   1.313  0.1122  0.0383  0.0647
11324W        W30178  11.549  16.594  14.040  0.0988  0.0321 -0.1266
11325W        W30179   2.906  17.544   4.565  0.1766 -0.1806  0.0875
11326W        W30180  16.926   4.356  14.991  0.1375  0.0444 -0.3670
11327W        W30181  16.178  14.120   2.718 -0.2064 -0.1188  0.1546
11328W        W30182   8.697   5.872  12.997  0.0519  0.1438  0.0509
11329W        W30183   2.448   2.923   0.554 -0.1042 -0.2697 -0.1150
11330W        W30184   3.613  13.398   2.424  0.0494  0.2198  0.3050
11331W        W30185   4.777   5.894   2.789  0.0527  0.1766  0.2591
11332W        W30186  13.415   2.347   2.037  0.1025  0.2464 -0.0215
11333W        W30187  11.690   4.754  12.024 -0.1468 -0.0911  0.2344
11334W        W30188   5.004   8.587  12.830  0.4259  0.2009  0.2557
11335W        W30189  15.223  16.756   0.295  0.1655 -0.1775  0.2075
11336W        W30190  17.097   9.983  11.253 -0.0255  0.1142 -0.0298
11337W        W30191   1.060   1.712   4.598  0.0497 -0.0572 -0.2745
11338W        W30192  17.107   8.273   2.012 -0.0310 -0.0212  0.0674
11339W        W30193  11.607   2.317   4.685  0.1845 -0.1094 -0.0752
11340W        W30194  14.243  16.679   0.312  0.0865 -0.3977 -0.1751
11341W        W30195   7.131   6.206   5.853 -0.1131  0.0572 -0.2337
11342W        W30196   0.024  13.379  12.318 -0.1757 -0.0082 -0.1519
11343W        W30197  12.834   7.936  14.766  0.0709  0.2519  0.0449
11344W        W30198   7.144   0.785  12.058  0.0429 -0.2001  0.0601
11345W        W30199   0.729  13.816  12.805 -0.1563 -0.1367 -0.0152
11346W        W30200  15.597   1.520   4.888 -0.1321  0.1918 -0.0686
11347W        W30201  16.673  17.286  15.807  0.0693 -0.0668 -0.3247
11348W        W30202  12.291   2.936  13.197  0.2958  0.0977 -0.1734
11349W        W30203   0.227  14.011  13.984 -0.1656 -0.2460  0.3646
11350W        W30204   8.887  12.314  12.656 -0.1244 -0.0795 -0.0001
11351W        W30205  14.217   6.972  14.641 -0.1510 -0.1216 -0.2550
11352W        W30206  16.932   9.083  11.241 -0.0396  0.0048  0.0801
11353W        W30207  17.346  17.164   3.062 -0.1807  0.2682 -0.3378
11354W        W30208  13.733   5.609   3.611 -0.1146 -0.2321  0.3029
11355W        W30209   5.887  17.768   2.423  0.2202 -0.1018 -0.2143
11356W        W30210  15.364   6.048  12.332 -0.0285  0.1671 -0.2691
11357W        W30211   1.840  11.621  15.635 -0.0482 -0.0198  0.4670
11358W        W30212   5.671  15.444   3.917 -0.1403 -0.0763 -0.2807
11359W        W30213  14.500  15.736  12.840  0.0619  0.1280  0.2537
11360W        W30214   2.927  15.147  14.394  0.0522 -0.2082  0.2329
11361W        W30215  10.762  12.659  15.396 -0.3550  0.0819 -0.2499
11362W        W30216  11.293  11.057   1.291  0.1345 -0.0046 -0.1795
11363W        W30217   2.840  15.418   3.353  0.1198 -0.1286  0.2724
11364W        W30218  10.061   0.028   0.684 -0.2357  0.1236 -0.1641
11365W        W30219  14.643  15.383   0.895  0.0188 -0.0075 -0.3394
11366W        W30220  13.438  11.202  11.577  0.1695 -0.1916 -0.2632
11367W        W30221  17.570   5.468  15.294  0.0360 -0.2916  0.1746
11368W        W30222  14.153   7.382  12.029  0.1207  0.1625 -0.0331
11369W        W30223  10.461  10.028   4.119  0.0638  0.1568  0.0122
11370W        W30224  10.198   7.489  15.512 -0.1565  0.2127  0.1769
11371W        W30225   6.473  14.988  13.342 -0.0343  0.0006 -0.3246
11372W        W30226  11.398   6.328  11.718  0.3776 -0.1158 -0.0527
11373W        W30227   8.987  15.379  11.709  0.0432 -0.0282  0.1037
11374W        W30228   5.673  14.643   0.924  0.0880  0.1855  0.1778
11375W        W30229  12.065   4.095   4.434  0.0253  0.3605 -0.0991
11376W        W30230   5.833  15.400   3.001  0.0177 -0.3118  0.0725
11377W        W30231   0.895  16.711   3.249 -0.0486 -0.1044  0.1587
11378W        W30232   2.426  16.985  16.139  0.1475  0.0923 -0.0050
11379W        W30233  15.383   9.328   3.129 -0.0106  0.0395 -0.1070
11380W        W30234  17.632  11.080  14.010  0.0290  0.0584  0.0808
11381W        W30235  13.663  10.705   3.008  0.2622 -0.2107  0.1695
11382W        W30236   9.170  15.678  14.760 -0.0882 -0.1728 -0.2625
11383W        W30237  17.683   7.119   1.966  0.2078  0.0608  0.1130
11384W        W30238   3.420  11.532  13.803 -0.1191 -0.1954  0.0035
11385W        W30239  15.283  18.017  12.908 -0.1811  0.0662 -0.0707
11386W        W30240  16.330   9.756  12.653  0.0807  0.1741  0.0749
11387W        W30241   4.020   4.289  15.823 -0.2166 -0.0859 -0.2984
11388W        W30242  15.100   3.816   3.915  0.2849  0.1294  0.0542
11389W        W30243  17.557   2.474  10.924  0.2928  0.1004  0.2629
11390W        W30244   5.906   3.124   0.136  0.3118 -0.1060 -0.1603
11391W        W30245  15.387   4.555  12.890  0.2083  0.4889 -0.0800
11392W        W30246   3.708   8.305   5.030 -0.0293 -0.1704  0.1981
11393W        W30247  17.377  15.230  15.445 -0.0382  0.0978  0.1997
11394W        W30248   0.963   8.417   2.675 -0.0463 -0.3708 -0.2404
11395W        W30249   1.388  12.869   3.660  0.2426  0.2612  0.0156
11396W        W30250   3.247   5.244   2.551 -0.2823  0.1881  0.1929
11397W        W30251   4.321   4.747   3.398 -0.0626 -0.1587  0.0824
11398W        W30252  17.415   0.453  15.767  0.2062 -0.0129 -0.1226
11399W        W30253   5.083  17.120   0.005  0.1361  0.1399 -0.1866
11400W        W30254   7.701  11.419  12.364 -0.0857  0.0669  0.1913
11401W        W30255  15.536  11.407   1.027 -0.0948  0.2311  0.0759
11402W        W30256  14.894   7.891  13.216  0.3128  0.2274  0.1019
11403W        W30257   2.403   7.923  12.044  0.1402  0.0523 -0.0592
11404W        W30258  16.962  17.883  14.430  0.1014  0.1103  0.2106
11405W        W30259  17.501  10.673  11.504 -0.2488  0.1031 -0.1772
11406W        W30260   9.752   4.593  14.133 -0.0761  0.0609 -0.0093
11407W        W30261   7.666   0.023  13.032 -0.0622 -0.1147 -0.0702
11408W        W30262  11.383   7.697  12.975 -0.0361 -0.0898 -0.1021
11409W        W30263   5.557   6.576   3.377 -0.0639 -0.0620  0.0273
11410W        W30264   2.025  14.259   2.398 -0.1582  0.1123  0.2029
11411W        W30265  13.530   2.945   3.205  0.1194 -0.6688  0.1133
11412W        W30266  10.655  12.194   3.678 -0.0603  0.0395  0.2096
11413W        W30267   7.951   7.413   3.335  0.2818 -0.0854  0.1069
11414W        W30268  11.812   4.442  14.709 -0.1528 -0.0423  0.1349
11415W        W30269   2.334   3.856  13.858 -0.3233  0.0471  0.2720
11416W        W30270   0.566   8.309  11.278  0.3044  0.1702 -0.1104
11417W        W30271   5.428  12.868   1.575  0.0455  0.1574  0.1561
11418W        W30272  14.137  10.266  13.230 -0.0722  0.2288 -0.0592
11419W        W30273   7.836  16.313   4.902 -0.0503 -0.1129  0.0562
11420W        W30274  10.852   7.320   4.818  0.0252  0.0928 -0.1146
11421W        W30275   1.042   1.069   1.031  0.1118 -0.2371  0.0408
11422W        W30276  14.156   1.894  12.105 -0.0262 -0.1551  0.2770
11423W        W30277  12.533   3.387   2.852  0.0934  0.1249  0.1888
11424W        W30278   3.499  10.078  15.854 -0.1639 -0.2611 -0.0586
11425W        W30279   2.333  10.221  13.168  0.0485  0.1689  0.1085
11426W        W30280  14.659   1.373  13.551  0.3520  0.2011 -0.1097
11427W        W30281  10.904   5.609   0.176 -0.0041 -0.1998  0.1104
11428W        W30282  11.693  14.106  13.242 -0.1376 -0.0101 -0.0258
11429W        W30283   0.240   4.626  13.462  0.0825 -0.1021  0.0415
11430W        W30284  13.514  11.851   0.406  0.0870 -0.4433 -0.0128
11431W        W30285  15.392  17.091  13.407  0.0148  0.5834  0.1601
11432W        W30286   1.179   3.436   3.121  0.1925 -0.1566 -0.0331
11433W        W30287   5.682   5.627  15.491  0.0873 -0.1062 -0.1211
11434W        W30288   7.886   8.637  12.185  0.3004 -0.0850 -0.0368
11435W        W30289   2.341   9.901  16.185 -0.0125  0.0272 -0.1834
11436W        W30290   9.558  12.616  14.591  0.0611  0.0293  0.4368
11437W        W30291   1.287   6.734   1.199 -0.0778  0.3056  0.0547
11438W        W30292  15.717  10.725   1.674 -0.2329  0.0039  0.0737
11439W        W30293   4.584   3.472   2.874 -0.0823  0.0924 -0.0061
11440W        W30294   9.655   5.371  12.989 -0.3079  0.2035 -0.2023
11441W        W30295  15.072  16.958  15.019  0.1546 -0.0803  0.1423
11442W        W30296   5.532   7.805  15.312  0.2364 -0.0943  0.1660
11443W        W30297   9.536   9.215   2.729  0.1614  0.1897  0.0307
11444W        W30298  11.302   9.200   0.020  0.0698 -0.0594 -0.2378
11445W        W30299  12.525   0.977  12.337 -0.1503 -0.1364 -0.2842
11446W        W30300   2.970  13.634  15.391  0.0707  0.1638  0.2579
11447W        W30301   6.807   4.824   0.895 -0.0075 -0.1888  0.1457
11448W        W30302  17.884  10.880  15.038 -0.0855  0.1121 -0.1330
11449W        W30303   1.615   2.387  14.677 -0.0368 -0.6022  0.1007
11450W        W30304  13.654  16.025   1.561  0.2539 -0.1589 -0.4000
11451W        W30305   2.090   2.878  12.382 -0.0209 -0.3884 -0.1399
11452W        W30306   3.474   1.937   0.980  0.1538 -0.0282 -0.2109
11453W        W30307   6.113   7.471   2.741 -0.0661 -0.1412  0.0080
11454W        W30308   4.759  13.883   0.871  0.2546 -0.0531  0.0240
11455W        W30309  12.957  16.705   1.102  0.0883 -0.1746  0.2554
11456W        W30310   8.354  11.795   0.477 -0.1133  0.1333  0.3025
11457W        W30311  11.553   0.544   1.644 -0.0831 -0.3421 -0.1448
11458W        W30312  17.061   7.365   1.825 -0.2931  0.1190  0.1108
11459W        W30313   2.700  16.789   1.396  0.0788  0.0817 -0.4062
11460W        W30314  15.693  15.449   3.647  0.1345 -0.0754 -0.0868
11461W        W30315   9.147   4.827   0.385  0.3989  0.2109  0.1758
11462W        W30316  14.732  16.625   2.054  0.0173  0.0619  0.0781
11463W        W30317   3.620   0.072   2.191 -0.1903  0.2791 -0.3844
11464W        W30318   8.680  14.326  10.768 -0.1217  0.0651  0.2888
11465W        W30319  10.635   2.385  12.546  0.2291  0.1976 -0.1387
11466W        W30320  16.005   5.818  13.815  0.3205 -0.1410 -0.2668
11467W        W30321   9.512   4.211  14.442 -0.0816 -0.0127  0.1054
11468W        W30322   7.022   7.787   0.015  0.3640 -0.0758  0.1712
11469W        W30323  10.401  16.658   1.991  0.1263 -0.1622 -0.0865
11470W        W30324   2.759  16.370  13.510  0.0434 -0.2801  0.1598
11471W        W30325  17.800  12.651  16.129  0.1089  0.1626 -0.0644
11472W        W30326   9.928   5.916   3.180  0.0023 -0.3811  0.0407
11473W        W30327   4.144  12.310  11.939 -0.0365  0.1979 -0.4677
11474W        W30328   1.463   9.530  16.007  0.1608 -0.1771  0.1155
11475W        W30329  16.341   1.158   0.651 -0.2449  0.2044  0.0276
11476W        W30330  10.573  15.031   0.231 -0.1745  0.1005  0.0768
11477W        W30331  10.009  15.642   4.612  0.1023  0.1220 -0.1113
11478W        W30332   6.391   4.553   4.281 -0.1564 -0.0113 -0.0207
11479W        W30333  13.301  17.034  12.781  0.1077 -0.0196 -0.1413
11480W        W30334  15.124   3.346  16.183  0.0226 -0.0913 -0.0311
11481W        W30335   1.417   4.181   3.990 -0.0674 -0.2403 -0.1682
11482W        W30336  10.522   7.814   3.345  0.0205  0.0541 -0.2880
11483W        W30337  15.750   9.743   4.383 -0.2885  0.0917  0.1257
11484W        W30338  11.164   0.388   1.287  0.0078  0.2475 -0.3303
11485W        W30339  17.238   4.746  12.292 -0.0026  0.0304  0.2864
11486W        W30340   7.988  17.517   1.862  0.1989 -0.1718  0.0665
11487W        W30341   1.161   2.490  13.953  0.1925  0.1642 -0.0550
11488W        W30342   2.225   4.628  14.147 -0.0498 -0.0876  0.1584
11489W        W30343   1.876  11.276  12.147 -0.0090 -0.1850  0.3186
11490W        W30344  11.651  12.076  14.276  0.0271  0.1806  0.3368
11491W        W30345   6.058  15.837   3.957 -0.3125 -0.3253  0.1931
11492W        W30346   7.313  12.217   2.349  0.0962 -0.0058 -0.0752
11493W        W30347   8.988   1.965   5.105 -0.2090 -0.1327 -0.1095
11494W        W30348  16.002   0.588   4.420  0.0906 -0.2364  0.0064
11495W        W30349  15.598  14.199   0.045  0.1419 -0.0392  0.1826
11496W        W30350  10.679   2.940  15.771  0.1590  0.0759 -0.2932
11497W        W30351   0.227   4.560   2.224 -0.1467 -0.2583  0.0216
11498W        W30352   0.783   0.209  12.392  0.0787  0.1598  0.0083
11499W        W30353  12.609   1.535   0.513 -0.2366 -0.0312  0.4833
11500W        W30354   3.719  16.287  13.103  0.2780  0.0297  0.0199
11501W        W30355   3.736   8.361  13.504  0.1849  0.1320  0.0998
11502W        W30356   6.731   8.388  15.097  0.0548  0.1839  0.0807
11503W        W30357  13.492   6.866  11.441  0.0941  0.0198 -0.0528
11504W        W30358   6.884   9.685  11.460  0.0076 -0.2949 -0.1553
11505W        W30359  15.784   6.070  14.229 -0.0800 -0.3362 -0.1533
11506W        W30360  15.605   7.623  13.529  0.0802  0.3938 -0.1821
11507W        W30361   3.555   1.332   2.585 -0.1540  0.1371 -0.2464
11508W        W30362   4.083  10.710   3.649  0.2304  0.3289  0.1103
11509W        W30363  12.838  15.633   0.210 -0.0434  0.0154  0.0927
11510W        W30364  15.635   2.016  13.124  0.0099  0.1632  0.0215
11511W        W30365  14.381  10.225  14.313  0.2183  0.1310  0.0110
11512W        W30366   5.612  11.904   2.783  0.1045 -0.0937 -0.0240
11513W        W30367  11.772  17.332  14.345 -0.0233 -0.1826  0.0192
11514W        W30368   0.325   6.287   0.998 -0.1183 -0.0295  0.0708
11515W        W30369   9.624   5.149   0.513  0.2908 -0.0441  0.2695
11516W        W30370  12.297  12.404   2.904  0.0272  0.0574 -0.3191
11517W        W30371  11.489  11.011  11.355 -0.0525  0.1845 -0.0852
11518W        W30372   7.870  17.141   2.247  0.2164  0.0543 -0.1184
11519W        W30373   8.033  16.750   2.597  0.0379 -0.1463 -0.0905
11520W        W30374   1.781   4.350   4.355  0.1043  0.1446 -0.2342
11521W        W30375   2.482  13.027  13.938 -0.0220  0.0052  0.2907
11522W        W30376   0.840   3.708  15.368  0.0019 -0.1271 -0.1212
11523W        W30377  14.776  12.882  11.415 -0.2246 -0.0782 -0.3733
11524W        W30378   2.015  17.721  12.545  0.1574  0.1755 -0.1284
11525W        W30379   3.076  10.931   4.502  0.0361 -0.1143 -0.0769
11526W        W30380   2.751  16.186  13.016  0.2162  0.0498 -0.3633
11527W        W30381  11.703   5.690   1.123 -0.0062 -0.0709 -0.0509
11528W        W30382  14.867  14.060  14.241 -0.3150 -0.2266 -0.0020
11529W        W30383  16.847   3.634  12.886 -0.2396  0.1360 -0.0813
11530W        W30384  15.604   3.711   3.829  0.1719 -0.0601 -0.0985
11531W        W30385   2.000  16.779  12.800 -0.1087 -0.1271  0.1335
11532W        W30386  12.146   0.261   0.412  0.2543  0.1028 -0.3486
11533W        W30387   7.731   8.614   3.274 -0.2959 -0.0425 -0.0849
11534W        W30388   3.573   9.793   4.837 -0.0405  0.1578  0.1968
11535W        W30389   6.171   6.566  12.714 -0.2583 -0.1315  0.1913
11536W        W30390  11.837   6.256  12.909  0.0498  0.1229 -0.1363
11537W        W30391  13.388  10.864   1.720 -0.1265  0.1779  0.0443
11538W        W30392  13.300  13.955   4.862  0.1268  0.2229 -0.0677
11539W        W30393  12.806   2.676   3.140  0.1246  0.0954  0.1404
11540W        W30394   4.561  16.271   1.190 -0.1967  0.1505  0.0730
11541W        W30395  15.459   9.632   3.996 -0.0350  0.4784  0.2865
11542W        W30396   0.575  10.626   1.069  0.0602  0.2533  0.1071
11543W        W30397  16.710  15.330  14.703 -0.0036  0.0060  0.1974
11544W        W30398   7.710  17.703  11.759 -0.1409 -0.1154  0.2908
11545W        W30399   9.069  12.547  15.908 -0.0215  0.0189 -0.1112
11546W        W30400  11.782  13.094   0.052 -0.2222  0.0385  0.1471
11547W        W30401   6.132  15.091  13.922 -0.0665 -0.0593 -0.2169
11548W        W30402  11.958  10.742  13.566 -0.0408 -0.1845  0.1640
11549W        W30403   9.123   2.469   1.630 -0.0253  0.1970 -0.0574
11550W        W30404   6.697  11.121  11.517 -0.0385  0.0107  0.0549
11551W        W30405  12.767   3.783   3.757  0.2218 -0.1814 -0.0602
11552W        W30406  14.293   1.717   1.796  0.2277 -0.0612 -0.2331
11553W        W30407  14.706   2.516  15.172  0.1311 -0.0474 -0.0528
11554W        W30408  17.181  10.551   1.114 -0.0973  0.2988  0.0294
11555W        W30409   7.960   8.443   5.792  0.0568 -0.1801 -0.1124
11556W        W30410   5.223  15.601  12.989 -0.0133  0.3233  0.1556
11557W        W30411   2.206   2.849  14.633  0.2400 -0.1128 -0.0055
11558W        W30412  16.482   7.719  13.639 -0.2853  0.0726 -0.0012
11559W        W30413   5.643   6.912  13.094  0.2268  0.0633  0.2609
11560W        W30414   8.774   2.934  16.208  0.0638 -0.2489  0.2495
11561W        W30415   5.543  13.295   1.215  0.1220  0.3364  0.1377
11562W        W30416   6.059  12.349   3.286 -0.0614  0.0394  0.0306
11563W        W30417   9.669  10.552   3.172 -0.3881 -0.3264  0.0059
11564W        W30418   2.830  14.561  12.033  0.2064 -0.1295 -0.1680
11565W        W30419   3.838   1.843  12.888 -0.0025  0.0458  0.2468
11566W        W30420   3.560  12.624  12.669  0.1640  0.1055  0.1061
11567W        W30421   0.755   3.012   2.201  0.2566  0.1166  0.1803
11568W        W30422  15.200  16.231   2.136  0.0733  0.1991 -0.4071
11569W        W30423   7.704  15.728   0.342  0.0230 -0.0767 -0.0433
11570W        W30424   4.554   7.250   3.300 -0.0283  0.0356 -0.1052
11571W        W30425   1.330   3.912  15.535 -0.0526  0.2201  0.0368
11572W        W30426   4.201   9.733  13.233 -0.2050 -0.0412  0.1307
11573W        W30427   3.767   0.709   0.854 -0.1315  0.2258 -0.3525
11574W        W30428  16.465  13.482   0.670  0.0382 -0.2391  0.1061
11575W        W30429   6.119   9.541   3.853  0.0594 -0.0351 -0.0513
11576W        W30430   5.660   2.301   0.516 -0.2725 -0.2522  0.1812
11577W        W30431  17.325   6.298  14.473 -0.0976  0.2180 -0.2725
11578W        W30432   3.909  16.999   4.669  0.3409  0.1242  0.0677
11579W        W30433   4.285   6.922  12.595  0.1247 -0.2384  0.1390
11580W        W30434  17.728   9.344  14.029  0.3652 -0.3683  0.1207
11581W        W30435  15.366   5.461   2.877  0.0895 -0.0449 -0.3933
11582W        W30436   5.262   3.688  15.061  0.3996 -0.4554 -0.0787
11583W        W30437   3.799  13.544  11.755  0.2699  0.2321  0.0580
11584W        W30438   7.999   7.938   1.377 -0.2414 -0.2136  0.1006
11585W        W30439   1.917   7.601  10.736 -0.0973  0.2601 -0.3312
11586W        W30440   6.929   5.151   4.723 -0.1566 -0.1301 -0.0376
11587W        W30441   8.904  14.815  12.477  0.2075 -0.0876  0.0185
11588W        W30442   2.941   4.168  11.987 -0.2874 -0.2264  0.2134
11589W        W30443   6.706  12.025   3.881 -0.3987  0.0175  0.3675
11590W        W30444   1.978  17.402   4.464 -0.1651  0.0926  0.1934
11591W        W30445  10.703  15.424   4.257 -0.1057  0.0095  0.0892
11592W        W30446   4.511  10.724   1.712  0.0335  0.2585  0.0982
11593W        W30447  12.971   7.900  15.382 -0.0513  0.0382 -0.0002
11594W        W30448  17.516  14.565   4.936 -0.1015 -0.0157 -0.2151
11595W        W30449   0.939  10.297   3.864  0.0574 -0.2066 -0.2024
11596W        W30450  16.310  14.848   4.696  0.0803 -0.1175  0.0859
11597W        W30451   9.322  17.030  12.050 -0.0281  0.0684 -0.0488
11598W        W30452   4.904   3.884   2.531  0.1304  0.4163  0.1257
11599W        W30453   6.807   3.867   0.019 -0.0549  0.2698 -0.0942
11600W        W30454   2.801   0.122   0.532 -0.0073  0.2170 -0.3167
11601W        W30455  17.674  10.002  12.538  0.1308 -0.1651  0.1475
11602W        W30456  14.937   2.735  12.856  0.1931  0.0305  0.0150
11603W        W30457  13.205   9.039   4.447  0.0371 -0.0394  0.0458
11604W        W30458  10.609   7.086  13.038  0.2580 -0.0813  0.3359
11605W        W30459  15.247   6.988  11.924 -0.3133 -0.3558 -0.0000
11606W        W30460   0.674   5.306   1.548  0.0093 -0.0067 -0.1632
11607W        W30461   8.289  13.073  14.350  0.0046 -0.0035 -0.1042
11608W        W30462   6.159   4.150  14.759  0.2872  0.0594 -0.1973
11609W        W30463  16.071   3.491  14.900 -0.3428  0.1583 -0.0321
11610W        W30464   8.040   2.293   3.274 -0.2103 -0.0044 -0.1978
11611W        W30465   8.165  16.159   1.092 -0.0153 -0.2188 -0.2685
11612W        W30466   2.876   5.607   1.359  0.0116  0.1006  0.0840
11613W        W30467   1.690  14.642   2.300 -0.2419  0.0303 -0.1379
11614W        W30468   3.368  15.321   3.574  0.2987  0.1010 -0.4807
11615W        W30469   7.967   2.018  12.218 -0.1581 -0.0449  0.0417
11616W        W30470   9.066   0.360  14.321 -0.0124 -0.2210  0.2160
11617W        W30471   6.806   1.683   4.957 -0.4225  0.1789  0.0968
11618W        W30472   0.871   8.424  14.319 -0.0886 -0.0737 -0.0224
11619W        W30473   9.984  15.166   3.756  0.0129  0.0965  0.1038
11620W        W30474   6.515   8.281   2.605  0.3420 -0.0861  0.0639
11621W        W30475   4.251   9.809  15.117 -0.2810  0.0911 -0.2289
11622W        W30476   8.730   5.926   0.879 -0.1661 -0.1186 -0.1286
11623W        W30477   3.941  12.943   3.794 -0.0049  0.2570  0.3065
11624W        W30478   2.358  10.234  14.698  0.2718 -0.0034  0.1145
11625W        W30479   1.319  15.832   0.943 -0.0628  0.0559  0.3380
11626W        W30480   2.614  11.506   5.073 -0.2134  0.1140  0.0352
11627W        W30481  17.032  13.837  12.657  0.0009  0.0019 -0.2179
11628W        W30482  12.569  14.566  12.693 -0.0827 -0.0463 -0.1076
11629W        W30483   3.853   9.263   4.018  0.1742 -0.1139 -0.0663
11630W        W30484  14.482   1.549  15.063 -0.2418 -0.1539  0.0118
11631W        W30485  12.921   5.798   3.989  0.0269 -0.1226  0.0273
11632W        W30486   7.556   2.744  14.272  0.0607  0.0526 -0.0056
11633W        W30487  12.967  17.232   1.178 -0.0319  0.1708 -0.0219
11634W        W30488  15.085   5.045   3.538 -0.0761 -0.0470  0.0989
11635W        W30489   0.295   0.580   0.615  0.1189 -0.2012 -0.0598
11636W        W30490   4.016  15.571  12.046  0.0597 -0.3370 -0.0664
11637W        W30491   7.784   8.667  14.872  0.3059  0.3838 -0.1876
11638W        W30492   1.003   4.557   1.386  0.0254  0.1068  0.0756
11639W        W30493  11.731   1.728  11.403 -0.1803  0.0627  0.0359
11640W        W30494  17.402   3.863   1.571 -0.0264  0.0736 -0.1917
11641W        W30495  10.076  14.300   3.336 -0.3986  0.0775 -0.0607
11642W        W30496   3.245  11.268  11.874 -0.0179  0.3076 -0.2397
11643W        W30497   9.509   4.248   3.106 -0.0545  0.0455  0.2297
11644W        W30498   4.086   2.393  12.277 -0.0092 -0.1122 -0.1455
11645W        W30499   6.784   2.309  15.971 -0.0469  0.1462  0.0312
11646W        W30500  13.801   7.049  11.817  0.0650  0.0408  0.0202
11647W        W30501  17.574   6.134  11.161 -0.2444  0.0558  0.2213
11648W        W30502   7.669   1.334  14.299 -0.4614 -0.0377  0.0443
11649W        W30503   1.083  11.245   2.801 -0.1508 -0.0512 -0.0091
11650W        W30504   3.986  15.144  12.806  0.1676 -0.0262 -0.2192
11651W        W30505  12.316   1.964  13.439  0.1039  0.0032 -0.2225
11652W        W30506  17.938   3.482  11.703  0.1421 -0.0461  0.0506
11653W        W30507   5.574  10.335   0.554  0.1378 -0.2723  0.2084
11654W        W30508   7.565   5.150  13.549 -0.2623  0.0995  0.0145
11655W        W30509   4.212   7.566  15.534  0.1581 -0.0825 -0.0475
11656W        W30510  13.171  12.358  14.779 -0.2904 -0.1540 -0.1601
11657W        W30511  17.547   9.678  13.159  0.0152 -0.0205 -0.1314
11658W        W30512   8.013  14.856   0.186 -0.2359  0.0133  0.4338
11659W        W30513  13.781  12.166  12.171  0.0993  0.0396 -0.3125
11660W        W30514   9.297  13.880  12.338 -0.0471 -0.0476 -0.1667
11661W        W30515  12.609   3.813  11.373 -0.0015 -0.0839 -0.1251
11662W        W30516   3.764   7.520   4.629 -0.1727 -0.1868 -0.2815
11663W        W30517   6.225  12.747  12.289 -0.3301  0.2855  0.1474
11664W        W30518   4.833   2.121   2.944  0.0563  0.3334  0.0619
11665W        W30519   8.016   7.806   2.903  0.1189 -0.1114 -0.0509
11666W        W30520  14.096  15.422   3.350  0.0099  0.1333 -0.0773
11667W        W30521   4.825  15.541  15.186 -0.1388  0.0321  0.0566
11668W        W30522   9.443   4.679   0.778  0.0418 -0.0538 -0.0401
11669W        W30523  10.975   1.660  16.067  0.2837 -0.1104 -0.1961
11670W        W30524   9.237   5.206   0.058  0.5134  0.0542 -0.0350
11671W        W30525   8.531  12.832   4.010  0.0898  0.0133  0.3366
11672W        W30526   9.167  15.463  16.051  0.1055 -0.1777 -0.1511
11673W        W30527   7.005  15.056   3.453 -0.0274 -0.0070 -0.1533
11674W        W30528  13.068   5.696  11.880  0.0907 -0.0386  0.0027
11675W        W30529  12.502  12.503  10.495  0.1358  0.1526  0.0078
11676W        W30530  13.224  11.983   4.049  0.2779  0.0491 -0.0964
11677W        W30531   2.205   6.734  11.091 -0.0272  0.1026  0.0969
11678W        W30532   3.316  14.651  15.780  0.1948 -0.1467 -0.2581
11679W        W30533   9.876  10.884   0.927  0.0104 -0.0606  0.3928
11680W        W30534   4.946  12.600  14.110  0.1468 -0.0957 -0.3170
11681W        W30535   9.287  11.376  13.248  0.3526  0.1639  0.0389
11682W        W30536  12.559   7.095  11.306 -0.1741  0.1926  0.1868
11683W        W30537  12.182  10.580  13.985  0.1834  0.0371 -0.0932
11684W        W30538  17.673  13.369  13.473 -0.0346  0.2470 -0.2544
11685W        W30539   3.358   4.025   4.012 -0.2988 -0.1537  0.4440
11686W        W30540   3.092   0.780  13.639  0.0538 -0.2201  0.1138
11687W        W30541   5.753  13.746   0.430  0.0599  0.1649 -0.1936
11688W        W30542   8.084  10.447   4.652  0.0282  0.0149 -0.1281
11689W        W30543  16.897   5.968   2.203  0.1806 -0.1419  0.0848
11690W        W30544   4.040  16.385   1.106 -0.0941  0.0847 -0.1386
11691W        W30545   4.508  16.477  10.893 -0.0220 -0.0937  0.0904
11692W        W30546   8.121  12.696   1.549  0.1859 -0.2525  0.0347
11693W        W30547   1.840  15.610  13.771  0.0294 -0.0022 -0.3769
11694W        W30548  12.073  14.184  11.866  0.0533  0.0350  0.0624
11695W        W30549  16.507  14.414   1.903 -0.0146  0.1472  0.0749
11696W        W30550  12.883   8.860  12.763  0.2126  0.2085 -0.2860
11697W        W30551  12.347   2.411  13.173  0.0873 -0.1528 -0.1141
11698W        W30552  15.881  12.889   4.062  0.0020  0.0097 -0.2719
11699W        W30553  12.531   2.913  15.272  0.0289  0.1637  0.0106
11700W        W30554   0.849   3.240  15.739 -0.1705 -0.0167 -0.3864
11701W        W30555  15.851  14.960  14.644 -0.1046  0.0873  0.2347
11702W        W30556   9.949   3.629   2.974  0.0131  0.0750 -0.0453
11703W        W30557   3.898   3.345  15.501 -0.0142  0.2542  0.1007
11704W        W30558  16.749  10.781  11.097  0.0989  0.0408  0.1794
11705W        W30559  14.111   9.239  11.995  0.2354  0.0886  0.1528
11706W        W30560   6.887   7.295   4.244 -0.1067 -0.1281 -0.1925
11707W        W30561   5.625   0.192   2.402  0.3483 -0.1388  0.0138
11708W        W30562   9.699   7.610  12.946 -0.0354  0.1428  0.1822
11709W        W30563  11.246  15.746   1.286  0.0510  0.0386 -0.3238
11710W        W30564   6.967   6.022   2.274  0.0724 -0.2186  0.0225
11711W        W30565  17.515   5.932  13.497  0.2676  0.0754  0.0916
11712W        W30566  11.311  12.793   5.760  0.4118  0.0003 -0.1285
11713W        W30567  13.808  12.191  14.138 -0.0463  0.1281  0.1181
11714W        W30568  17.985   0.689   2.241  0.2722 -0.1697 -0.1908
11715W        W30569   0.525  14.498   1.593  0.1786 -0.1942 -0.0928
11716W        W30570  17.330   8.637  11.532  0.0672 -0.0599 -0.1282
11717W        W30571   7.807   1.802  14.464 -0.0741 -0.4580 -0.2068
11718W        W30572  12.892  11.024  15.033  0.0238 -0.1653  0.1411
11719W        W30573  17.055  13.225   2.498  0.2017 -0.2384 -0.4586
11720W        W30574  10.714   3.128  12.886 -0.0101  0.2390  0.0367
11721W        W30575  14.595   7.750   3.826  0.0312  0.0384  0.1525
11722W        W30576  17.522   3.578   2.122  0.0231  0.0320 -0.1759
11723W        W30577  12.311  13.761  15.138  0.2569 -0.3169 -0.0747
11724W        W30578  11.627   9.289  12.891  0.1289 -0.1235 -0.0411
11725W        W30579  10.522  17.270  13.352 -0.0949 -0.1063 -0.2289
11726W        W30580  15.400   3.671  12.719  0.1123 -0.2871  0.0746
11727W        W30581  13.969   9.573   1.531 -0.2240 -0.0173 -0.0072
11728W        W30582  11.711  15.871   1.173  0.2616 -0.2064  0.2176
11729W        W30583   6.757   5.409  10.499  0.1927  0.3027 -0.0703
11730W        W30584   3.670   6.265   2.913 -0.1313  0.0968 -0.2069
11731W        W30585   9.963  15.540  13.263  0.1114 -0.1063 -0.0729
11732W        W30586   9.252   8.238   1.270  0.2211  0.0222 -0.0241
11733W        W30587   8.467  12.168   0.782  0.2917  0.0536  0.0780
11734W        W30588  16.986  12.913   0.101 -0.1826  0.3486 -0.0813
11735W        W30589   7.104   6.365  13.837 -0.1780 -0.1999 -0.0198
11736W        W30590  15.152  12.673  10.835 -0.0611  0.2821  0.1758
11737W        W30591   1.028  13.569  13.154 -0.1483 -0.1722  0.0362
11738W        W30592   8.993  10.959   4.757 -0.0685 -0.1190  0.1588
11739W        W30593  12.400  16.333  13.462  0.2033 -0.2330  0.0206
11740W        W30594  17.516  16.048  14.174 -0.1374 -0.0737  0.4193
11741W        W30595  14.008   9.375  15.531  0.1260  0.0659 -0.1621
11742W        W30596   6.236   2.155  15.143  0.0925 -0.2743  0.2607
11743W        W30597   7.359   0.706   2.542  0.0572 -0.0284 -0.0363
11744W        W30598   2.094   0.877  13.319  0.1809 -0.0984  0.3336
11745W        W30599  17.263   6.323   0.783  0.2062  0.0194  0.0404
11746W        W30600  16.071  14.659  13.857 -0.2320  0.1336 -0.0696
11747W        W30601  16.395  13.471   3.570 -0.1797 -0.1154  0.0303
11748W        W30602   8.591  16.855  16.063  0.0589 -0.1674  0.2257
11749W        W30603   7.659   4.224   2.934 -0.0954 -0.0396  0.0437
11750W        W30604  11.050   0.196  12.483  0.1943 -0.0472  0.3981
11751W        W30605   7.968  15.648   2.997  0.0493 -0.0000 -0.2007
11752W        W30606   7.700  11.275  14.807  0.0129 -0.0615 -0.0232
11753W        W30607   5.660   7.932  15.840 -0.0835  0.0805  0.0361
11754W        W30608   1.460   8.528   3.680 -0.1234 -0.1782  0.0202
11755W        W30609  11.239   7.043   0.328 -0.0770  0.0652 -0.3649
11756W        W30610  17.593  10.951  14.639  0.1290 -0.2852 -0.1575
11757W        W30611  14.421  11.317   4.024 -0.0768 -0.2322  0.0256
11758W        W30612  11.938  13.789  15.545  0.1023  0.0165  0.3125
11759W        W30613   9.829  11.650   2.810  0.0987 -0.0500 -0.0777
11760W        W30614  10.195   3.633  12.837  0.0501  0.1743  0.3009
11761W        W30615   9.088   6.419   2.369  0.1096  0.0022  0.1330
11762W        W30616   2.970  12.566   1.359 -0.1958 -0.2839  0.0102
11763W        W30617   3.554   0.691  10.251  0.0787  0.0324  0.0801
11764W        W30618   0.161   1.034   4.017  0.1012 -0.1397 -0.0116
11765W        W30619   3.734   8.877  11.121 -0.0673  0.2451  0.2829
11766W        W30620  12.639  13.949   3.172  0.1666  0.1790  0.2900
11767W        W30621   6.640   8.823  12.495  0.0306  0.3410 -0.0227
11768W        W30622   8.936   6.345   4.632 -0.0905 -0.0410  0.0111
11769W        W30623   8.670   1.998   1.212 -0.1187 -0.0741  0.3893
11770W        W30624   2.768  18.039  14.739 -0.1851 -0.3385  0.2174
11771W        W30625  10.647   1.191   3.609 -0.0290  0.2916  0.6081
11772W        W30626  10.837   9.085  15.623 -0.0526  0.4249  0.0638
11773W        W30627   9.790   4.543  11.831  0.1213  0.3026 -0.1299
11774W        W30628   9.823  11.176  14.724 -0.1396 -0.2471  0.4184
11775W        W30629   3.645   4.653   3.036  0.1610  0.0028 -0.0701
11776W        W30630   9.455   3.524   4.447  0.2273  0.2537 -0.0615
11777W        W30631   7.678   1.576   4.452  0.2159 -0.0895  0.3681
11778W        W30632  12.886  15.643   1.097  0.0281  0.0651 -0.1719
11779W        W30633   5.067  13.982   3.420 -0.3521  0.2112  0.1623
11780W        W30634   3.434  13.997   4.655  0.0450 -0.0498  0.1900
11781W        W30635  12.129  15.127  14.118 -0.2517 -0.0759 -0.1109
11782W        W30636  13.201  11.358  12.018  0.2218 -0.1319 -0.1163
11783W        W30637   9.973   3.121  14.018  0.1187 -0.0414  0.1756
11784W        W30638  17.777   6.386   1.019 -0.0252  0.1145 -0.0922
11785W        W30639   5.455   4.394   1.722 -0.3617  0.0939  0.2370
11786W        W30640  15.431   3.429  14.188  0.2510 -0.1197  0.1870
11787W        W30641  14.912  11.568  11.718 -0.1482  0.1222  0.0076
11788W        W30642  12.655   8.781   1.398 -0.1244  0.0794 -0.0875
11789W        W30643   6.525  16.318  12.576  0.0582 -0.2039  0.0487
11790W        W30644  15.497   6.751  13.804  0.1926  0.0607 -0.0449
11791W        W30645  14.020   3.950   1.385 -0.1885 -0.2486 -0.3532
11792W        W30646  16.593  10.006  14.502 -0.0220 -0.0102 -0.2983
11793W        W30647  13.828   8.088  13.803 -0.0089  0.0858  0.2958
11794W        W30648  11.114   9.305  13.638 -0.0496  0.2561  0.0665
11795W        W30649   7.326   3.037  15.227  0.0567  0.1222  0.2331
11796W        W30650  10.457   7.537   1.028 -0.2263  0.3479  0.3550
11797W        W30651   8.148   0.497  14.932  0.0844 -0.2091  0.0784
11798W        W30652   7.246  15.247   2.559 -0.2194  0.0612 -0.1026
11799W        W30653  16.549  12.358   2.746  0.2428 -0.3093  0.0413
11800W        W30654  17.623   7.298  11.758 -0.3523 -0.0226  0.0108
11801W        W30655  14.223  16.658   1.278  0.2609  0.0711 -0.2154
11802W        W30656  16.601   6.483  13.001  0.0941  0.0192 -0.1245
11803W        W30657  14.061  16.223  15.154  0.1461 -0.1852  0.0077
11804W        W30658   9.327   0.618  15.284 -0.0631 -0.0596 -0.1885
11805W        W30659   9.498   5.227   3.062 -0.0194  0.4772  0.0444
11806W        W30660  16.854  10.123  15.947  0.1090  0.0509 -0.0824
11807W        W30661   1.147   5.990   2.607 -0.0480  0.1441 -0.2246
11808W        W30662   8.401   9.270  14.805  0.0277 -0.3500 -0.1290
11809W        W30663   8.426  16.615   0.917 -0.0643 -0.2054  0.3437
11810W        W30664   1.578   1.270  14.006 -0.1246  0.0463  0.2012
11811W        W30665   0.842  11.145  13.446  0.1654  0.0730  0.2118
11812W        W30666   5.255  15.273   3.042  0.1142 -0.2767  0.2184
11813W        W30667   4.277  10.223   1.864 -0.0049 -0.0161  0.2486
11814W        W30668  11.282   3.602   3.995 -0.1021  0.4016 -0.0546
11815W        W30669  14.328   7.272  13.825  0.0696 -0.2755  0.1694
11816W        W30670  15.372   3.610   3.000 -0.0440  0.0424  0.0312
11817W        W30671   1.910  12.026   2.751 -0.0888 -0.3163 -0.0271
11818W        W30672   2.337  15.509   1.752 -0.3626 -0.0594  0.0825
11819W        W30673  11.685  12.838  11.855 -0.0571 -0.1081  0.0952
11820W        W30674   9.901   2.746  11.920  0.0040 -0.0202 -0.0168
11821W        W30675   0.411  13.441   0.012 -0.2644  0.1046 -0.4084
11822W        W30676   3.979  15.057   3.444 -0.0862 -0.2292  0.0034
11823W        W30677  10.462  13.278   0.051 -0.3376 -0.3450  0.1625
11824W        W30678   3.726  15.925  15.223  0.0297 -0.0174  0.6240
11825W        W30679  15.051  11.319  13.061 -0.3317 -0.0349  0.1913
11826W        W30680   0.339  11.023   4.358  0.1661  0.3183  0.2855
11827W        W30681   1.213  14.838   3.937 -0.1781  0.0690  0.0566
11828W        W30682   6.695  10.317   1.717  0.2077  0.3829  0.1312
11829W        W30683   4.095   1.014   2.275 -0.1110 -0.1804 -0.0429
11830W        W30684   1.457   3.188   3.964  0.4265 -0.0544 -0.0004
11831W        W30685  11.354   4.251  13.226 -0.1759 -0.0077 -0.1417
11832W        W30686  11.573  12.859   2.840  0.0225  0.0593  0.1079
11833W        W30687  16.440  12.236   1.208 -0.0228 -0.1308  0.2028
11834W        W30688   0.638  13.673   3.031 -0.1512  0.0466 -0.1954
11835W        W30689   4.266   3.671   3.624 -0.0419 -0.0335  0.0329
11836W        W30690  17.724   4.534   1.998  0.1092 -0.2424 -0.0059
11837W        W30691  13.834  10.673   1.928  0.1650  0.3643 -0.1090
11838W        W30692   5.856   4.131  12.041 -0.2929  0.2742  0.2198
11839W        W30693   0.841  12.585   0.066  0.1032  0.0270 -0.3024
11840W        W30694  11.187   7.134  11.504 -0.0124  0.0469  0.1713
11841W        W30695  12.669   9.314   3.589 -0.0073  0.0724  0.1692
11842W        W30696   2.602   4.860  13.707  0.1720 -0.0824  0.0615
11843W        W30697  11.911   5.247   0.320 -0.1802  0.0026 -0.3571
11844W        W30698  12.474   8.183   4.666  0.1362 -0.2201  0.0727
11845W        W30699  11.734   5.968   3.968 -0.0291 -0.1257 -0.1863
11846W        W30700  17.759   7.825  12.636 -0.0945  0.2015 -0.1780
11847W        W30701  10.125   1.190   3.360  0.1506  0.2688  0.3189
11848W        W30702  10.249   8.676   4.959 -0.0532  0.0376 -0.4370
11849W        W30703   4.316   8.355   3.038  0.0396 -0.0741  0.0576
11850W        W30704   0.576  16.522   3.567 -0.1874  0.3922 -0.2402
11851W        W30705   1.313  10.484   0.542 -0.4554  0.1455 -0.1182
11852W        W30706   7.464  10.428   3.850 -0.0923 -0.0603  0.0523
11853W        W30707  14.648  16.163   2.122  0.1113  0.4097 -0.3488
11854W        W30708   8.755   0.337   4.864 -0.0287 -0.0768  0.3981
11855W        W30709   0.361   6.384  13.279  0.1442  0.0971  0.1086
11856W        W30710  15.362  12.144   1.359 -0.2555 -0.2208 -0.3102
11857W        W30711   2.411   5.526   0.589  0.1674  0.2062 -0.1406
11858W        W30712   1.844  17.584   0.581 -0.0156 -0.0442  0.0828
11859W        W30713   9.796   7.041  14.497  0.0612  0.0123 -0.0444
11860W        W30714  12.380  11.162  14.168 -0.0029 -0.4219  0.0077
11861W        W30715  10.649  11.366   6.044  0.0462 -0.0952 -0.2060
11862W        W30716   9.018   8.845  11.803 -0.3268  0.2116  0.1579
11863W        W30717   9.258   3.083   0.112 -0.0513 -0.4143 -0.3102
11864W        W30718   3.322  12.955   0.032 -0.1895 -0.2092 -0.0618
11865W        W30719  16.524   8.519  12.250  0.0324  0.1347 -0.1589
11866W        W30720  12.881   7.377   1.602 -0.3272 -0.0134  0.1269
11867W        W30721  14.215   1.794   2.935 -0.0724  0.2594  0.0402
11868W        W30722   6.496  12.519  13.350 -0.0614  0.1165 -0.1070
11869W        W30723  11.494  15.297   0.591  0.2883  0.1381  0.2944
11870W        W30724  10.693  14.329  14.703  0.3672 -0.0633 -0.1028
11871W        W30725  10.218   2.162   1.735 -0.0864  0.7860  0.1128
11872W        W30726   1.422   4.196   1.412  0.0511  0.1558 -0.0641
11873W        W30727  15.448   9.857   1.997  0.0187 -0.0281 -0.2062
11874W        W30728  14.205  14.019  15.156  0.3426  0.3076 -0.0308
11875W        W30729  15.178   6.218  13.144  0.1404 -0.1284  0.2879
11876W        W30730   2.444  13.661  16.042  0.1591  0.3603  0.1553
11877W        W30731   4.643  17.730  13.692  0.0238 -0.1567 -0.0230
11878W        W30732  17.713   4.300   1.563  0.0034 -0.1725  0.0253
11879W        W30733   5.250   5.559  14.537 -0.1221 -0.0346  0.0013
11880W        W30734  13.395   7.646  15.403 -0.0331  0.1506  0.0505
11881W        W30735   5.104  14.622   4.707 -0.0054  0.0049  0.1566
11882W        W30736  11.413  12.856  14.057 -0.2808 -0.2202 -0.1283
11883W        W30737   1.212   8.603   3.097 -0.0794 -0.1288 -0.1059
11884W        W30738  13.961   3.887  14.052  0.1931  0.3702 -0.0153
11885W        W30739  16.681   7.718   4.206 -0.0498  0.1095  0.1099
11886W        W30740   8.999  17.746  16.059 -0.0033 -0.1253 -0.1078
11887W        W30741  12.070  10.991   1.376  0.3855  0.3695 -0.2687
11888W        W30742   8.669  16.941   4.693 -0.3912 -0.1488  0.0561
11889W        W30743   8.183   7.741   3.684 -0.1460 -0.1301  0.0669
11890W        W30744   2.515   4.662  10.275  0.2258 -0.3218 -0.1806
11891W        W30745  11.137  10.494   2.419 -0.1975 -0.1792  0.0439
11892W        W30746  15.015   5.806  16.148  0.1399 -0.1309 -0.2576
11893W        W30747   3.659   3.571   1.855 -0.2452 -0.4061 -0.1651
11894W        W30748  16.923  15.867  12.500 -0.1671 -0.1081  0.3264
11895W        W30749   2.580  13.224   0.085 -0.0767  0.2891  0.0175
11896W        W30750   0.348   0.483  14.633  0.3170  0.1904  0.0541
11897W        W30751  14.874   5.683  11.428  0.3061  0.1934  0.4345
11898W        W30752  11.891  14.415  14.458  0.0218  0.0068  0.1741
11899W        W30753  13.743   1.637  14.566  0.1060  0.1393 -0.0988
11900W        W30754  11.672   3.726   3.011  0.3734  0.0317 -0.0640
11901W        W30755  11.877   3.879  12.331 -0.0076 -0.1203 -0.0975
11902W        W30756  13.895   4.387   0.517  0.0692  0.0816  0.2580
11903W        W30757   9.174   9.649  12.439 -0.0162  0.0335 -0.0411
11904W        W30758  15.287  17.219  14.589 -0.4552 -0.3065  0.1552
11905W        W30759   4.774   2.094   1.281 -0.3084  0.1501 -0.2548
11906W        W30760  15.273   7.977   3.366 -0.0564 -0.1286 -0.3038
11907W        W30761  15.373  16.708   4.242  0.2020  0.3424  0.2981
11908W        W30762  11.729   0.034   4.376  0.1850 -0.1711  0.4463
11909W        W30763   6.537  14.726   0.789 -0.0124  0.3883  0.0733
11910W        W30764  14.192   3.435   2.714 -0.0388  0.1460 -0.0950
11911W        W30765   8.508   4.146  13.319  0.0230 -0.0057  0.0591
11912W        W30766  17.742  15.837  10.674  0.0020 -0.1628 -0.0758
11913W        W30767  10.863   0.654   0.144  0.0796  0.1432  0.0961
11914W        W30768   0.031   8.429   3.045  0.1498  0.0702  0.0133
11915W        W30769   5.636   2.604   1.548 -0.0481  0.0232  0.0903
11916W        W30770  17.166   9.094   1.821  0.2788 -0.0989 -0.2134
11917W        W30771   1.628   3.585  11.968  0.1445 -0.2503  0.0775
11918W        W30772   2.823   5.489   3.738 -0.0863 -0.0225  0.0393
11919W        W30773  16.651  13.651   3.947  0.0104 -0.2832 -0.1517
11920W        W30774   4.807   2.340  15.100  0.0685  0.0363 -0.1645
11921W        W30775  13.322  15.504  14.001 -0.4451  0.0155 -0.0651
11922W        W30776   3.367   7.045  15.312  0.3156 -0.4274 -0.1189
11923W        W30777   7.657   3.129  16.156  0.2086 -0.0397 -0.0410
11924W        W30778  13.064  17.921  14.462  0.0915 -0.2593 -0.0340
11925W        W30779  13.733  15.175   2.087 -0.0802 -0.0754 -0.1550
11926W        W30780  12.861   4.055  13.034 -0.0249  0.1235  0.3884
11927W        W30781  13.706   3.076   0.935 -0.3732 -0.0543 -0.0442
11928W        W30782  15.748   8.796  10.512  0.0329 -0.1526 -0.1632
11929W        W30783   0.265  11.752  13.270  0.1933  0.1487 -0.4153
11930W        W30784  15.402   3.110  15.387 -0.1462 -0.0927  0.1511
11931W        W30785  11.330  16.755   4.688  0.0030 -0.2025  0.0092
11932W        W30786  17.423  14.051   0.827  0.1093  0.1460 -0.1959
11933W        W30787   3.134   6.585   1.047  0.0187  0.1820 -0.1536
11934W        W30788  15.646   4.496  14.294 -0.0853  0.2329  0.2655
11935W        W30789  13.978  13.042  16.217 -0.1997 -0.2351  0.1453
11936W        W30790  17.260   5.700  12.742  0.2927  0.2015  0.0360
11937W        W30791   1.155  15.889   2.701 -0.0063  0.0581  0.3038
11938W        W30792   1.054  16.021  15.412  0.0602 -0.0203 -0.1658
11939W        W30793  10.692  13.908  11.994  0.1076 -0.0323 -0.0119
11940W        W30794   5.105   9.387   4.229 -0.0586 -0.0361  0.0119
11941W        W30795  12.558   8.105  15.718 -0.0467  0.1546 -0.0027
11942W        W30796   8.319  12.038  15.280  0.3463 -0.1188 -0.0162
11943W        W30797   5.235   5.401   2.213 -0.2327 -0.2606  0.2427
11944W        W30798  10.546   3.627  15.775  0.0085  0.0412 -0.0308
11945W        W30799   1.906  15.848   3.182  0.1859 -0.3693  0.0241
11946W        W30800   9.715  17.821  15.048 -0.2477 -0.2027  0.2384
11947W        W30801   6.915  11.279   2.184  0.0743 -0.0503 -0.2310
11948W        W30802   7.090  17.741   1.639  0.0804 -0.1073  0.1672
11949W        W30803   5.190  11.110  12.798  0.2608 -0.1890 -0.0557
11950W        W30804  10.576   7.068   4.516 -0.3278  0.0183 -0.0095
11951W        W30805   1.651  14.170   0.221  0.0482 -0.0352  0.0833
11952W        W30806   6.244  12.687  11.263  0.4204  0.1421  0.2123
11953W        W30807  17.759   3.773  13.018 -0.1201  0.0764  0.2895
11954W        W30808   8.761  17.916   1.753  0.0371 -0.2356 -0.1690
11955W        W30809  10.485   4.723   3.854  0.1414 -0.0310  0.0649
11956W        W30810   0.300  16.222   2.323  0.1339  0.0541 -0.0593
11957W        W30811   0.046   1.992  12.168  0.0543  0.0986 -0.1529
11958W        W30812   5.953  12.987   3.365 -0.3008  0.0524 -0.2699
11959W        W30813  11.581   2.916  14.889 -0.0599  0.0235 -0.0435
11960W        W30814   7.926   2.797   3.385 -0.2178 -0.1605 -0.0230
11961W        W30815   7.800   3.257  12.513 -0.0140  0.2945 -0.0647
11962W        W30816  13.970  16.578   4.266 -0.0146 -0.0297 -0.0435
11963W        W30817  16.557   1.340   1.637  0.2860 -0.0402  0.1560
11964W        W30818   1.425  14.326   2.532  0.3076  0.3139 -0.0706
11965W        W30819   7.516   6.027  13.886 -0.0663  0.1272 -0.0236
11966W        W30820  13.547   7.589  12.786  0.0474  0.1505  0.0945
11967W        W30821   9.773  12.554   2.547 -0.0443  0.0469  0.1644
11968W        W30822   1.570  13.923   1.343 -0.0405  0.2198  0.1004
11969W        W30823  17.180   2.131   0.968  0.0506 -0.0147 -0.0568
11970W        W30824   3.629   3.477  12.582 -0.1602  0.0721  0.0198
11971W        W30825  12.086  11.543  13.911  0.0249  0.0254 -0.0701
11972W        W30826   9.531   1.057   4.112 -0.2130  0.2414  0.1194
11973W        W30827   6.003   0.346  15.060 -0.0146  0.0646  0.0904
11974W        W30828   4.851  12.229  11.585  0.1205 -0.0687  0.0386
11975W        W30829  11.410  13.390   2.526  0.4015 -0.0336  0.1926
11976W        W30830  11.073   5.013   2.787 -0.1154  0.1550  0.0293
11977W        W30831   1.477   6.009  13.512 -0.1726 -0.2021 -0.1394
11978W        W30832   5.560   1.544  14.060  0.2053  0.2118  0.2686
11979W        W30833  15.213  11.026   4.553  0.0503 -0.1287  0.0607
11980W        W30834  13.893   3.434  13.853 -0.2125  0.0857  0.0362
11981W        W30835   7.083  15.644   0.494 -0.0415 -0.1559 -0.0764
11982W        W30836   7.991   0.633   2.014  0.1415  0.4473 -0.0486
11983W        W30837  11.038   5.008  11.082 -0.0313  0.0311 -0.0396
11984W        W30838   1.375  15.991   3.629  0.0021  0.1114 -0.2381
11985W        W30839  15.011   0.937  15.745  0.0692  0.0302 -0.0507
11986W        W30840   3.696  12.264  12.976  0.3412  0.0563  0.0966
11987W        W30841  13.909   4.052   0.181 -0.1881  0.1085 -0.0307
11988W        W30842   5.320   1.798  13.040  0.2398  0.1393  0.1371
11989W        W30843   6.122  15.176   0.344 -0.1266  0.0931 -0.1487
11990W        W30844  15.400   7.200  14.034  0.1347 -0.0680  0.2201
11991W        W30845   1.739   7.724   1.129  0.3815  0.0291 -0.1816
11992W        W30846  16.419   1.915  13.734 -0.2507  0.1869  0.1022
11993W        W30847   8.506   4.750   0.314 -0.1743  0.3644  0.1358
11994W        W30848   7.969  15.680   0.803  0.0318  0.2804  0.2768
11995W        W30849  16.031   4.179  16.107  0.0902  0.0825 -0.0283
11996W        W30850   5.389   6.663  12.696 -0.3157  0.1152  0.0017
11997W        W30851  17.334  16.141  12.204 -0.1285  0.0120  0.1527
11998W        W30852   0.120  12.235  10.544  0.1055  0.4048 -0.1295
11999W        W30853   5.469   7.669  12.665 -0.1149 -0.3061 -0.1244
12000W        W30854   8.044   2.341  12.847 -0.0708  0.0162 -0.0806
12001W        W30855   6.220   9.574   2.926  0.2831 -0.0274 -0.0298
12002W        W30856   2.018  12.332  16.048 -0.0359  0.3056 -0.1410
12003W        W30857   5.436  15.481   4.516 -0.0119 -0.1192 -0.0306
12004W        W30858  16.416  16.990   3.753 -0.0678 -0.4471 -0.2557
12005W        W30859  15.269  12.921   2.933 -0.1433 -0.0570  0.0920
12006W        W30860   4.030  12.035  14.331 -0.0141 -0.0474 -0.0810
12007W        W30861   4.200   4.474   1.900 -0.2805  0.2515  0.0429
12008W        W30862   0.867   2.082   3.309  0.1327 -0.2403 -0.0904
12009W        W30863  11.395   8.644   3.889 -0.0457 -0.1929  0.3839
12010W        W30864  10.002   3.439   4.437 -0.1789  0.5330 -0.1290
12011W        W30865   4.200  14.635   0.152 -0.1126 -0.0806 -0.1193
12012W        W30866  15.398   9.038  15.523  0.0911 -0.1960  0.0669
12013W        W30867  17.819   6.645   1.682 -0.3161  0.1785  0.1431
12014W        W30868  11.393  17.355  11.595 -0.2658  0.1497 -0.1337
12015W        W30869   6.345   0.353  14.672 -0.1955 -0.0351 -0.1802
12016W        W30870  13.860  15.735  11.675  0.0919  0.1536  0.2147
12017W        W30871   8.641  15.564   2.802  0.1106 -0.2345 -0.0160
12018W        W30872  11.424  11.588  11.230  0.2076 -0.0941 -0.1741
12019W        W30873   2.368   0.133   5.583 -0.2054  0.0947 -0.0711
12020W        W30874   1.373   2.554  16.101 -0.1684  0.3031  0.1626
12021W        W30875  14.643   6.668  12.601 -0.0077 -0.0407 -0.1293
12022W        W30876   5.248   6.103  12.666  0.1332  0.2514 -0.0298
12023W        W30877   9.360  16.103  12.160 -0.0593 -0.0001 -0.2327
12024W        W30878  17.896  11.419  13.419  0.2103  0.0338 -0.1101
12025W        W30879  15.244   4.301  14.054  0.0025 -0.2220 -0.1856
12026W        W30880  15.815  16.206  15.555  0.0754  0.0183 -0.0348
12027W        W30881   3.887  13.744   0.373 -0.0766  0.0501  0.2120
12028W        W30882  12.997   8.003  15.954 -0.0319 -0.0971 -0.3063
12029W        W30883  15.362   3.827   2.097  0.0145  0.0892  0.4124
12030W        W30884   2.599   0.559   2.143  0.0038  0.0749  0.2889
12031W        W30885   4.427   6.118  13.683 -0.1592 -0.4147 -0.1821
12032W        W30886  17.523   2.047  14.159 -0.0244 -0.2441 -0.0886
12033W        W30887   6.607  11.903   1.623  0.1661 -0.2764  0.1547
12034W        W30888   0.226  16.858   6.107  0.1143  0.1297  0.1481
12035W        W30889   9.957  11.880   0.620  0.1502 -0.1048  0.1350
12036W        W30890  17.469   2.506   3.019  0.2333 -0.2262  0.2029
12037W        W30891   1.372   3.506  16.066  0.2324  0.0090  0.0519
12038W        W30892   0.946  17.937   1.833 -0.0771 -0.2469  0.3328
12039W        W30893   1.968   0.386  11.648 -0.1877  0.1325 -0.2172
12040W        W30894   0.723  17.658  14.171  0.0595 -0.1173 -0.0831
12041W        W30895   9.519  12.283  14.184  0.2197  0.1211  0.1885
12042W        W30896  13.394   3.390   0.648  0.1194 -0.2522  0.0696
12043W        W30897   4.993   7.406   0.619  0.3009 -0.0048 -0.0019
12044W        W30898   1.090  11.229  15.298 -0.0011  0.0049 -0.3051
12045W        W30899   0.135  11.279   1.608 -0.0781 -0.0140 -0.0314
12046W        W30900  10.218  14.630  13.427 -0.2735 -0.1010  0.0734
12047W        W30901  16.017  13.141  15.659 -0.1844  0.1394 -0.1469
12048W        W30902   2.045   8.902   1.634  0.1788  0.1485  0.0966
12049W        W30903   3.004   2.018  15.004  0.0319 -0.1376  0.0820
12050W        W30904  14.128   3.775  13.509  0.0000 -0.1062  0.0470
12051W        W30905  11.518  16.021  12.669  0.0267 -0.1978 -0.0425
12052W        W30906   7.400   8.595  11.346 -0.1583 -0.0495  0.1060
12053W        W30907  11.809  16.382   1.035  0.1796 -0.0338 -0.2434
12054W        W30908  11.034   4.438  15.580 -0.0230 -0.0347  0.0058
12055W        W30909   0.587   2.387   1.460  0.1877  0.2636 -0.3010
12056W        W30910  14.849  11.832  13.675  0.2293 -0.0832  0.0905
12057W        W30911   8.439   5.689   2.973 -0.0854  0.1432  0.1843
12058W        W30912   9.135  16.614  12.643 -0.1038 -0.2177 -0.0225
12059W        W30913   0.243  11.652   2.866  0.3329  0.0993 -0.0395
12060W        W30914  10.565   8.568   4.155  0.1399  0.0334  0.0230
12061W        W30915   8.706  11.103  14.761  0.1221  0.0655 -0.1017
12062W        W30916  14.939   4.251   3.661  0.1392 -0.3716 -0.0455
12063W        W30917   2.791  15.590   1.944 -0.1578  0.1062  0.1542
12064W        W30918  12.032   4.396  11.336  0.0283 -0.0723 -0.0944
12065W        W30919  16.775  10.711   2.522  0.2441  0.0057 -0.1946
12066W        W30920   3.724  15.484   3.819  0.0636 -0.0441 -0.0915
12067W        W30921   8.335  12.286   4.671  0.1589 -0.2738  0.0126
12068W        W30922  10.132  15.026   2.345 -0.2024 -0.4190 -0.1130
12069W        W30923  16.280  17.096  12.875  0.3078  0.0792  0.0276
12070W        W30924  13.256  13.633   2.186 -0.1219  0.3534  0.0087
12071W        W30925   7.870   5.495  13.176  0.1742 -0.0526 -0.0289
12072W        W30926   6.061  13.969   0.760  0.2592 -0.0483  0.3356
12073W        W30927   3.195   7.573  16.065  0.4591 -0.0597 -0.0988
12074W        W30928   7.786  12.578  15.873 -0.1347 -0.0293 -0.0879
12075W        W30929  16.399  16.052  13.643  0.1105 -0.0984  0.0198
12076W        W30930   8.645   8.548   3.762  0.0890  0.0054 -0.3004
12077W        W30931   8.160  15.401  12.888 -0.1071  0.2317  0.1360
12078W        W30932  11.455   1.521   4.208 -0.0109  0.1905 -0.1593
12079W        W30933  11.327   1.747  12.695  0.1841  0.0617  0.0660
12080W        W30934   5.985   1.244  14.125 -0.1458 -0.0206  0.0400
12081W        W30935   9.367  12.911  13.078 -0.1090 -0.0478  0.1764
12082W        W30936  15.456  16.545   3.408 -0.1119  0.1233 -0.2111
12083W        W30937   9.454   4.565  13.178  0.1518  0.1453  0.2918
12084W        W30938  17.744  17.054  13.566  0.2717  0.0968 -0.0340
12085W        W30939  12.693  12.054  15.008 -0.0158  0.4054  0.1887
12086W        W30940   2.464  10.999   0.656  0.0102  0.1461 -0.2384
12087W        W30941   8.902  17.799   4.988 -0.0460 -0.0554 -0.1546
12088W        W30942  16.728  10.729  11.970  0.2783 -0.2464 -0.1558
12089W        W30943   1.452  11.913  12.261 -0.2836 -0.1188  0.0784
12090W        W30944   9.814   5.792  12.220  0.1530  0.0575 -0.0149
12091W        W30945   3.010  11.856  13.615 -0.2655 -0.1435  0.1828
12092W        W30946  16.128   0.043   1.637 -0.1811  0.0885 -0.1181
12093W        W30947   7.652   5.944  12.155 -0.1108  0.2279 -0.1821
12094W        W30948  13.580   1.084   2.505  0.0369  0.0806 -0.1479
12095W        W30949   6.792   6.052   3.151  0.0116  0.3359  0.0568
12096W        W30950   9.656   0.491  14.338  0.0734 -0.1193 -0.2455
12097W        W30951   1.255   2.195  15.075 -0.2832 -0.0175 -0.0160
12098W        W30952   4.584  17.602   0.642 -0.2562  0.0058 -0.1202
12099W        W30953  11.967  16.019  12.881  0.1364 -0.0085  0.0163
12100W        W30954  17.545  16.894   2.648  0.0735 -0.1117 -0.0048
12101W        W30955  15.279   1.667  12.831 -0.0517  0.2422  0.1200
12102W        W30956   1.140   5.092   3.495  0.1690 -0.0356 -0.1772
12103W        W30957  17.514  12.865  13.401 -0.2143 -0.0526 -0.3087
12104W        W30958   2.338  17.852  15.036  0.0412 -0.1667 -0.0322
12105W        W30959   2.281  17.163   3.606 -0.2223  0.1095  0.1611
12106W        W30960  15.563   1.381   1.174 -0.0462 -0.0306 -0.1769
12107W        W30961  14.418   5.571  15.065  0.5000  0.2692 -0.1131
12108W        W30962   3.577   1.314   0.914  0.0862 -0.0132  0.3108
12109W        W30963   9.143   3.207   4.670 -0.0658 -0.0489  0.0677
12110W        W30964  16.398   7.671  11.088 -0.1907  0.1883  0.0046
12111W        W30965  17.256  14.882   3.977  0.1441 -0.2833 -0.0364
12112W        W30966  12.463  17.934  11.509 -0.1562  0.1231 -0.0273
12113W        W30967   9.198  11.531   3.907 -0.1185 -0.0775  0.1819
12114W        W30968  14.836   9.847   0.713  0.0056  0.0762 -0.0992
12115W        W30969  13.865  13.537  12.162  0.1177  0.0216 -0.1353
12116W        W30970  11.169   2.686  14.047  0.1706 -0.0443  0.5417
12117W        W30971   4.344   2.138   2.770  0.2352  0.1561 -0.2679
12118W        W30972   1.414   4.300   2.866  0.2246 -0.2541  0.0523
12119W        W30973   1.099   0.564  12.345 -0.5239  0.0245 -0.0127
12120W        W30974   2.739  15.266  12.269 -0.0744  0.0568  0.2124
12121W        W30975   8.901  15.562   0.326 -0.1892  0.1944 -0.1706
12122W        W30976  13.525   1.664  14.068 -0.0490 -0.0679 -0.1825
12123W        W30977   3.850   6.551   3.729 -0.1057  0.1493 -0.1809
12124W        W30978  17.287  17.963   3.267  0.0231  0.2915  0.0201
12125W        W30979   0.753   0.744  12.004  0.2150 -0.1983  0.2244
12126W        W30980   9.014  10.031  15.312 -0.1733  0.0732  0.0023
12127W        W30981  16.340  15.065   2.938  0.1057  0.1005 -0.0933
12128W        W30982   9.208   8.420  12.619  0.2062 -0.0200  0.0122
12129W        W30983   1.403   6.578   4.168  0.0206  0.0744  0.0454
12130W        W30984   5.264  12.286  13.479  0.3560  0.2726 -0.1913
12131W        W30985   5.450  17.386  14.364  0.2257 -0.0728 -0.1409
12132W        W30986  13.784  17.636   4.466 -0.0517 -0.1436 -0.0356
12133W        W30987  10.811  13.641   0.132 -0.0790  0.1149  0.0226
12134W        W30988   0.331   5.943   4.112  0.0285 -0.1487 -0.1534
12135W        W30989   5.510   2.766  14.805 -0.0985  0.0226 -0.0866
12136W        W30990  15.839  11.650   0.616  0.0110 -0.0286 -0.0159
12137W        W30991   6.566  13.651   0.865  0.1723 -0.0385 -0.0120
12138W        W30992  14.651  17.874   1.536 -0.0643  0.1545  0.2828
12139W        W30993  14.465  15.419  15.372 -0.0742 -0.3075  0.1193
12140W        W30994   7.008   1.839   2.303  0.3806  0.1514 -0.0113
12141W        W30995  12.643   3.192  13.524  0.0065  0.1136  0.0584
12142W        W30996   0.948  10.992  13.989  0.0155  0.0011 -0.1176
12143W        W30997  12.423  15.031  12.803 -0.0524  0.1014  0.0585
12144W        W30998   3.197  15.286  15.197  0.1698  0.1039  0.1362
12145W        W30999   2.796   0.018  12.303  0.2564  0.0418 -0.3700
12146W        W31000  12.368   3.952  12.478  0.1525 -0.0123  0.0117
12147W        W31001  14.284  14.189   4.448 -0.0450  0.1081 -0.2386
12148W        W31002   1.371  14.744   4.407 -0.0827 -0.2733 -0.1284
12149W        W31003  16.380  17.540   2.243  0.2821 -0.1769  0.1661
12150W        W31004  15.608   5.731  11.887 -0.0805  0.1515  0.0469
12151W        W31005   6.407   9.881   4.157  0.1942 -0.3150  0.0239
12152W        W31006   2.179  10.780   0.264 -0.3040 -0.2679 -0.3076
12153W        W31007  10.503  13.107  14.967 -0.1127  0.2607 -0.1482
12154W        W31008   7.912  14.795  12.317 -0.1578  0.5624 -0.1153
12155W        W31009  10.907   5.541   3.664 -0.3540  0.0889  0.1448
12156W        W31010  13.252   7.651   1.034 -0.0177  0.2194  0.2138
12157W        W31011   7.915  15.095  13.187 -0.1984 -0.1599  0.2784
12158W        W31012   8.532  12.909  10.826  0.0921 -0.0103  0.0835
12159W        W31013   8.646   5.219  13.026  0.1716  0.1213 -0.0055
12160W        W31014  16.052  16.816   5.774 -0.0241 -0.1492 -0.0779
12161W        W31015  18.001  10.290  13.516 -0.0906 -0.3217  0.0362
12162W        W31016   3.528  16.289  13.560 -0.2464 -0.0948  0.1698
12163W        W31017   7.668   8.519  13.736  0.1223 -0.1534  0.1326
12164W        W31018  15.374   9.303   0.320  0.0773  0.1068 -0.3415
12165W        W31019  16.267   5.004  13.263  0.0148  0.0859  0.0160
12166W        W31020  14.555  12.187  12.366 -0.1575 -0.0175 -0.0248
12167W        W31021   0.799   9.355  15.459  0.2661  0.0386  0.0027
12168W        W31022  12.164   9.306   0.095  0.1087 -0.2324 -0.3109
12169W        W31023  10.595  10.127  15.565 -0.1276  0.2426 -0.0565
12170W        W31024   8.751  10.647   1.196  0.1074 -0.1218  0.0524
12171W        W31025   2.862   5.757  15.819 -0.1492 -0.1455 -0.4013
12172W        W31026  14.312   3.602   4.189  0.1161 -0.2194  0.2490
12173W        W31027  16.899   9.473   2.055  0.1525 -0.2650  0.0010
12174W        W31028  16.189   3.577   1.948  0.1470 -0.1427  0.0256
12175W        W31029   5.218  10.825  16.167 -0.1854 -0.0586  0.0729
12176W        W31030  18.006   5.267   0.912  0.0188  0.1590  0.0135
12177W        W31031  16.555  13.928   1.951 -0.0047  0.0794 -0.0286
12178W        W31032  15.819   8.687  12.632 -0.1018 -0.1624  0.2455
12179W        W31033  11.657  17.288   2.179  0.2747  0.0848  0.0459
12180W        W31034   3.437  15.205  14.552  0.0589  0.0295  0.1012
12181W        W31035  17.769   7.657  14.302  0.1187  0.0888 -0.1043
12182W        W31036   1.029   5.022   1.261  0.1795 -0.1206  0.2272
12183W        W31037  11.653   1.647   3.461 -0.1748  0.0615 -0.0576
12184W        W31038  15.139   0.076   0.174 -0.0233  0.0464  0.2201
12185W        W31039   5.873  10.644   4.716 -0.0781 -0.1110 -0.0798
12186W        W31040  18.021  15.338   5.033  0.0483 -0.1125 -0.0470
12187W        W31041   1.838  11.482  14.227  0.1332 -0.2311 -0.0395
12188W        W31042   5.875  11.855   0.795 -0.1996 -0.1379 -0.0116
12189W        W31043  10.294  15.252   4.514 -0.0501 -0.1157  0.0109
12190W        W31044  11.430   7.215  10.955  0.2504  0.1516 -0.1638
12191W        W31045  13.883   1.580   1.463  0.1466 -0.2205 -0.1540
12192W        W31046   9.674   5.356  12.456  0.1963  0.2808 -0.0244
12193W        W31047   2.509   7.444  14.929  0.1981 -0.0660  0.1079
12194W        W31048   5.818  16.644  13.133  0.1390  0.2386  0.1756
12195W        W31049   4.153   5.116   4.736 -0.1965  0.1308  0.3302
12196W        W31050  10.014   2.927   4.240 -0.1886  0.0971  0.2233
12197W        W31051   6.467   3.162   0.265 -0.0267  0.0146  0.2716
12198W        W31052  10.355   3.070   2.255 -0.0395  0.0592 -0.4156
12199W        W31053  10.286  12.983  14.082  0.4119  0.1016  0.2026
12200W        W31054  16.075  17.762  15.503 -0.0218  0.1673 -0.2054
12201W        W31055   7.007  16.150  16.115 -0.2096 -0.0004 -0.1281
12202W        W31056  13.723  17.751  12.513 -0.3949 -0.0610  0.0117
12203W        W31057   9.544  17.254   5.268 -0.0976  0.0417 -0.1505
12204W        W31058  17.150   7.284  13.287 -0.0148 -0.0070 -0.0162
12205W        W31059  17.691   6.624  11.212 -0.1002  0.4004  0.1471
12206W        W31060   9.830  12.367  11.963 -0.0265 -0.0882 -0.0707
12207W        W31061  12.980   3.203   3.159 -0.0231 -0.0317  0.2853
12208W        W31062   5.372   8.443  12.213  0.1023  0.1729  0.0766
12209W        W31063  12.020   5.028   3.447  0.3101  0.4647  0.1625
12210W        W31064  13.368  16.975  14.262 -0.1203 -0.2330 -0.2157
12211W        W31065   0.685  11.862   4.500  0.0866  0.0792  0.0874
12212W        W31066   8.253  13.919   1.779 -0.0132  0.2271 -0.1317
12213W        W31067   9.396  12.577   1.100  0.1783  0.2359  0.0036
12214W        W31068   7.690  11.627  11.507  0.1554 -0.1793 -0.0315
12215W        W31069   2.133  14.156  13.433  0.3443  0.1480 -0.0898
12216W        W31070   5.859  16.550   1.587  0.1108 -0.0990  0.0625
12217W        W31071  17.375   0.500  14.827  0.2829  0.3051  0.2766
12218W        W31072   6.865  14.486  14.098  0.1362  0.0993 -0.3743
12219W        W31073   6.572  17.595  13.463 -0.1866  0.3621 -0.3199
12220W        W31074   3.700   1.712   3.772 -0.3624 -0.0330 -0.0427
12221W        W31075   3.982   5.964  14.106 -0.1259 -0.1034 -0.0818
12222W        W31076   9.564   8.017   1.855 -0.5332 -0.1223 -0.0622
12223W        W31077   8.164   8.950  15.567  0.1294 -0.0573  0.0168
12224W        W31078  16.551  15.327  15.304 -0.0217  0.3079  0.0221
12225W        W31079  11.540   5.196   5.104  0.2918 -0.1074  0.3308
12226W        W31080  15.735   7.165   1.061 -0.2450  0.2274 -0.1870
12227W        W31081   0.211   5.088  13.134  0.0185 -0.0188  0.2129
12228W        W31082   5.984  10.422   1.174  0.1536  0.2114  0.0001
12229W        W31083   2.600  12.033  13.277 -0.0596 -0.0103 -0.1495
12230W        W31084  17.762   7.756  10.971 -0.2012  0.0849  0.0618
12231W        W31085   2.257   5.872   2.433  0.1618  0.1090  0.3533
12232W        W31086   9.591   0.152  12.314 -0.1064 -0.0854 -0.0205
12233W        W31087  10.469   2.289   1.320  0.1620  0.0022  0.1459
12234W        W31088   5.522   3.884   0.258 -0.2533  0.0817 -0.3717
12235W        W31089  11.735  17.826  12.961 -0.2552  0.1779 -0.0609
12236W        W31090  10.531  12.781  13.387 -0.1124 -0.3113 -0.2023
12237W        W31091  13.803   6.881   0.801  0.1506  0.0135  0.0360
12238W        W31092  10.450   2.811  11.751  0.0509  0.2142 -0.2308
12239W        W31093   8.639   9.677  11.746 -0.2658 -0.1655 -0.1603
12240W        W31094   3.909  14.835   2.553  0.0660 -0.3217 -0.1947
12241W        W31095  10.298  12.161  11.909 -0.1288  0.0944 -0.1914
12242W        W31096  14.418   1.908   0.933  0.1897 -0.2263 -0.2407
12243W        W31097   8.528   3.242  12.409 -0.1189  0.1591 -0.2509
12244W        W31098  12.515   7.644  15.468  0.1432 -0.1339  0.4671
12245W        W31099  16.995   4.983  11.853  0.0042 -0.1194  0.2466
12246W        W31100   5.436   0.840   4.438  0.2823 -0.0260  0.0567
12247W        W31101   9.625   4.813  12.210  0.0475  0.1634  0.2678
12248W        W31102  11.911   4.848   2.657 -0.3200 -0.0785 -0.1029
12249W        W31103  10.128  17.921   3.962  0.1171  0.1114 -0.1507
12250W        W31104  15.253  11.185  11.900  0.1709  0.0932  0.4070
12251W        W31105   4.331   6.424   4.262 -0.1295  0.1354  0.0997
12252W        W31106  14.098  12.601   2.971  0.0003 -0.0441  0.3081
12253W        W31107   2.001   7.644  13.672 -0.1226  0.0554 -0.0231
12254W        W31108  11.935   6.870   3.360  0.1567 -0.2137 -0.0638
12255W        W31109  13.020  13.015  14.729 -0.2589 -0.0964  0.0978
12256W        W31110   4.252   2.181   0.238  0.0950  0.0851 -0.0983
12257W        W31111   8.016   0.088   2.591 -0.0478  0.0555 -0.0102
12258W        W31112   2.048   7.735   5.169  0.1257 -0.1063  0.0873
12259W        W31113   0.317  15.393  12.687  0.1122  0.1873  0.0647
12260W        W31114   0.004   6.834  14.555 -0.0000  0.2422 -0.1857
12261W        W31115  16.008   0.515  12.533  0.0838  0.1801  0.1407
12262W        W31116   9.144   2.844   4.313 -0.0468  0.0708 -0.1187
12263W        W31117   5.612   5.023  16.221  0.0997  0.3396  0.0964
12264W        W31118   7.302   1.095   3.710  0.1854  0.1431 -0.2328
12265W        W31119  17.253  17.011  15.232  0.0297 -0.0380  0.0324
12266W        W31120  16.224  18.002   0.014  0.2624  0.1183  0.1898
12267W        W31121  10.943   3.365  15.464  0.1723  0.1279 -0.0983
12268W        W31122  12.706  14.265   2.314  0.1856 -0.1018 -0.1461
12269W        W31123  10.424  11.143   2.614  0.1057  0.1301  0.2583
12270W        W31124   0.728   1.497  12.945 -0.1563  0.0723  0.3040
12271W        W31125   1.896  12.076   0.963 -0.2919 -0.0320  0.0416
12272W        W31126   2.608  14.873   3.932  0.1633  0.0835 -0.2287
12273W        W31127   4.775   1.831   0.880  0.2532 -0.1318 -0.0388
12274W        W31128  12.247   0.223  15.801  0.1010  0.1640  0.1384
12275W        W31129   3.486  15.072  13.603 -0.0548  0.1004  0.1488
12276W        W31130  15.187   9.848  12.086  0.0272  0.0798  0.0125
12277W        W31131   3.182   5.833   1.722  0.1628  0.4702  0.0269
12278W        W31132  13.538   4.870  16.191  0.2114 -0.1130 -0.1436
12279W        W31133  11.881   6.484  14.292  0.0099  0.0277  0.0319
12280W        W31134  13.773   7.287   0.451  0.0111  0.2852  0.0082
12281W        W31135   8.261   2.084   4.499 -0.1467  0.0102  0.0815
12282W        W31136  12.861  13.284  16.134 -0.0021  0.3092 -0.1582
12283W        W31137   1.270  14.787   1.656  0.0458  0.1385 -0.1370
12284W        W31138   5.455  15.767   3.214 -0.0309  0.2736 -0.1863
12285W        W31139  14.606   5.749   4.282 -0.1623  0.2090  0.0999
12286W        W31140  15.401   8.317   0.165  0.0577  0.2188 -0.1588
12287W        W31141  12.998  11.694  15.460  0.0887 -0.1831 -0.2013
12288W        W31142   0.627  10.055   1.885 -0.0818 -0.0648 -0.0046
12289W        W31143  17.991   5.805   2.159 -0.1025  0.3033  0.0309
12290W        W31144  16.627  15.989   5.316  0.0655 -0.0718  0.1988
12291W        W31145   3.175  17.628   3.867 -0.0225  0.3781  0.1316
12292W        W31146   8.615  11.688  11.811  0.2161 -0.2700  0.1657
12293W        W31147   2.682   6.841   2.520 -0.0712  0.1745  0.2873
12294W        W31148  15.885   8.337   0.086  0.0742 -0.1714  0.2189
12295W        W31149  13.215   5.240  14.260 -0.0264  0.2579  0.1206
12296W        W31150   5.256   0.306  14.600 -0.1706  0.0196  0.3126
12297W        W31151   3.630  16.074   1.002 -0.3981  0.1723 -0.1254
12298W        W31152   6.214   9.289  14.915  0.0954  0.2871  0.0581
12299W        W31153  17.358   4.862   0.256  0.1106  0.0119 -0.0143
12300W        W31154   9.516  17.480  14.638 -0.0990  0.2521  0.0771
12301W        W31155   0.288  12.587   4.255 -0.0600  0.0815  0.2574
12302W        W31156  14.932   5.988   2.331  0.1067  0.0951  0.0952
12303W        W31157  14.249   4.286   4.128 -0.0759  0.4359 -0.0078
12304W        W31158   8.828   7.575   0.756  0.1861 -0.0413 -0.1900
12305W        W31159  11.699   8.309   4.310  0.3832 -0.1782  0.3103
12306W        W31160   7.150  14.603   5.295 -0.2249  0.3341 -0.2847
12307W        W31161  10.564   8.888   2.163  0.0552  0.0653 -0.0116
12308W        W31162  12.632   6.872  10.297  0.0628 -0.0501  0.0018
12309W        W31163   0.233  14.762   4.252 -0.0324 -0.5933  0.1349
12310W        W31164   4.227   8.075  13.697 -0.0393  0.0718  0.0899
12311W        W31165  16.391   8.927   1.365 -0.0400 -0.2623 -0.2789
12312W        W31166   6.217  10.928   5.040 -0.0667  0.3137 -0.2863
12313W        W31167  12.040  11.278   2.203 -0.1135 -0.0694 -0.0674
12314W        W31168  12.980   6.987  11.662  0.1172 -0.0085  0.0406
12315W        W31169   6.037   9.462   0.607  0.2081 -0.0056  0.0335
12316W        W31170   5.432   3.084   5.880  0.2371 -0.3539 -0.3445
12317W        W31171   1.608  10.118   1.561 -0.0756 -0.2720 -0.0822
12318W        W31172  14.553   2.942   1.146 -0.1295 -0.1881 -0.1022
12319W        W31173  13.938  13.147   1.704 -0.3594 -0.1175  0.1750
12320W        W31174   7.319   7.161  11.180  0.0563  0.0116  0.0717
12321W        W31175  10.841  16.677   4.903 -0.2640 -0.2485  0.1517
12322W        W31176   4.749  12.443   0.520 -0.0339  0.1778  0.1221
12323W        W31177   6.075  13.943  12.981  0.1155 -0.2958 -0.2883
12324W        W31178  13.909   5.848  15.672 -0.1453  0.1785  0.2168
12325W        W31179   4.882   8.255   3.312 -0.0111 -0.2155 -0.1105
12326W        W31180   9.438  14.199   4.459  0.2039  0.0943  0.0119
12327W        W31181   8.360   4.689   1.149 -0.1529 -0.2241 -0.0814
12328W        W31182   5.824   6.324   4.073 -0.1082  0.0508  0.0344
12329W        W31183   1.606  17.337   4.078  0.0722 -0.0209 -0.0652
12330W        W31184  11.916   6.422   1.877 -0.2610  0.0560  0.0857
12331W        W31185   1.717   3.269  15.757 -0.3777  0.0434 -0.2846
12332W        W31186   1.495   3.394   4.452  0.0079  0.1320 -0.0849
12333W        W31187   8.512   3.791  12.857 -0.0921  0.0269 -0.1856
12334W        W31188  11.653  13.442   4.498  0.2096  0.1250 -0.0344
12335W        W31189   1.829   6.329   3.850  0.0502 -0.1620  0.0448
12336W        W31190   3.634  16.747  11.633  0.0769  0.0581 -0.0276
12337W        W31191   4.185  10.242   3.454  0.0417 -0.1443  0.1131
12338W        W31192  12.090  17.732   2.967 -0.3136  0.1582 -0.1261
12339W        W31193  13.480  15.127  12.151  0.2441  0.1908 -0.1883
12340W        W31194   7.509   2.241   1.030 -0.3829 -0.4923 -0.1755
12341W        W31195  12.729  14.692  15.965 -0.1915  0.0179  0.0386
12342W        W31196   7.839  13.027   3.004 -0.0527  0.2296 -0.1700
12343W        W31197   8.454   5.789   1.232 -0.0179  0.1187  0.2910
12344W        W31198  14.969  14.982  16.182 -0.2054 -0.1484 -0.1845
12345W        W31199  15.626   5.163  16.087  0.0222  0.2042  0.0606
12346W        W31200  13.391   1.508   4.212  0.0811  0.0015 -0.2431
12347W        W31201  15.353  14.620  12.268  0.2006 -0.1704 -0.0314
12348W        W31202   1.146  10.576  12.290  0.0057  0.0045 -0.1538
12349W        W31203   8.562   2.146  13.303  0.1088 -0.1149  0.0942
12350W        W31204   9.650  10.105  14.275 -0.0536 -0.4953 -0.0354
12351W        W31205   1.464  10.623  14.202  0.3275 -0.0758 -0.1305
12352W        W31206  10.283  17.005   1.632 -0.0866 -0.2293  0.2722
12353W        W31207   4.836   3.927  15.182  0.1526 -0.0719  0.1142
12354W        W31208   8.190   7.690  15.556  0.2602 -0.1602  0.2639
12355W        W31209  17.564   3.299   1.669  0.0437 -0.1581 -0.3171
12356W        W31210  13.301  11.668  11.604  0.2253  0.0521 -0.1267
12357W        W31211   4.988   7.579  12.335  0.1938 -0.1507  0.0662
12358W        W31212  11.742  15.506   3.705  0.1792  0.2921  0.0974
12359W        W31213  10.492   7.691   0.266  0.1287 -0.0686  0.0521
12360W        W31214   5.430   3.710   2.516 -0.1222 -0.1467 -0.1381
12361W        W31215   6.064  13.194  15.911  0.2588  0.0664  0.0704
12362W        W31216   0.592   1.011   4.256 -0.0518 -0.0438  0.1473
12363W        W31217  10.110   1.241   3.935 -0.1780 -0.3694  0.0706
12364W        W31218   7.173  14.468  15.814  0.0123 -0.0002 -0.0361
12365W        W31219   1.699   8.815   2.111 -0.1585 -0.0937 -0.2410
12366W        W31220   0.226  15.272  12.159  0.2054  0.0189 -0.1230
12367W        W31221   2.036   5.431   1.505 -0.1450 -0.1380 -0.0548
12368W        W31222   4.266   9.389   2.143  0.0704  0.1638 -0.3513
12369W        W31223   0.445  16.311  12.781  0.1022 -0.1317  0.1484
12370W        W31224   5.605  11.303  15.479 -0.0066  0.0500  0.2214
12371W        W31225   9.739  17.638  12.751 -0.5860 -0.2798  0.1794
12372W        W31226   0.754  11.683  13.445  0.4270 -0.1610  0.2981
12373W        W31227  16.656   7.730  16.213 -0.1210 -0.1776 -0.1655
12374W        W31228   1.315  12.186  11.225 -0.1567  0.0598 -0.0496
12375W        W31229   8.997   3.042  11.682 -0.2117  0.1576 -0.1753
12376W        W31230  17.514   5.964  15.452 -0.2568  0.3093  0.1127
12377W        W31231   3.015   0.853  14.149 -0.0599  0.1517  0.1218
12378W        W31232  12.868  10.471   1.749 -0.0253  0.3968 -0.0112
12379W        W31233   6.217   5.554  14.121 -0.0593 -0.2565  0.2300
12380W        W31234  10.634   0.805  12.612 -0.2887 -0.0509 -0.0366
12381W        W31235  18.023  11.776  15.731  0.1088  0.0658 -0.0981
12382W        W31236   2.726   8.666  14.548 -0.1569  0.0618 -0.0091
12383W        W31237   9.620   2.836  15.217 -0.0294 -0.0577  0.0113
12384W        W31238   1.964  13.324   0.631 -0.1710 -0.1806  0.0151
12385W        W31239  10.627   5.796  11.612 -0.0289 -0.0418 -0.1607
12386W        W31240  13.259   8.439   1.917  0.1674 -0.1328  0.0448
12387W        W31241   6.536  11.748   4.368  0.2814  0.0025  0.2203
12388W        W31242   4.113  16.231  15.227 -0.0126  0.2246 -0.0170
12389W        W31243  17.712   2.863  11.891  0.0072  0.0459 -0.0164
12390W        W31244   0.174  12.456  13.109  0.0884  0.2899 -0.2536
12391W        W31245   2.878   7.805   2.581 -0.2093 -0.0600 -0.4221
12392W        W31246  16.494   4.065   2.845  0.1650 -0.2133  0.0150
12393W        W31247   7.880  17.082   1.030 -0.3289 -0.1518  0.0359
12394W        W31248  13.206   1.472  12.367  0.0548 -0.0078 -0.0992
12395W        W31249  13.726   5.974  15.188  0.1122 -0.2306 -0.0864
12396W        W31250   6.831   2.863   2.103  0.1814  0.2663  0.0830
12397W        W31251  11.134  16.105   2.725  0.0576 -0.5747  0.0834
12398W        W31252  12.397   1.520   3.939  0.0462  0.0422 -0.2203
12399W        W31253  14.909   9.522  16.086 -0.0427  0.1022 -0.2931
12400W        W31254  11.885   9.356  11.894  0.1188 -0.0712 -0.0610
12401W        W31255   2.643   9.235  13.326 -0.2001  0.1462 -0.0534
12402W        W31256  15.228  10.520   1.962  0.3360 -0.1592  0.2043
12403W        W31257   5.297   2.048   1.337 -0.1869 -0.0534  0.2443
12404W        W31258  13.014   0.573  16.087 -0.0206 -0.0809 -0.3086
12405W        W31259   3.475   7.033   4.394  0.2825 -0.1805 -0.0381
12406W        W31260  15.393  12.129   1.925 -0.0577 -0.0351 -0.0049
12407W        W31261   9.003   4.176   3.643  0.0473 -0.1495  0.2544
12408W        W31262  14.549  17.407   2.662  0.0275 -0.0275  0.1963
12409W        W31263   6.392   9.639   3.412 -0.0096 -0.0478  0.0977
12410W        W31264  15.817  11.990  11.668  0.0035  0.1667 -0.3157
12411W        W31265  10.466   7.288   3.284  0.0337 -0.2398 -0.0967
12412W        W31266   0.172   4.960   1.954 -0.0026  0.0516  0.0647
12413W        W31267   0.211  10.390   1.895 -0.0263 -0.1412 -0.3015
12414W        W31268   6.425  11.585   4.863 -0.0197 -0.0222 -0.0374
12415W        W31269   5.923   4.690   1.932  0.0431  0.1971 -0.1545
12416W        W31270   9.997  11.811  15.913  0.0449 -0.0732 -0.0612
12417W        W31271   3.936  16.548   0.215  0.0366 -0.1400  0.0197
12418W        W31272   2.768   8.869  12.997  0.2292  0.1818 -0.1246
12419W        W31273  17.394   7.723   1.096  0.1236 -0.0366 -0.0777
12420W        W31274  15.618  12.807  12.774 -0.0535  0.1053 -0.0958
12421W        W31275  11.468   9.895   1.794 -0.1452 -0.1523  0.1042
12422W        W31276   4.911  16.691   1.248  0.2338  0.1439 -0.0552
12423W        W31277  10.616   2.408  10.960  0.0935  0.2522 -0.3237
12424W        W31278  13.000  16.266   1.943  0.0195 -0.0634  0.0458
12425W        W31279   3.547  11.870   2.025 -0.0682 -0.1269 -0.3137
12426W        W31280   3.328   2.311   1.312 -0.0655  0.0010 -0.0917
12427W        W31281  17.693  15.855  13.719  0.0456 -0.0636 -0.1804
12428W        W31282   8.029  15.243   5.842  0.1033  0.3221 -0.0125
12429W        W31283  16.366   1.547  14.069  0.4147  0.1295 -0.3889
12430W        W31284   0.304  12.658  14.453 -0.1104  0.1021  0.5063
12431W        W31285   9.043   0.114   1.410 -0.1104 -0.1019  0.6348
12432W        W31286   0.380   4.270  11.662 -0.0222  0.0736  0.2526
12433W        W31287  10.672   3.454   0.353 -0.2418 -0.0129  0.1968
12434W        W31288  11.397   8.065  12.614 -0.1984 -0.3629 -0.0359
12435W        W31289   6.024   8.721   1.654  0.2036  0.3567 -0.1691
12436W        W31290   1.693   8.879  14.302  0.4252 -0.1001 -0.3019
12437W        W31291   8.744   5.030  16.217  0.2051 -0.2871  0.0823
12438W        W31292   4.232  14.243  12.767 -0.0074 -0.0262 -0.1156
12439W        W31293   8.713   0.569   1.548 -0.0881  0.0750 -0.0333
12440W        W31294   8.961   1.835  12.171 -0.1103 -0.0049  0.1244
12441W        W31295   4.975   7.615  14.735 -0.1188  0.1141  0.0696
12442W        W31296   1.077   4.824   2.232 -0.0269  0.0209 -0.2952
12443W        W31297   4.948   0.219   5.101  0.2743 -0.2963 -0.1276
12444W        W31298   7.390  11.845   3.656 -0.3309  0.0468 -0.2763
12445W        W31299  16.548   1.479  15.488 -0.1021  0.0548 -0.2232
12446W        W31300   8.230   3.229  15.408 -0.1751 -0.0760  0.0464
12447W        W31301  11.058  13.155   2.220  0.0441  0.3112 -0.1019
12448W        W31302   3.638   5.693   3.800 -0.2582 -0.3136 -0.1431
12449W        W31303  11.112   2.537   4.556 -0.2243  0.2059  0.2513
12450W        W31304   9.970   2.967   1.175  0.0880  0.1467  0.2831
12451W        W31305  16.241   8.607  11.670 -0.3248  0.1040 -0.0254
12452W        W31306   5.017   0.688   2.622 -0.3219  0.1082 -0.1769
12453W        W31307   9.371   4.757   3.128  0.1114  0.1347 -0.0649
12454W        W31308   8.233   5.782  12.168  0.3226 -0.0740  0.0877
12455W        W31309   0.764   3.165  14.427  0.0130 -0.1283 -0.0072
12456W        W31310   6.649  14.612   5.321  0.0979  0.0591  0.2122
12457W        W31311  11.723   4.482   1.749 -0.2903 -0.2914  0.0920
12458W        W31312   6.831   1.673  14.521  0.0704 -0.1429 -0.0524
12459W        W31313   7.683   2.081  12.599  0.0980 -0.0546 -0.3370
12460W        W31314  12.076   0.151   4.758  0.0339 -0.3584  0.3381
12461W        W31315   4.131  10.286   0.572 -0.2411 -0.1633  0.2057
12462W        W31316   6.249  14.598   1.682 -0.1320  0.0179 -0.1352
12463W        W31317   5.423   8.405  11.407 -0.1416 -0.0566  0.1277
12464W        W31318  14.719  16.611  11.504  0.0354  0.0706  0.0057
12465W        W31319   3.462  13.626  12.428  0.0847 -0.0863  0.0749
12466W        W31320  11.897   8.926  12.273 -0.0217 -0.1627  0.1035
12467W        W31321  15.369   9.794  16.188 -0.0859  0.0519 -0.0773
12468W        W31322   4.838   8.088  13.898  0.1726 -0.0440  0.1242
12469W        W31323   5.858  16.681  14.551 -0.0628  0.0929 -0.3030
12470W        W31324  13.482   1.143   4.945 -0.2315 -0.1748  0.2407
12471W        W31325  16.740  16.409   3.092 -0.1843 -0.2325  0.1973
12472W        W31326  14.927   8.792  12.821  0.0237 -0.0983 -0.0496
12473W        W31327   9.166   1.493   4.119  0.2218 -0.0737  0.1936
12474W        W31328   6.980  12.044   4.392 -0.1348 -0.1407  0.2546
12475W        W31329  10.561  13.718  11.509  0.0132 -0.3104 -0.0885
12476W        W31330   1.090   9.911  11.931  0.0017  0.0124  0.0013
12477W        W31331   3.631  13.443  14.860 -0.0467 -0.0855 -0.0533
12478W        W31332  12.963  13.409   0.443 -0.3443 -0.0789 -0.1163
12479W        W31333   6.715  15.505  12.195  0.0272  0.0875  0.1270
12480W        W31334   0.912  10.887  14.970  0.2184  0.0040 -0.0034
12481W        W31335   9.829  13.989   3.734 -0.0248 -0.1285 -0.5796
12482W        W31336   4.750   0.084  14.807 -0.0341  0.3171  0.0449
12483W        W31337   3.275   0.730  12.847 -0.4107  0.1519 -0.1100
12484W        W31338   5.485  10.147   1.133 -0.0197 -0.0714 -0.2749
12485W        W31339  11.210   7.304   3.766  0.3385 -0.1902  0.4685
12486W        W31340   2.588  15.291   0.559  0.1545 -0.0718 -0.3224
12487W        W31341   6.202   6.039   4.967  0.1210 -0.1649  0.1693
12488W        W31342   0.153   1.084   4.631 -0.0061 -0.1748  0.3633
12489W        W31343   4.475  11.115  11.551 -0.1415 -0.0048  0.2109
12490W        W31344   8.625  11.387  12.216  0.0749 -0.2536  0.0010
12491W        W31345  15.900   1.570   2.977 -0.1271  0.0630  0.1629
12492W        W31346   7.273  13.766   1.824 -0.1495 -0.0750 -0.0153
12493W        W31347  11.554   9.835  14.610  0.3624 -0.1345  0.0545
12494W        W31348  16.983   9.866   3.069 -0.0463 -0.1246  0.1441
12495W        W31349  13.805   7.700  14.854  0.0959 -0.0689 -0.2018
12496W        W31350   2.332   5.585  13.153 -0.1968  0.1687  0.1648
12497W        W31351  15.842  11.704  15.918  0.0689 -0.1385  0.1095
12498W        W31352   0.819  17.147  12.473  0.0950 -0.0993 -0.2336
12499W        W31353  16.806   7.395  14.020  0.2086 -0.2786  0.5007
12500W        W31354   8.024   9.984   0.519 -0.2158 -0.3033 -0.0101
12501W        W31355   9.603   9.763   2.011  0.0256 -0.1622  0.0592
12502W        W31356   2.117  13.250   3.774  0.2502 -0.0919 -0.1336
12503W        W31357  11.361   4.039  14.309 -0.0662 -0.1230 -0.2026
12504W        W31358   5.114   0.466   3.854  0.3629 -0.2548  0.3164
12505W        W31359   2.609  16.784   0.388 -0.1643  0.0460 -0.0014
12506W        W31360   6.155  10.061  14.419 -0.0860 -0.1645 -0.2368
12507W        W31361   4.835  13.899  13.306  0.1374 -0.3335  0.3087
12508W        W31362   5.267   8.938   2.831 -0.0651 -0.0415  0.1946
12509W        W31363  15.905  16.939  13.481  0.1819 -0.1460 -0.1829
12510W        W31364   7.849  12.348   0.043  0.0097  0.0390 -0.3733
12511W        W31365  14.118   6.481   5.749  0.2620 -0.2766 -0.0008
12512W        W31366   9.554  10.051  11.680  0.0111 -0.0885 -0.0057
12513W        W31367  10.858   0.721  11.730  0.2078 -0.1626 -0.2053
12514W        W31368   4.694  10.923  15.638 -0.2110 -0.2282 -0.0066
12515W        W31369   4.427  13.411   0.882 -0.0021 -0.2192  0.2326
12516W        W31370  15.300   1.752  11.582  0.1873  0.0437  0.0172
12517W        W31371   4.335   3.138  15.391 -0.0025  0.1025 -0.0040
12518W        W31372   3.255   6.484  14.250 -0.0080  0.0513 -0.0730
12519W        W31373   6.919  14.966  14.271  0.2617  0.3365 -0.1754
12520W        W31374   2.807  13.528  14.359 -0.2027 -0.0297  0.0786
12521W        W31375   3.585  13.836   2.164 -0.1169 -0.0953 -0.0144
12522W        W31376   0.766   0.530  14.802 -0.1468  0.2711  0.1798
12523W        W31377  14.083  16.706  15.330  0.1244 -0.0751  0.2353
12524W        W31378   8.645  14.752   4.128 -0.1582  0.0558  0.0708
12525W        W31379   3.682   4.023  14.434  0.2744 -0.0054  0.0432
12526W        W31380   7.625  13.500   2.580  0.1295  0.0932 -0.0564
12527W        W31381   1.222  18.004  12.655 -0.0762 -0.1153 -0.0117
12528W        W31382   1.455  11.553  14.515  0.0227 -0.1252  0.0829
12529W        W31383  12.591   2.278   4.059  0.0210 -0.0896 -0.2693
12530W        W31384   8.457   7.608  14.811 -0.1895 -0.1521  0.0190
12531W        W31385   3.764   6.897   0.938  0.2045 -0.2258  0.1559
12532W        W31386   0.943  14.622  15.404  0.2157  0.1317  0.2335
12533W        W31387   2.591   4.833   0.533  0.4309 -0.2784  0.1689
12534W        W31388  17.523   3.336   2.744 -0.3396 -0.0320  0.1572
12535W        W31389  10.841  15.507  12.969  0.0043 -0.0843 -0.0810
12536W        W31390   0.254   3.651  13.110 -0.1827  0.0425 -0.1476
12537W        W31391   9.377   4.308  13.598 -0.3565 -0.0132  0.2087
12538W        W31392   9.943   1.380   2.146  0.2031 -0.0813  0.0791
12539W        W31393  12.791   0.923   4.429 -0.4825 -0.1558 -0.1385
12540W        W31394  17.299  12.528  15.529 -0.0383 -0.0391 -0.0342
12541W        W31395   8.658  15.230  16.142 -0.0639  0.1377  0.0902
12542W        W31396   1.511   4.075  13.721 -0.0939  0.2367  0.0355
12543W        W31397   9.206   7.891   4.541  0.0151 -0.1614  0.0122
12544W        W31398  14.778  11.542   3.163 -0.0691  0.1776 -0.1604
12545W        W31399   4.450  10.733   0.505 -0.3594  0.2386  0.1705
12546W        W31400  15.414   1.646   3.128 -0.0042  0.1613 -0.3563
12547W        W31401   9.735  14.019  11.630  0.0686  0.0586 -0.1555
12548W        W31402   6.287   0.699  16.159  0.1010  0.1009 -0.2043
12549W        W31403   8.819  14.455   0.492 -0.3018 -0.0416 -0.0915
12550W        W31404   7.892   0.228   4.385  0.0876  0.0626  0.2998
12551W        W31405   1.608  17.456   3.194  0.1550  0.0746  0.1440
12552W        W31406  17.348   2.177   3.954  0.0625 -0.0490 -0.0806
12553W        W31407  13.553  14.507   0.185 -0.1834  0.0140  0.1505
12554W        W31408   8.301   8.658  14.122 -0.1446 -0.1179 -0.4621
12555W        W31409   9.389   9.814   4.311 -0.0412 -0.2869  0.1066
12556W        W31410   3.095   1.444  12.129  0.0608 -0.0260 -0.0234
12557W        W31411   0.227  14.796   0.150  0.0948  0.0153 -0.1078
12558W        W31412  10.817  11.697  15.577  0.0973 -0.2843 -0.3264
12559W        W31413  11.339  11.049   3.899 -0.0354 -0.0195 -0.0364
12560W        W31414   1.096  17.312  12.018 -0.1178 -0.3368  0.1327
12561W        W31415  16.076   2.141  11.342  0.1167 -0.2057  0.1102
12562W        W31416   2.404  16.670   2.552  0.0975 -0.0227 -0.0138
12563W        W31417   4.704   6.466  13.957  0.0553  0.0414 -0.1573
12564W        W31418   6.642  18.039   1.877  0.1513 -0.2768  0.0243
12565W        W31419   2.093  11.891   3.255 -0.4532 -0.2428 -0.0120
12566W        W31420  12.326  14.866   3.564 -0.0861  0.0001 -0.2229
12567W        W31421  16.107  10.363  14.712  0.1111  0.0396  0.0945
12568W        W31422  14.446  14.035   2.056 -0.2574 -0.0861 -0.0844
12569W        W31423   0.374   8.645  14.666  0.3144  0.1396  0.2522
12570W        W31424   6.229   2.264   3.290  0.0540  0.2015  0.0424
12571W        W31425   2.442   4.644  15.185 -0.1245  0.3302  0.1811
12572W        W31426  17.909  13.520  15.368 -0.0610  0.0474 -0.0495
12573W        W31427   0.555   3.283   1.020 -0.1233 -0.0115 -0.2872
12574W        W31428  12.368  14.558  15.580 -0.2451  0.1125 -0.2090
12575W        W31429   3.504   6.909   0.366  0.3972 -0.1061  0.2197
12576W        W31430   6.060  15.945   2.114 -0.1513  0.1935 -0.0025
12577W        W31431   5.567  11.500   4.475 -0.0179 -0.1888  0.1307
12578W        W31432   6.153   3.135  10.992 -0.2364  0.0930 -0.0769
12579W        W31433   0.499   8.100  10.756 -0.3834  0.0214  0.0221
12580W        W31434  17.326   7.133   4.717  0.0497  0.0968 -0.0509
12581W        W31435   3.199   6.115   4.237  0.3861  0.2696 -0.0917
12582W        W31436  14.583  13.315   3.816  0.1382 -0.0453 -0.1275
12583W        W31437   2.408   3.033  12.785  0.1858  0.1773  0.1636
12584W        W31438  13.256   3.964   4.894  0.0760 -0.2314  0.2247
12585W        W31439  13.035  13.260   1.990 -0.3846  0.1669  0.2157
12586W        W31440   1.809   9.275  12.135  0.1189  0.2504  0.1262
12587W        W31441   6.466  15.199   0.830  0.0453 -0.0397 -0.0426
12588W        W31442  14.385  11.458   0.073 -0.0752  0.2247  0.1926
12589W        W31443   0.289  13.346   1.861  0.3375  0.1003 -0.1496
12590W        W31444  10.925  17.824  14.629 -0.0437 -0.3101 -0.1856
12591W        W31445  16.029   9.917  14.886  0.0554  0.2660 -0.2843
12592W        W31446   6.753  15.285  12.714  0.2381 -0.1210  0.0185
12593W        W31447   9.244   6.783  12.861 -0.0416  0.1948  0.2192
12594W        W31448  16.589  17.859  12.410  0.2163 -0.0357  0.2475
12595W        W31449   7.800  10.711   0.909  0.1677  0.0877 -0.1061
12596W        W31450  16.143  14.188   5.318  0.0310 -0.2542  0.0630
12597W        W31451  13.823  13.670  15.114  0.0852 -0.0548  0.1968
12598W        W31452   0.379   7.939   2.937  0.0937  0.0897  0.0887
12599W        W31453   7.218   1.932   5.291 -0.2839 -0.3320  0.1325
12600W        W31454  16.143  10.006   4.819  0.0628  0.2028  0.0384
12601W        W31455  10.811   9.225   4.506 -0.1849  0.0091  0.0107
12602W        W31456   0.967  14.638   2.478  0.0539  0.0090  0.0255
12603W        W31457   1.257  13.809   1.778  0.0515 -0.0764  0.2371
12604W        W31458  13.260   1.394   2.804 -0.0598  0.0728 -0.0733
12605W        W31459   6.123  14.447   1.078 -0.0202  0.0430  0.2131
12606W        W31460   4.805   5.394   2.691  0.0167 -0.1676 -0.0891
12607W        W31461   5.962   5.155  12.455  0.2341 -0.2258  0.1580
12608W        W31462  13.597   2.024   1.624  0.1939 -0.0864 -0.2680
12609W        W31463  15.710  16.275   0.268  0.3011 -0.1380 -0.1579
12610W        W31464  16.921  16.612   0.850 -0.2889 -0.0219 -0.0545
12611W        W31465   4.559  12.580  12.747 -0.2729 -0.2045 -0.0182
12612W        W31466  15.427  16.261  15.196 -0.1115 -0.2183  0.1370
12613W        W31467   8.646   3.550  15.250 -0.3295 -0.2064 -0.0260
12614W        W31468  16.211  13.566  13.715  0.1496 -0.1706 -0.0237
12615W        W31469   2.595  14.112   1.649 -0.1723 -0.0227  0.1681
12616W        W31470  11.402   5.731   0.287 -0.3966  0.0190  0.2078
12617W        W31471   2.527   3.010  13.780 -0.1881  0.0844 -0.2607
12618W        W31472   1.706   6.950  12.250  0.1415 -0.1214 -0.0208
12619W        W31473  14.020   6.355  12.865  0.4045  0.1143  0.1208
12620W        W31474   5.379  16.407   1.535 -0.3134  0.0187  0.0072
12621W        W31475  11.169   1.847   3.990 -0.0933  0.3162  0.3363
12622W        W31476   8.480  17.937   4.800  0.0121  0.2126 -0.0157
12623W        W31477  11.903   0.487  11.187 -0.1975  0.1791  0.1355
12624W        W31478   2.063   8.915   2.577 -0.1384  0.0782 -0.1374
12625W        W31479   3.888   2.332   2.463 -0.1517 -0.2607  0.1159
12626W        W31480  16.530  15.448   2.646 -0.0713  0.2160 -0.0292
12627W        W31481  15.239   1.280  11.484 -0.0752  0.2476  0.0390
12628W        W31482  15.277   2.845  12.477  0.0169 -0.1448  0.1008
12629W        W31483  13.483   1.634   4.689  0.0006 -0.3043  0.0915
12630W        W31484  10.937  16.245  11.851 -0.0511 -0.0002  0.0097
12631W        W31485   9.453  13.508  12.865  0.0858 -0.0011  0.0844
12632W        W31486   8.784  12.204   0.400 -0.2064 -0.1593  0.2763
12633W        W31487   6.379   4.546  11.287  0.1069  0.2608  0.1857
12634W        W31488   1.263   4.556   0.157 -0.0398  0.0407 -0.0446
12635W        W31489  14.568  12.300   4.248  0.2664 -0.1492 -0.0058
12636W        W31490   7.145   3.715  13.531  0.1764  0.0408  0.0209
12637W        W31491   9.764  17.643   0.225  0.0691 -0.0524 -0.3720
12638W        W31492  13.114   0.476   3.121 -0.1411  0.0472  0.4198
12639W        W31493   6.860   9.857   4.277  0.0302  0.1881  0.3760
12640W        W31494  15.226  17.637   1.607 -0.0220 -0.1942  0.2162
12641W        W31495  12.664  11.327   1.473  0.0499 -0.0361 -0.1424
12642W        W31496  15.113   5.753  13.458 -0.1164  0.0191 -0.0473
12643W        W31497   2.092   7.216   4.198  0.1157 -0.1080  0.1764
12644W        W31498   7.997  17.889   4.978 -0.2096 -0.1105 -0.0320
12645W        W31499   4.083  14.046  13.569  0.0475 -0.0204 -0.0377
12646W        W31500  10.190   9.790  12.372  0.0249  0.0955 -0.1517
12647W        W31501   2.965  17.843  12.689 -0.2882 -0.1981 -0.1546
12648W        W31502   2.510   8.514  13.994 -0.0631  0.1958  0.0066
12649W        W31503   6.028   0.683  12.670 -0.0773 -0.0398  0.1610
12650W        W31504   4.295  13.044  15.480  0.0786 -0.0180 -0.0346
12651W        W31505   9.369   8.340   0.531  0.1592 -0.0484  0.0133
12652W        W31506   8.915  12.589  15.362 -0.2722 -0.0544  0.2843
12653W        W31507  17.590   8.238   3.154 -0.0960  0.0278 -0.0465
12654W        W31508   2.194  17.926  13.618  0.0014 -0.1561  0.1311
12655W        W31509  14.204  15.114  11.999 -0.1299  0.2459 -0.1962
12656W        W31510   9.583   3.001  11.598  0.3193 -0.1142 -0.0313
12657W        W31511  12.978   9.895   0.208 -0.1297  0.0121  0.0211
12658W        W31512   6.541   6.827   4.329  0.2456 -0.2889 -0.1251
12659W        W31513   5.470   3.709   0.788 -0.0012  0.1286 -0.3090
12660W        W31514   1.180   8.894  12.920  0.1414  0.1188 -0.1094
12661W        W31515   3.678   7.347  13.238 -0.0600 -0.1495  0.1089
12662W        W31516  13.043  14.268  16.211  0.3556  0.0301 -0.1918
12663W        W31517  11.844   7.734  13.130 -0.1345  0.1609  0.2937
12664W        W31518   0.661  16.055  13.677 -0.0105  0.3449 -0.2856
12665W        W31519  13.049   3.562  11.217  0.0891 -0.0838  0.0817
12666W        W31520  16.880   7.188   4.057  0.4826  0.0842 -0.3243
12667W        W31521  15.953   9.952  15.605  0.0325  0.0877 -0.3009
12668W        W31522  14.676  12.918   1.142 -0.0037 -0.3206 -0.1386
12669W        W31523   4.118   9.860  11.916  0.1349 -0.0200 -0.0688
12670W        W31524  12.196   6.488   1.030 -0.0643  0.0736 -0.0889
12671W        W31525  14.346   6.656   3.407 -0.2851 -0.1815  0.1588
12672W        W31526   3.431   2.238  15.498  0.1107  0.0685 -0.1311
12673W        W31527   9.937   4.383  15.280  0.2136 -0.1598  0.2461
12674W        W31528   7.867  12.584  13.110 -0.0176  0.2147  0.0900
12675W        W31529   1.192  17.625   4.053  0.1789  0.1467  0.2289
12676W        W31530  16.239   1.477  15.878 -0.0270 -0.2661  0.0562
12677W        W31531  16.125   0.495  15.233 -0.1706  0.0212 -0.1467
12678W        W31532   7.445  13.914  12.540  0.0654  0.2925  0.1788
12679W        W31533  17.658   7.912  13.190  0.0478  0.2444 -0.0879
12680W        W31534  12.202  10.278  15.980 -0.4727 -0.1206  0.2718
12681W        W31535   5.716  12.081   4.527 -0.2108  0.0836 -0.3702
12682W        W31536  14.169   5.320   1.130 -0.2049 -0.1076  0.0616
12683W        W31537  16.186   2.366  12.461 -0.2640  0.0920  0.1402
12684W        W31538   3.498   0.155   4.531 -0.1772 -0.0103  0.0517
12685W        W31539  11.154   1.456  12.225  0.0862 -0.2868 -0.0901
12686W        W31540   8.924   4.701   1.630  0.0125 -0.1847 -0.3021
12687W        W31541  16.420   6.676  14.701  0.0326  0.0306  0.0455
12688W        W31542  16.212   1.719  11.649  0.1933  0.1253  0.2788
12689W        W31543  16.451   0.823  14.718  0.3946  0.2346  0.1225
12690W        W31544   3.277  17.986   3.498 -0.2486 -0.3218 -0.0167
12691W        W31545   4.425   4.079   3.327 -0.1183  0.0123 -0.1089
12692W        W31546  11.294  11.869   2.007  0.0238  0.0671 -0.2019
12693W        W31547   7.125  11.244   4.981  0.0287  0.0887  0.1379
12694W        W31548  12.061   4.389  13.815  0.1604 -0.1069  0.1109
12695W        W31549  16.510   7.232   0.130 -0.0686 -0.3685 -0.1147
12696W        W31550  12.508  13.791   4.235  0.0607  0.1396  0.0298
12697W        W31551   4.255  11.010  15.815 -0.1005  0.4643 -0.0141
12698W        W31552   2.256  14.923  15.067  0.0383 -0.2350 -0.0513
12699W        W31553   9.872  11.012   0.143 -0.2464  0.0451 -0.1256
12700W        W31554  10.081  10.699   3.510 -0.2984 -0.2217  0.2214
12701W        W31555  15.625   3.694   1.600 -0.1306  0.0354 -0.0088
12702W        W31556  17.068  15.287   1.462 -0.0670 -0.1028  0.0008
12703W        W31557   0.560  11.929   3.123  0.0485  0.0910 -0.1559
12704W        W31558   0.461   2.201   0.003 -0.0581  0.0414 -0.1561
12705W        W31559   2.283  15.285  12.517 -0.0828 -0.1683 -0.1501
12706W        W31560  16.175  11.828  12.698  0.2854  0.0411  0.3616
12707W        W31561   1.808   2.250   0.056  0.1518 -0.1291 -0.0965
12708W        W31562   3.759   1.307   1.706  0.0344  0.0201 -0.0146
12709W        W31563  10.332   3.253   3.100 -0.2420 -0.2484  0.1804
12710W        W31564   7.768   3.741   0.658  0.2453  0.0067 -0.1965
12711W        W31565  10.347  10.754  15.438  0.1521 -0.3683 -0.0193
12712W        W31566   8.788   4.271   0.489 -0.2224 -0.2889  0.1731
12713W        W31567  15.055  16.345  13.451  0.0836  0.0351  0.0838
12714W        W31568   2.210  11.539   2.708 -0.1446  0.0671  0.2361
12715W        W31569   6.009  13.399   4.780  0.1351 -0.2031 -0.0340
12716W        W31570   9.415   3.946   1.443 -0.3231  0.0684 -0.1646
12717W        W31571  17.921   3.663   1.786 -0.2283 -0.3450  0.0510
12718W        W31572   9.665   3.153   0.585  0.0978 -0.2382 -0.1247
12719W        W31573   7.889  12.210  14.992  0.1220  0.3598  0.0403
12720W        W31574   9.646  17.850   1.084  0.1309  0.0440  0.0724
12721W        W31575  14.690  11.570   1.371 -0.2773  0.2015 -0.0683
12722W        W31576  12.503  10.932   2.800 -0.1766  0.0523  0.0502
12723W        W31577  14.083  12.302   0.456 -0.0303 -0.1243  0.1708
12724W        W31578   3.722   8.305  15.597  0.1437 -0.3221  0.0608
12725W        W31579   3.194  16.960  12.690 -0.0585 -0.1587  0.0684
12726W        W31580  17.736  15.780   0.983 -0.1619 -0.2786  0.0365
12727W        W31581  10.121  11.705   4.011  0.0754  0.0169  0.0155
12728W        W31582   9.769  13.375  11.099  0.3191  0.1227  0.1527
12729W        W31583   0.381  14.631  14.562 -0.0298  0.0297  0.0437
12730W        W31584   8.982  11.897   1.480  0.0630  0.1314  0.0149
12731W        W31585   1.241   3.816  12.931 -0.2367  0.1364  0.2808
12732W        W31586   3.434  12.049   0.833 -0.0432 -0.1050  0.2866
12733W        W31587  15.312   6.777   2.363 -0.2578  0.3480 -0.1133
12734W        W31588   7.373   8.042  15.325  0.0799 -0.1465  0.0189
12735W        W31589   5.819   7.483   0.372 -0.1960  0.3185  0.0256
12736W        W31590   9.799   8.530   2.059  0.1406 -0.0033 -0.0564
12737W        W31591   0.128   4.135   0.185  0.1805  0.4493 -0.0816
12738W        W31592  16.133  13.104   3.614  0.0807  0.2185  0.3627
12739W        W31593   7.490  12.962   2.549 -0.0037  0.1294  0.1732
12740W        W31594  15.513  14.250  11.976  0.1503  0.0296  0.0354
12741W        W31595  10.572  15.615  11.848 -0.0400  0.0751  0.2305
12742W        W31596   3.581   0.812   3.018  0.2882 -0.1218 -0.0597
12743W        W31597  16.503  10.822   1.412  0.0945  0.2802 -0.0120
12744W        W31598  10.221  12.645  15.814 -0.2312 -0.3189 -0.2489
12745W        W31599   1.754   2.794   4.040 -0.1631 -0.0087 -0.1936
12746W        W31600  12.126   8.863  15.053  0.1367  0.0328  0.1720
12747W        W31601  14.788   1.743  14.673 -0.0750  0.0670 -0.0253
12748W        W31602  16.952  11.203  13.698  0.1007  0.0707  0.1940
12749W        W31603   2.074   5.804  11.606 -0.3319  0.4427  0.3394
12750W        W31604   9.462  13.338   4.283  0.1726  0.0606  0.0163
12751W        W31605  14.303  16.263  16.133  0.0480 -0.0463 -0.1790
12752W        W31606   5.730  16.591   3.587  0.2434 -0.0279 -0.2074
12753W        W31607   5.081   7.608   2.150  0.0465 -0.0968 -0.0655
12754W        W31608  14.947  17.747   4.065 -0.1055  0.0057  0.2710
12755W        W31609  12.359   1.381   1.512  0.3970 -0.3487  0.0070
12756W        W31610   5.806  12.000   2.040  0.0381 -0.3898 -0.1789
12757W        W31611   9.592   4.524  11.050 -0.1601 -0.1168 -0.3141
12758W        W31612  14.418  12.804   4.467  0.1299 -0.0276 -0.0643
12759W        W31613  13.609   1.368   0.652 -0.1479 -0.1089 -0.1765
12760W        W31614   8.453   4.038  11.746  0.2310  0.0094  0.1908
12761W        W31615  10.257   9.688   0.506 -0.1885  0.1005 -0.1597
12762W        W31616  11.878  10.396  14.510  0.2531 -0.0494 -0.0487
12763W        W31617   2.991   7.950   0.309  0.5421  0.1667  0.2844
12764W        W31618   6.674  15.901   0.946 -0.2734  0.1905  0.2024
12765W        W31619   6.991  14.507  12.569 -0.1274 -0.3315 -0.1254
12766W        W31620   7.818  16.375   5.477  0.0862 -0.0696 -0.2579
12767W        W31621   2.748   3.147   1.033 -0.0929 -0.1171  0.1738
12768W        W31622   1.207   4.349   0.954  0.1257 -0.0924 -0.1180
12769W        W31623  12.799  11.122  14.534  0.1479 -0.2675  0.4025
12770W        W31624  11.315   6.643  15.714  0.1895 -0.3314 -0.1961
12771W        W31625   2.958   0.438  15.958  0.0393 -0.0240  0.0687
12772W        W31626   3.758   5.719  12.589  0.0334 -0.0440 -0.0438
12773W        W31627   7.400   9.016  12.949 -0.1251  0.0426 -0.0973
12774W        W31628  10.328  16.370   0.246 -0.0119  0.0087 -0.3175
12775W        W31629  11.214  11.267  15.501  0.2301  0.4449  0.0726
12776W        W31630   5.872  11.920  16.175 -0.0921  0.2409  0.2292
12777W        W31631  13.340   6.860   4.346 -0.0656  0.2712  0.0878
12778W        W31632   8.888   6.937  15.319  0.0058  0.0336 -0.0342
12779W        W31633   6.394   6.713  13.201  0.0530 -0.1798 -0.0202
12780W        W31634   9.509  14.660  13.964 -0.0488  0.0300 -0.2264
12781W        W31635   1.381  10.092   4.009 -0.3908 -0.3424  0.0218
12782W        W31636   3.497   0.051  14.081  0.1896 -0.1399 -0.0866
12783W        W31637  17.141   8.212  11.636  0.0414  0.0082  0.0814
12784W        W31638   7.403   0.811  13.657 -0.0612  0.0326  0.2234
12785W        W31639  14.501   1.040   5.146 -0.1944 -0.2077  0.1711
12786W        W31640  11.197  16.677  16.006 -0.1209  0.1497 -0.1703
12787W        W31641  16.800   3.762  14.972  0.1120 -0.3064  0.2347
12788W        W31642  14.213  10.830   3.606 -0.0415  0.1728  0.2992
12789W        W31643  10.936  15.227  16.189  0.4119  0.0234 -0.0337
12790W        W31644   5.685  14.360  10.741 -0.0215 -0.0026 -0.0811
12791W        W31645  12.991   0.589   1.606 -0.3591  0.2013 -0.2156
12792W        W31646   8.722   5.027  12.552 -0.2160  0.0279 -0.2943
12793W        W31647  14.523   3.017   3.546 -0.0170 -0.0767  0.2102
12794W        W31648   2.782  16.483  15.973 -0.0656  0.0274  0.0890
12795W        W31649   6.111   8.950  12.711  0.0181 -0.3481  0.1832
12796W        W31650   3.426  14.674   0.742  0.0586 -0.1644  0.1495
12797W        W31651  16.881   7.753   3.307 -0.0142 -0.0815 -0.1114
12798W        W31652   5.777  13.400   4.374  0.1953 -0.1517 -0.0888
12799W        W31653   4.924   4.069  11.584 -0.1631 -0.1892 -0.1537
12800W        W31654   3.697  10.561  13.377 -0.1568 -0.1631 -0.4472
12801W        W31655  11.047   1.522  12.984  0.3240 -0.1761 -0.1025
12802W        W31656  16.456   6.720   1.302 -0.0142 -0.0421  0.3991
12803W        W31657  13.612  17.840  14.346 -0.1424  0.0489  0.1618
12804W        W31658  14.161  11.366   1.938 -0.3284 -0.0647 -0.0716
12805W        W31659  14.435   3.990   0.993  0.0506  0.0639  0.1864
12806W        W31660   2.174  15.006   0.300  0.1897  0.0273 -0.3348
12807W        W31661  14.637  15.825   2.795  0.1198  0.1167  0.2211
12808W        W31662   2.018   6.000   3.231 -0.0728 -0.0948 -0.1939
12809W        W31663  12.844   9.664  10.293  0.2396 -0.0274  0.3053
12810W        W31664  10.700   7.620   2.819  0.2869 -0.1590  0.1337
12811W        W31665   8.128   2.451   4.230  0.1308  0.1174 -0.1447
12812W        W31666  11.106  15.982   2.274  0.0575  0.1739 -0.0990
12813W        W31667   6.355  11.664   0.824  0.1651 -0.0450 -0.1795
12814W        W31668   8.665  13.952   4.401  0.0467  0.2063 -0.0674
12815W        W31669   8.647   7.129   3.902 -0.1936 -0.0370 -0.1249
12816W        W31670  16.236  17.686   3.284  0.2027 -0.0805  0.0535
12817W        W31671   6.874  10.767   0.193 -0.0515 -0.0611 -0.0254
12818W        W31672  17.243   8.029  11.149 -0.1497  0.3101 -0.1721
12819W        W31673  13.346   4.676   1.364 -0.2364  0.2343  0.1521
12820W        W31674   9.774  13.189  12.166 -0.3012 -0.2180 -0.1595
12821W        W31675  16.033   9.181   2.305 -0.1727 -0.2645  0.0831
12822W        W31676  17.783   2.620   4.583  0.0148  0.1544 -0.4615
12823W        W31677   4.391  16.593   4.183  0.2519  0.2115  0.3483
12824W        W31678   1.314  10.701   3.238 -0.1018  0.1456 -0.0732
12825W        W31679   8.463   2.642  12.416 -0.0660 -0.1907 -0.0647
12826W        W31680  11.286  13.940  13.576 -0.3655  0.1462  0.0579
12827W        W31681  11.601  17.138   2.633 -0.1666 -0.0598  0.0182
12828W        W31682   5.094   0.955  15.790  0.0616  0.2976 -0.2024
12829W        W31683   0.447  13.230  11.615 -0.0856  0.0279  0.1179
12830W        W31684   2.282   3.681  11.495 -0.2792 -0.1168  0.2667
12831W        W31685  13.535  11.075  15.100  0.1423 -0.0326 -0.0730
12832W        W31686  15.506   7.553   3.367 -0.0982 -0.0669 -0.0736
12833W        W31687  14.516  12.652  13.914 -0.0094 -0.0658  0.1704
12834W        W31688   4.509   0.495  15.027  0.0648  0.1358 -0.0846
12835W        W31689  16.333   7.224  13.994 -0.1700 -0.0716 -0.4500
12836W        W31690   8.600  12.684   2.368  0.0049  0.3297 -0.0515
12837W        W31691   3.660   8.933   3.363  0.2893  0.0118  0.0506
12838W        W31692  15.318   7.721  11.903  0.3596 -0.1472  0.0442
12839W        W31693  10.611   7.349   1.532  0.0057  0.3486  0.1140
12840W        W31694  15.267   1.806   1.261 -0.0732 -0.0214  0.1385
12841W        W31695   7.610   5.556  10.872  0.0290  0.0781  0.0124
12842W        W31696  10.270   8.416  13.240 -0.4473  0.0487 -0.2177
12843W        W31697   4.960   5.599  14.151  0.2473  0.0624 -0.1895
12844W        W31698   9.845   3.982  11.860 -0.1358 -0.0114  0.1988
12845W        W31699   3.143   1.785   3.989 -0.0561 -0.0698 -0.3039
12846W        W31700  16.027  14.414   4.102 -0.0386  0.0283 -0.0954
12847W        W31701  16.175   1.038   1.073  0.1869 -0.1289  0.0479
12848W        W31702   9.167  16.711   1.971  0.0079 -0.0125 -0.1011
12849W        W31703  10.522   3.153   1.825 -0.3132 -0.0865 -0.0582
12850W        W31704   9.079  16.567   4.345  0.0955 -0.1532 -0.2738
12851W        W31705   8.802  11.229  14.202  0.0581  0.2068  0.2238
12852W        W31706  17.955   3.388  13.843  0.0040 -0.3150 -0.0363
12853W        W31707  10.974  10.281  15.192 -0.1085 -0.3687 -0.0085
12854W        W31708  14.521   7.703  11.822 -0.1426  0.1501  0.0167
12855W        W31709   9.878   2.125  15.387 -0.0257 -0.1145 -0.0374
12856W        W31710   4.117  14.882   2.103 -0.1928 -0.2766 -0.0535
12857W        W31711  11.731   6.143   0.868 -0.1582  0.1708 -0.3829
12858W        W31712  13.945  15.640  12.645  0.1070 -0.2551  0.0436
12859W        W31713   4.023   0.897   1.776 -0.1709  0.0448 -0.3517
12860W        W31714  11.783  10.064   0.541  0.1952 -0.2509  0.1222
12861W        W31715   5.765  13.887  15.334  0.4304  0.0132  0.1747
12862W        W31716   4.640  11.439  12.031  0.0505 -0.0737  0.0006
12863W        W31717   4.825   0.589   4.791  0.2165  0.0125 -0.0881
12864W        W31718   3.434   7.117  11.556 -0.0965 -0.0112 -0.0748
12865W        W31719   1.360   4.266  13.139  0.1248 -0.3421  0.0338
12866W        W31720   9.459   5.462   2.579  0.0062  0.0184 -0.2306
12867W        W31721   5.260   9.151   1.108  0.1950 -0.2270 -0.0580
12868W        W31722   3.918   2.137   3.096 -0.3398 -0.0871  0.0128
12869W        W31723   8.446   4.076  15.217 -0.2410  0.0244 -0.2840
12870W        W31724   7.552  16.581  15.922  0.0740 -0.0585  0.2396
12871W        W31725   1.167  16.155  11.143 -0.1694  0.0717 -0.0237
12872W        W31726   1.862  14.729   5.816  0.1943 -0.3107 -0.2177
12873W        W31727   7.588  13.902  12.012 -0.0780  0.2667  0.1210
12874W        W31728   1.421   2.064  16.028 -0.3783 -0.2969  0.1062
12875W        W31729  18.038  10.479  10.659 -0.0715  0.1673  0.2060
12876W        W31730   9.985  10.601   0.472 -0.0954  0.0596 -0.0900
12877W        W31731   3.897  12.550   3.057 -0.2244  0.0537 -0.1532
12878W        W31732   4.874  11.327   2.319  0.0326 -0.0483 -0.2105
12879W        W31733  10.922  17.710   1.714  0.1719 -0.1054 -0.3242
12880W        W31734   2.675   3.418   0.546 -0.0428 -0.0283 -0.1786
12881W        W31735   6.617   5.486   4.627 -0.2998  0.3303 -0.0781
12882W        W31736   2.363  14.441  14.806 -0.0315 -0.2366 -0.4729
12883W        W31737   3.163   5.410   3.071  0.1336 -0.0528  0.3018
12884W        W31738  17.550   3.810  15.784 -0.2760 -0.3687  0.0802
12885W        W31739  16.558   7.815   5.615  0.1407 -0.4650 -0.0808
12886W        W31740  16.782   3.828   3.231 -0.1805 -0.2474 -0.2460
12887W        W31741  10.816  17.213   4.975 -0.0589 -0.0264  0.1115
12888W        W31742  14.061  10.984   0.199  0.1629 -0.1074 -0.3069
12889W        W31743  12.925   3.229  12.668  0.0911  0.0229 -0.1049
12890W        W31744  16.820  14.393  12.937  0.3028  0.0840 -0.1255
12891W        W31745   8.714  10.142  15.679  0.0249 -0.0297 -0.0600
12892W        W31746   6.590  15.426   3.380  0.1588  0.2307 -0.0111
12893W        W31747   7.332  15.246   4.240  0.2090 -0.0262  0.1911
12894W        W31748   1.238  11.508   2.321 -0.1659 -0.0983  0.0736
12895W        W31749   9.745   5.708  14.449  0.1759 -0.2341 -0.0508
12896W        W31750  12.913   5.459  13.237 -0.2848 -0.2614  0.0699
12897W        W31751   6.416  14.451  11.474  0.0975  0.1162 -0.2292
12898W        W31752  11.512   5.164  13.707  0.2944  0.1681 -0.0996
12899W        W31753   5.952  13.635   1.168 -0.0339 -0.0290 -0.0683
12900W        W31754   0.309   4.367   3.910 -0.2427 -0.1030  0.0392
12901W        W31755   6.993  11.718  14.322  0.0771  0.0401  0.1817
12902W        W31756  16.248  16.700   2.148 -0.0287 -0.0551 -0.0360
12903W        W31757  16.415  17.704  14.185  0.2997  0.2411 -0.0227
12904W        W31758   5.479  12.722  13.323 -0.2058  0.2576 -0.0998
12905W        W31759   6.870   0.827   2.251 -0.0198 -0.1746  0.0588
12906W        W31760   6.771   0.214  11.956  0.1076  0.0388 -0.0167
12907W        W31761   1.982   4.057   3.017 -0.4180 -0.0318 -0.3116
12908W        W31762   8.936   4.220   3.129  0.0802 -0.1681  0.2754
12909W        W31763   6.389  13.025  13.254  0.0640 -0.2642 -0.1799
12910W        W31764  17.551   2.273   3.481  0.0074  0.0272  0.1299
12911W        W31765   9.826   1.953  13.930  0.0763 -0.0280  0.0325
12912W        W31766   2.870  12.500  11.969  0.0590  0.0035 -0.0767
12913W        W31767   8.823   9.479   2.990  0.1071 -0.2488  0.2001
12914W        W31768   4.944  12.822   1.468  0.1362 -0.0022  0.1763
12915W        W31769  13.068  17.566   2.752  0.0488  0.2954 -0.0407
12916W        W31770   4.777  17.609  14.619 -0.2615  0.0193 -0.1605
12917W        W31771   4.064   0.168  11.717 -0.1468  0.0299 -0.0766
12918W        W31772   6.257  10.074   3.654 -0.0068  0.1106 -0.1723
12919W        W31773   9.519  14.912   1.658  0.0796  0.1719  0.2048
12920W        W31774  13.746   9.163   4.495 -0.2844 -0.4197 -0.0464
12921W        W31775  14.596   8.275   1.910 -0.1004  0.0977 -0.0377
12922W        W31776   3.429  13.840   0.519 -0.1407  0.0719 -0.3415
12923W        W31777  17.814  14.322   0.979  0.0761  0.1782 -0.2832
12924W        W31778  10.631   3.799  15.251  0.1146 -0.0117  0.1554
12925W        W31779   9.267   3.736  15.302 -0.1371 -0.0087  0.0025
12926W        W31780  16.437  13.978   5.683 -0.0265  0.0261  0.2724
12927W        W31781   2.324  15.774   3.842 -0.0707 -0.0092  0.0762
12928W        W31782   1.323   0.110   0.230 -0.1702 -0.1603 -0.2268
12929W        W31783   4.700  12.976  14.402  0.0409 -0.1374 -0.0513
12930W        W31784  10.616   9.231   3.465  0.1324  0.2746 -0.1306
12931W        W31785   9.477  17.927   2.793  0.0440  0.5037  0.0129
12932W        W31786  14.784   9.223   2.673  0.2185 -0.1728 -0.2005
12933W        W31787  11.498  14.656   2.074 -0.1132 -0.3050 -0.0868
12934W        W31788  17.209  14.569  16.040  0.1993  0.0188 -0.0058
12935W        W31789   5.046  16.735   4.660  0.1799  0.0528  0.0525
12936W        W31790   6.201   1.951   3.699 -0.0236  0.0210  0.1307
12937W        W31791  17.099   4.920   4.419  0.2941  0.2134 -0.0764
12938W        W31792   7.348   0.093  15.470  0.3300  0.0226  0.0252
12939W        W31793  12.223  11.775   2.245 -0.1373  0.3929  0.1550
12940W        W31794  12.774  13.025  12.487  0.2103 -0.0105 -0.0459
12941W        W31795   2.639  16.022  13.909  0.0865  0.4353  0.1624
12942W        W31796   6.774  15.904   2.994 -0.3424  0.0230 -0.1578
12943W        W31797   0.970  13.865   4.345  0.1241  0.2276 -0.1056
12944W        W31798   4.261   1.909   1.271  0.0257  0.0475  0.2156
12945W        W31799   3.488   7.521  15.132 -0.0474  0.2776 -0.0568
12946W        W31800   4.255  16.060  15.676  0.2901 -0.0135 -0.0465
12947W        W31801   2.227  12.373   2.937 -0.2000  0.0719 -0.0615
12948W        W31802  12.152   6.892   3.794 -0.1559  0.2031 -0.0025
12949W        W31803   4.925   4.049  15.709 -0.1238 -0.0792  0.2931
12950W        W31804   1.983   3.992  14.574  0.2987  0.1159  0.0443
12951W        W31805   0.895   2.392   0.874 -0.0232  0.1372 -0.2669
12952W        W31806  14.881   0.844  14.772 -0.1066 -0.2666  0.1625
12953W        W31807  11.313  15.739   0.722 -0.1924  0.0043 -0.0656
12954W        W31808  10.290  16.170   1.091  0.0876 -0.2955  0.1975
12955W        W31809   0.999  10.312  11.006 -0.0072  0.0297  0.2819
12956W        W31810  17.051  17.987  12.199  0.2184 -0.0447  0.0070
12957W        W31811   5.356   7.599  16.127  0.0221 -0.1007  0.0482
12958W        W31812   6.974   3.926  11.657  0.1789  0.2357 -0.0539
12959W        W31813   0.489   7.639   3.347  0.2912  0.0530 -0.1015
12960W        W31814   6.180  16.822   1.850 -0.1066 -0.4162 -0.3108
12961W        W31815   0.814   1.444   0.485  0.2150 -0.0863 -0.0121
12962W        W31816   7.298  12.324  14.958 -0.0342 -0.1446 -0.0623
12963W        W31817   0.478   1.148  12.494  0.3890 -0.2643  0.0554
12964W        W31818  17.591  10.549   3.105 -0.1447  0.0432  0.1716
12965W        W31819   7.016   7.544   2.955  0.1342 -0.0214  0.1881
12966W        W31820  16.494  12.897  14.503 -0.1199 -0.0250 -0.0610
12967W        W31821   1.657  15.684  16.089 -0.0093 -0.1739  0.0583
12968W        W31822  17.822  17.604  15.095  0.3207 -0.4289  0.0914
12969W        W31823  15.390   8.387   1.334  0.2306  0.1434 -0.3132
12970W        W31824   5.409   3.269   2.293 -0.0641  0.2083 -0.0112
12971W        W31825  13.572   3.426  16.159 -0.1755  0.0414  0.2052
12972W        W31826   4.022   3.817  16.010  0.0510  0.3987 -0.0418
12973W        W31827  10.078  13.029  12.498  0.1591 -0.1298 -0.3141
12974W        W31828   1.535  17.529  11.884 -0.1487  0.1223 -0.0809
12975W        W31829   8.910   4.529   0.043 -0.2866 -0.1823 -0.0021
12976W        W31830  15.685   9.864  13.523 -0.2597 -0.1693 -0.0478
12977W        W31831   0.237   9.271  12.413  0.0555  0.1164  0.0861
12978W        W31832   0.384   0.076  13.304  0.1035  0.0806  0.1291
12979W        W31833   5.822  16.770   2.595  0.0701 -0.0248 -0.2941
12980W        W31834  15.973  14.589   0.043 -0.0445 -0.1343 -0.2264
12981W        W31835  16.874   8.665   1.658 -0.0771 -0.2109 -0.1177
12982W        W31836   3.222   9.040  14.442  0.0534  0.2420 -0.0352
12983W        W31837  13.596   8.482   3.598  0.0695 -0.0305  0.1390
12984W        W31838  14.021   6.893   0.322  0.1252 -0.0588  0.0303
12985W        W31839   3.227   1.417   1.271  0.1409  0.1841 -0.2201
12986W        W31840   7.973   2.106  14.135 -0.0561 -0.0081  0.1369
12987W        W31841   9.037   6.943   3.036 -0.2315 -0.0457 -0.1181
12988W        W31842  12.787   1.386  12.040 -0.0468  0.3284 -0.0506
12989W        W31843   3.913   6.269  13.278  0.0137 -0.1520  0.0827
12990W        W31844   2.764  16.774   3.005 -0.1889  0.1341  0.1006
12991W        W31845   8.022  10.999  13.687  0.1130 -0.0116  0.1304
12992W        W31846   1.056  13.816  15.311  0.1740 -0.0596  0.1243
12993W        W31847   1.050   1.068  12.390  0.0023  0.0350  0.3236
12994W        W31848  14.412  15.284  13.562 -0.1552  0.1402 -0.1293
12995W        W31849  10.402   3.841  14.703  0.0626  0.2038 -0.5149
12996W        W31850  11.285   4.014  15.524 -0.1731  0.1489  0.0416
12997W        W31851   9.550   1.264  13.679 -0.0164 -0.2619  0.2876
12998W        W31852   9.937  17.119  15.808  0.1245 -0.4306  0.2950
12999W        W31853   7.147   5.741  14.474  0.1437  0.1786  0.0610
13000W        W31854   6.840   2.668  13.613  0.0219 -0.1575  0.0857
13001W        W31855   0.746   8.060  16.062  0.2927  0.0504 -0.1019
13002W        W31856   0.223  14.204   0.683  0.2168 -0.4020 -0.0598
13003W        W31857   0.215  17.599   3.995  0.1061  0.1333 -0.3040
13004W        W31858  12.854  17.600  11.677  0.1127 -0.0475 -0.1964
13005W        W31859  17.639   7.046  10.362  0.0952  0.2059  0.3417
13006W        W31860  15.402   8.942  13.943  0.0085  0.0214 -0.4188
13007W        W31861   9.079  13.040  16.120  0.2009 -0.0660 -0.2663
13008W        W31862   9.571   0.704   1.269  0.1301  0.0780  0.0097
13009W        W31863  14.240  10.076   0.724 -0.1159 -0.2677 -0.0658
13010W        W31864   6.916   3.133   3.503 -0.0177  0.2980 -0.1130
13011W        W31865  15.929  14.121  15.877  0.0049 -0.3045  0.2302
13012W        W31866   8.135  13.332   1.645  0.1965  0.0516 -0.0571
13013W        W31867   0.926  10.680   2.410  0.0730 -0.1282  0.1891
13014W        W31868  11.425   1.033   4.396  0.1171 -0.0619 -0.0250
13015W        W31869   6.605   0.742  11.877 -0.0130  0.0111  0.1222
13016W        W31870   2.565   1.652   3.412  0.0234 -0.0236  0.5447
13017W        W31871  17.296   4.726   2.298  0.1007  0.0689  0.0780
13018W        W31872   5.590   1.381   0.833 -0.2616  0.1279  0.2053
13019W        W31873   0.004   6.642   0.606  0.1643 -0.1643 -0.0627
13020W        W31874   3.421   8.406   4.546  0.2426  0.0292 -0.0567
13021W        W31875   1.374  15.100   4.836 -0.1037 -0.0887 -0.1285
13022W        W31876   1.538   9.350   0.284  0.0864 -0.0490 -0.0304
13023W        W31877  16.818   9.397   3.948 -0.0334 -0.2422 -0.1352
13024W        W31878   2.857   7.923  14.526 -0.2311 -0.1782 -0.2027
13025W        W31879  12.434  13.867  15.623  0.1196 -0.3355  0.2347
13026W        W31880  14.519  13.330   0.616 -0.1896  0.0581 -0.1449
13027W        W31881   1.437  13.818  14.769 -0.2024 -0.2610 -0.2277
13028W        W31882   0.066  17.172   0.011 -0.1893 -0.0357 -0.0797
13029W        W31883  17.317  10.966   3.418  0.0214 -0.2219 -0.0508
13030W        W31884   2.344  11.420  14.713  0.1494  0.1461 -0.2277
13031W        W31885  10.713  13.042  14.481  0.1571 -0.1084 -0.2972
13032W        W31886   5.887  11.052  14.488  0.0465 -0.0533 -0.2009
13033W        W31887  17.568   6.592   2.188 -0.1314 -0.0057 -0.0976
13034W        W31888   8.630  14.881  15.312  0.3320  0.4154 -0.0319
13035W        W31889  16.689   9.570  15.861 -0.2973 -0.0970  0.3588
13036W        W31890  16.221  16.912   3.047 -0.0698  0.3835  0.6443
13037W        W31891  16.396  11.338   3.125  0.1602 -0.0039 -0.1400
13038W        W31892   9.605  17.509  15.921 -0.2316  0.0372  0.2538
13039W        W31893  16.141  10.408   1.448  0.3056  0.1238  0.0537
13040W        W31894  13.898   3.898  14.691 -0.0185 -0.1463 -0.1350
13041W        W31895   5.225  14.595   0.644  0.2187  0.0438  0.1484
13042W        W31896   0.738   3.614   4.200 -0.2071  0.1224  0.1108
13043W        W31897  15.087  10.720  11.937 -0.2721  0.1721  0.1373
13044W        W31898  18.035   8.089   0.565 -0.3768  0.0814 -0.0056
13045W        W31899   2.981  14.890   2.524  0.0505 -0.1873 -0.0778
13046W        W31900   2.772   3.544  14.670  0.0876  0.4076  0.0381
13047W        W31901   3.650  17.422  15.667 -0.0857 -0.1386 -0.0285
13048W        W31902   2.520  16.848   5.604 -0.0325  0.0409 -0.2641
13049W        W31903   5.844   9.252   0.039  0.0165 -0.0113 -0.2339
13050W        W31904  10.833  10.957   4.081 -0.0359 -0.3615  0.2042
13051W        W31905  16.884   4.333  15.637  0.1441 -0.2958 -0.0384
13052W        W31906  11.423  17.510  13.411  0.2060  0.2611 -0.1423
13053W        W31907   7.333  16.949  13.832 -0.2473 -0.2205 -0.0048
13054W        W31908  11.344  14.987   4.467 -0.0076 -0.1664  0.1673
13055W        W31909  11.547  10.782  12.921  0.0388 -0.3332  0.2206
13056W        W31910   3.107   3.303  15.938 -0.1157  0.1509 -0.1434
13057W        W31911   9.908   5.415   3.385 -0.3338  0.1479  0.1739
13058W        W31912   3.705   7.851   1.830 -0.1543  0.0871 -0.0505
13059W        W31913   2.346  16.168  12.052  0.2752  0.1870  0.1129
13060W        W31914  15.616  11.170   4.784 -0.0414 -0.0525  0.0745
13061W        W31915  11.485   6.808   2.417  0.0245 -0.2631  0.1969
13062W        W31916   0.148   3.780   0.534 -0.0052 -0.1284  0.0909
13063W        W31917   7.952   7.563   2.450 -0.1830 -0.4206 -0.2073
13064W        W31918   1.057   4.943  14.627  0.3453  0.1755  0.0852
13065W        W31919   9.426  13.661  11.456 -0.0932  0.1414 -0.0983
13066W        W31920   6.602   2.706  12.063 -0.1621  0.2224  0.1328
13067W        W31921  17.771   5.942  12.087 -0.2562  0.1483  0.3279
13068W        W31922   9.187   9.759  14.928  0.0565  0.1008  0.0711
13069W        W31923   1.821   7.564   3.989  0.1923 -0.0071 -0.0105
13070W        W31924  12.570  13.533   4.705 -0.0318  0.0424 -0.0204
13071W        W31925  17.025   7.545  12.770 -0.2282 -0.0301 -0.2977
13072W        W31926   6.093  11.490  14.234  0.1109  0.3289 -0.2523
13073W        W31927   9.564   3.427  15.605  0.1540  0.1252  0.2445
13074W        W31928  16.647   5.663   0.403  0.0633 -0.4017 -0.0889
13075W        W31929   3.075   7.204   1.706 -0.0593  0.0475 -0.1278
13076W        W31930  10.753   5.499  14.633  0.2338  0.1864 -0.2373
13077W        W31931  17.318   3.003  16.109 -0.0782 -0.1405 -0.0206
13078W        W31932  11.616   2.937  15.431  0.2685 -0.0824  0.0207
13079W        W31933  12.212  12.884  16.058  0.3639  0.1272 -0.0690
13080W        W31934   6.388   2.324   4.329  0.0263  0.1166  0.0702
13081W        W31935   6.227  16.254  15.735 -0.2519 -0.2399  0.0570
13082W        W31936   9.434   6.720  12.372  0.1067  0.2316 -0.2816
13083W        W31937   1.922  16.498   2.512  0.0789  0.0232  0.1951
13084W        W31938  10.690   4.861   5.616  0.1959 -0.2407  0.1905
13085W        W31939  15.552   6.985  14.466  0.2244  0.0284  0.1739
13086W        W31940   1.353   8.961  14.760  0.4921  0.1216 -0.0343
13087W        W31941  14.845   9.904   1.556 -0.1190 -0.1220  0.1343
13088W        W31942   3.920   3.981   3.341  0.0588  0.0149  0.0035
13089W        W31943   0.058   5.715   3.467  0.1441 -0.2052  0.0107
13090W        W31944  13.284  15.727   4.031  0.3339  0.0049  0.5058
13091W        W31945   7.755  13.990   2.764  0.2066 -0.2423 -0.0572
13092W        W31946  12.236   7.373   0.012 -0.0728  0.2004 -0.1557
13093W        W31947  10.895   2.132  16.194 -0.3422 -0.0752 -0.1900
13094W        W31948   6.591   3.389  15.996  0.1129  0.1260 -0.2697
13095W        W31949   5.969   0.042  11.420 -0.0165 -0.0156 -0.0153
13096W        W31950  17.661  10.507  15.911 -0.1694  0.0941  0.0634
13097W        W31951   9.454   1.917   4.421  0.2564  0.1168 -0.0629
13098W        W31952   2.173  12.092  12.950 -0.0940  0.2236  0.0332
13099W        W31953   5.364   3.095   0.953 -0.2605  0.2945 -0.0833
13100W        W31954   7.518  15.361   0.682  0.0773  0.0278  0.0286
13101W        W31955   9.027  10.610  13.786 -0.1391  0.3401  0.0369
13102W        W31956  10.905  15.823   5.084 -0.0349 -0.2366  0.4081
13103W        W31957   3.046   0.422   3.722  0.0398 -0.3180 -0.1611
13104W        W31958   1.457  11.078  11.266 -0.0433 -0.1665  0.0034
13105W        W31959  16.751  11.862  15.323 -0.1060 -0.2153 -0.1849
13106W        W31960   3.744  14.016   0.906 -0.1865  0.1726  0.3894
13107W        W31961  14.237  16.056  14.199  0.1348  0.1270  0.1891
13108W        W31962   5.646   6.080   1.703  0.1328 -0.3476  0.0599
13109W        W31963  15.475   9.592  10.184 -0.1698 -0.2766  0.2923
13110W        W31964   0.958  16.055   0.585  0.0096  0.2366 -0.3012
13111W        W31965  17.197  15.111  13.096 -0.0250  0.4243  0.0375
13112W        W31966  10.359   1.588   3.591 -0.2045 -0.2675  0.0910
13113W        W31967   6.339   3.962   5.490 -0.1980 -0.0898 -0.0821
13114W        W31968   9.100   6.374   1.001  0.0881 -0.0742 -0.0152
13115W        W31969   9.938   9.353   1.780 -0.0184  0.2558  0.1426
13116W        W31970   3.522   3.594   3.134 -0.1409  0.0652  0.2251
13117W        W31971  12.175   8.886   1.194 -0.0758  0.2822  0.0385
13118W        W31972   9.257  15.158   0.180 -0.0113 -0.2274 -0.0145
13119W        W31973   8.624  15.304   4.063 -0.2799  0.1157 -0.1278
13120W        W31974   0.260  16.121  14.392 -0.2230  0.1438  0.3318
13121W        W31975   9.357   5.385  13.358 -0.1006  0.0956  0.1643
13122W        W31976   5.429  10.641  14.233 -0.0085 -0.0694 -0.2156
13123W        W31977   6.000   6.541  12.207 -0.0204 -0.0098  0.1625
13124W        W31978   7.219  15.269   2.064  0.4556 -0.2304  0.2663
13125W        W31979   5.396   1.167   0.367  0.1458 -0.0238 -0.3771
13126W        W31980   0.541   1.204  11.866 -0.1903  0.0817  0.1400
13127W        W31981  11.962   3.672  12.922  0.0830 -0.0358  0.0308
13128W        W31982  16.057   5.081   3.375  0.1534  0.3195 -0.3942
13129W        W31983  13.974  15.267   1.152  0.0232  0.1139 -0.3730
13130W        W31984  10.333   2.960  15.042 -0.0191  0.1634 -0.0974
13131W        W31985  11.969  15.261  15.950 -0.1378  0.2971 -0.0223
13132W        W31986  13.943  12.390   0.987  0.2392 -0.0095  0.0114
13133W        W31987   9.668  11.476   1.220  0.1431  0.0875 -0.2026
13134W        W31988  11.916   4.949  15.708  0.1771  0.1945  0.2554
13135W        W31989   0.106  10.546  16.062 -0.0663 -0.0863 -0.0920
13136W        W31990  17.472  16.538  15.057 -0.1123 -0.1513  0.1148
13137W        W31991   4.496  10.934   3.834  0.1044  0.2342 -0.0321
13138W        W31992   3.912   2.868  15.273 -0.0762 -0.3841  0.0046
13139W        W31993   0.772  11.667   2.095  0.0366 -0.0205 -0.1155
13140W        W31994   1.094  11.551  12.093 -0.0136  0.0081 -0.1209
13141W        W31995  10.105  16.512  13.467  0.0862  0.0110  0.0933
13142W        W31996   2.112   4.356   4.751  0.0954 -0.1276 -0.0241
13143W        W31997  16.539   0.563  15.562  0.0966  0.0524  0.1035
13144W        W31998   5.031   7.480   1.596  0.0198 -0.3471 -0.0955
13145W        W31999   5.988  17.812  14.369  0.4647 -0.4531  0.2134
13146W        W32000  13.533   2.933  12.678  0.0735 -0.1538  0.1557
13147W        W32001   2.705   5.476  14.389  0.0451  0.2114 -0.0552
13148W        W32002  13.595   1.991  15.178 -0.1396 -0.0553 -0.3536
13149W        W32003  10.533   6.707   4.168 -0.0884 -0.0365  0.0502
13150W        W32004   3.284  11.090  16.184 -0.2656 -0.1173  0.1622
13151W        W32005  11.047  13.029   0.846 -0.1761  0.0974  0.1688
13152W        W32006   0.084  16.587  12.574  0.3528 -0.4409 -0.0088
13153W        W32007  12.017   7.088  11.828  0.0898  0.0095 -0.1661
13154W        W32008   5.833  13.030  14.073 -0.0445 -0.0249 -0.0457
13155W        W32009   7.912   8.509   5.312 -0.1249  0.2287 -0.1615
13156W        W32010   2.997  12.359   4.256  0.0048 -0.0767 -0.0792
13157W        W32011   5.496  11.569   3.138  0.1626 -0.0792 -0.0750
13158W        W32012   2.387   6.615  13.158  0.0468  0.1622  0.0002
13159W        W32013   2.046   0.226   1.286 -0.1728  0.2883 -0.2210
13160W        W32014   2.720   2.012   5.484 -0.0239 -0.0907  0.0523
13161W        W32015   5.202  15.720  14.867 -0.0649  0.1548 -0.2785
13162W        W32016   8.227   5.201  14.212  0.1647 -0.2821  0.0031
13163W        W32017   7.626   9.421  14.277  0.2230 -0.1703 -0.1527
13164W        W32018  10.491  14.258   3.065  0.2738 -0.2851 -0.0899
13165W        W32019  14.986  17.457  12.597 -0.3193 -0.1475  0.1163
13166W        W32020  10.991   4.362   2.422  0.3007  0.1958 -0.0982
13167W        W32021  16.309   6.723  14.237  0.1842 -0.0413  0.2410
13168W        W32022  15.465   2.289   1.973  0.0918  0.0921  0.0167
13169W        W32023   8.687   5.427   0.916 -0.2678  0.0512  0.2153
13170W        W32024   4.234  15.141  11.567 -0.1537 -0.1379 -0.2355
13171W        W32025   6.433  11.814  14.540  0.1900  0.2632 -0.2714
13172W        W32026   8.089  11.112   1.876  0.1415 -0.1533  0.0337
13173W        W32027   2.571  17.538   2.831 -0.1470  0.3596 -0.0092
13174W        W32028  10.083   2.074  13.409 -0.0363 -0.0754 -0.1184
13175W        W32029  16.733   1.014  15.968  0.0354  0.2284  0.1216
13176W        W32030  13.256  15.003   2.213  0.1001  0.0137  0.1266
13177W        W32031  10.423   0.224   3.223 -0.0612  0.1357  0.1415
13178W        W32032   5.783  11.178   3.263 -0.1494 -0.0033 -0.1313
13179W        W32033   1.277   5.390  14.510  0.1843  0.1121  0.1371
13180W        W32034   0.784  13.096   0.185 -0.0276 -0.0223 -0.1666
13181W        W32035   0.767  12.757   0.967  0.4646  0.2931 -0.0043
13182W        W32036   4.155  13.306   0.488 -0.1105 -0.1056  0.0171
13183W        W32037   2.754   6.348   4.701  0.2986  0.0954  0.0032
13184W        W32038   7.094   7.774   4.378  0.1685 -0.0856  0.0752
13185W        W32039  14.089   7.654   4.182 -0.1990 -0.1262 -0.1210
13186W        W32040  11.587   2.042   3.115  0.0236 -0.0192 -0.0601
13187W        W32041  11.644   2.937   3.052  0.2091 -0.1421  0.0718
13188W        W32042  15.258   8.233  13.743 -0.1200 -0.2278  0.1776
13189W        W32043  15.065   4.708  11.022 -0.1604  0.0424  0.2533
13190W        W32044   3.750   2.601  15.656  0.0756 -0.1975  0.1798
13191W        W32045   1.058  11.497  12.580 -0.3603 -0.1044  0.0565
13192W        W32046  12.787   6.876  15.839 -0.1249  0.0720  0.0424
13193W        W32047  15.992   2.338   3.502  0.0447  0.1194 -0.1863
13194W        W32048   2.256   0.292  11.250  0.1095  0.1943  0.1085
13195W        W32049  16.595   1.164   3.065  0.3525  0.3348 -0.1300
13196W        W32050   7.321   1.967   4.742  0.0253 -0.1356 -0.1163
13197W        W32051  11.719  17.776  14.207  0.0644 -0.0059  0.0420
13198W        W32052   5.909  14.971  15.173 -0.1757  0.3383  0.1771
13199W        W32053   6.304   1.846  14.785  0.0033  0.2674 -0.0503
13200W        W32054  15.029   3.178   1.820  0.0401  0.2918 -0.3193
13201W        W32055  13.961   3.918  11.046  0.2439  0.0758 -0.0671
13202W        W32056  16.800  14.913  13.793  0.1293 -0.1432 -0.1689
13203W        W32057   9.905  13.095   4.304 -0.2394  0.0495 -0.0811
13204W        W32058   5.770  11.486   3.680  0.1596  0.3297  0.2139
13205W        W32059  12.245   5.864   4.759  0.1116  0.1013 -0.1019
13206W        W32060   0.227   0.669   4.353  0.2992 -0.0182  0.0170
13207W        W32061  16.785  14.672   0.542 -0.1220  0.4485 -0.1852
13208W        W32062  10.417   1.633  15.267 -0.0140  0.2301  0.1823
13209W        W32063  11.537   3.448   2.604 -0.1378 -0.2243  0.0211
13210W        W32064   7.430   8.964  14.484 -0.3250  0.1121  0.0276
13211W        W32065  15.224   1.015   2.210 -0.2456  0.2505 -0.1424
13212W        W32066  15.467   5.155   1.575  0.1638 -0.0955 -0.0733
13213W        W32067   3.821  15.895   1.702  0.0725  0.0577 -0.0827
13214W        W32068  11.188  17.329   2.033  0.1645  0.1364 -0.0701
13215W        W32069   1.826  10.871  16.109 -0.1174 -0.2311 -0.1542
13216W        W32070  15.836  17.172  12.627  0.1083 -0.0110 -0.0545
13217W        W32071   0.721   9.374  11.347  0.0047 -0.1206  0.0134
13218W        W32072   5.153  11.793  14.781  0.2079 -0.1657 -0.0190
13219W        W32073   3.173   8.769  14.839 -0.0036  0.4308  0.2044
13220W        W32074   9.595  10.948   3.565  0.1261  0.1575  0.3007
13221W        W32075   3.411   2.812   2.906 -0.2864  0.0678  0.0280
13222W        W32076  17.741  17.280   3.349 -0.1431 -0.2779 -0.1142
13223W        W32077   1.427  13.521  14.057 -0.1085  0.0510 -0.3462
13224W        W32078   4.269  12.779  14.361 -0.2592  0.0349 -0.0525
13225W        W32079   5.598  12.938   4.158  0.0336  0.1134  0.2630
13226W        W32080   4.895  11.714  11.506 -0.1672  0.0575 -0.3558
13227W        W32081  11.959  12.118  12.375 -0.1313  0.1020  0.3264
13228W        W32082  11.229  17.799  12.788 -0.1258  0.3247  0.0891
13229W        W32083   3.717   0.616   2.269  0.0773  0.0236  0.0974
13230W        W32084   6.632  14.874   3.118 -0.0580  0.1288 -0.3024
13231W        W32085   4.859   2.964   3.086 -0.0652 -0.0945 -0.1395
13232W        W32086  12.391  15.632   1.849 -0.0065 -0.1220 -0.1414
13233W        W32087   0.130   9.017  15.030 -0.2379  0.2822  0.3261
13234W        W32088  14.843  11.478   3.718 -0.2335 -0.0325 -0.3477
13235W        W32089  13.520   0.199  11.946 -0.2605  0.1503 -0.0124
13236W        W32090  12.532  10.061   1.094 -0.0810  0.1913 -0.0643
13237W        W32091   7.667   0.256   5.224 -0.0426  0.2139 -0.0151
13238W        W32092   3.298  12.738   0.496  0.0732  0.0240 -0.2797
13239W        W32093  14.641  15.363   4.867 -0.2489  0.1540  0.2479
13240W        W32094  14.527  11.116  15.960  0.1101 -0.1110  0.1329
13241W        W32095  15.783   7.408  14.292  0.0332  0.3775  0.0455
13242W        W32096   0.100   9.328   3.299  0.0273 -0.1545 -0.1250
13243W        W32097   4.664  13.630   1.351 -0.2692 -0.1005 -0.1486
13244W        W32098  10.675  17.315   0.629  0.2651 -0.1536  0.2035
13245W        W32099  14.404   9.181  11.004  0.1891 -0.2390 -0.1568
13246W        W32100   3.794   2.882  12.655 -0.0407 -0.1621 -0.1970
13247W        W32101  11.464   6.766  14.310 -0.1099  0.0323  0.1908
13248W        W32102  10.501   1.062   3.076 -0.2356  0.2768 -0.2138
13249W        W32103  16.022   3.627  12.859  0.3116  0.0611 -0.0536
13250W        W32104  13.085   1.738   0.250  0.5590  0.0645  0.1881
13251W        W32105  16.400   3.749   0.953 -0.3001  0.4300 -0.0127
13252W        W32106  12.450  13.210   0.225 -0.1093  0.0702  0.0551
13253W        W32107   5.366   8.115  14.670  0.0146  0.0490 -0.1510
13254W        W32108   4.831   9.655   3.079  0.1959  0.1827 -0.0372
13255W        W32109   6.094   2.598  15.540  0.2174  0.3314  0.5175
13256W        W32110  12.321  11.768  14.737 -0.0286 -0.0177  0.2199
13257W        W32111  16.848   4.445   2.183 -0.1469 -0.1601  0.0865
13258W        W32112  16.976   9.969   4.805 -0.0707  0.3514 -0.0489
13259W        W32113  13.380   2.528  13.044 -0.0892  0.0695 -0.2550
13260W        W32114   8.869   6.857   1.177 -0.0630  0.4364  0.0722
13261W        W32115  11.272  12.086  14.682  0.1290 -0.1266 -0.0433
13262W        W32116  14.881   0.238  13.979 -0.0784 -0.0314 -0.2965
13263W        W32117  14.047  15.998  12.103 -0.1133 -0.0730 -0.0646
13264W        W32118  12.338  10.294   3.110 -0.0610 -0.3107 -0.2453
13265W        W32119   4.502  17.837   2.738 -0.3995 -0.2704 -0.1008
13266W        W32120  12.283   8.341   1.921  0.2493 -0.0290 -0.2580
13267W        W32121  11.127  16.680  13.651 -0.0777 -0.0820  0.1708
13268W        W32122   6.683  14.379   0.277  0.0651 -0.0801  0.0362
13269W        W32123   5.260   0.154   2.031 -0.0173  0.1233 -0.0180
13270W        W32124   5.181  17.816   5.274  0.1991 -0.1390 -0.1149
13271W        W32125   3.647  16.446   1.441  0.0665 -0.0893  0.1410
13272W        W32126  15.852  10.335  13.335  0.1332  0.0463 -0.0277
13273W        W32127  16.710   6.534   5.233  0.1949  0.0712  0.0297
13274W        W32128  15.714   0.260  14.411 -0.0387 -0.0936  0.1060
13275W        W32129  11.562  14.181  15.375 -0.1845  0.0906  0.2341
13276W        W32130   0.641  15.064  14.595 -0.1030  0.1383  0.1395
13277W        W32131   7.755  11.546  15.823  0.1057 -0.0804  0.0172
13278W        W32132   7.844  15.403  14.895  0.1213  0.0812 -0.3075
13279W        W32133   9.061  14.554   3.891  0.0785  0.2218 -0.1456
13280W        W32134  11.696  12.321  14.935  0.0818  0.0729  0.0352
13281W        W32135  10.469   1.956  11.554  0.2240  0.0810  0.1482
13282W        W32136  13.565   2.230  15.760 -0.1727 -0.1484 -0.0405
13283W        W32137  15.814  17.622  16.135 -0.3738  0.2786 -0.2415
13284W        W32138   6.263  13.666  16.157  0.1441  0.0583 -0.0844
13285W        W32139  12.657   3.768  13.572  0.1514  0.0336  0.0020
13286W        W32140   4.782  12.094  12.780 -0.0723  0.2289 -0.0807
13287W        W32141  14.476  12.663  14.812  0.0277 -0.0465 -0.3131
13288W        W32142  16.581  16.513  15.499  0.2419  0.2159 -0.0944
13289W        W32143  11.471   7.166   3.328  0.0468 -0.0088  0.1117
13290W        W32144  10.254   5.205  15.163 -0.2007 -0.2995 -0.1096
13291W        W32145   1.048   0.059   1.029 -0.0350  0.0270 -0.0468
13292W        W32146  11.890   9.082   3.704  0.0238 -0.0777  0.1011
13293W        W32147  12.049   8.796  13.380  0.2003 -0.1064 -0.1723
13294W        W32148  10.060   4.278   4.233  0.2246 -0.0150 -0.0373
13295W        W32149   7.288   9.175   3.919  0.1370  0.3245  0.4049
13296W        W32150   2.834   8.019  15.056  0.2075  0.0566 -0.0858
13297W        W32151  17.592  17.239  16.070  0.0271  0.1151 -0.0409
13298W        W32152  17.298  17.605   2.783  0.0820  0.0808  0.1214
13299W        W32153  12.120  14.123   0.933 -0.1043 -0.3014  0.1124
13300W        W32154  17.567   4.348   4.252  0.1167  0.1031  0.3861
13301W        W32155   8.938  11.525  15.002 -0.2204 -0.2377 -0.1323
13302W        W32156   5.104  11.241   0.829  0.3111 -0.2142 -0.3392
13303W        W32157  12.745  12.584   4.502 -0.0654  0.1068 -0.1926
13304W        W32158   3.617  14.932  14.967 -0.0021 -0.1059  0.1229
13305W        W32159   9.844  13.448   3.940 -0.1718 -0.2366  0.0657
13306W        W32160  10.471   3.505   4.250  0.1352 -0.0007 -0.1993
13307W        W32161  10.410  15.348   1.214  0.0921 -0.0831  0.1369
13308W        W32162   6.687  15.925   0.441  0.0798 -0.1808 -0.0344
13309W        W32163  12.561  14.260  15.238  0.0596  0.0389  0.1365
13310W        W32164   5.111  12.351  12.015 -0.0433 -0.0555 -0.3009
13311W        W32165   0.648  12.096  15.265  0.0278  0.0881  0.2351
13312W        W32166  14.565  16.800  15.186  0.1891  0.0429  0.0267
13313W        W32167   3.266   5.753   1.014  0.3472  0.2989  0.0060
13314W        W32168   5.179  12.171  13.982  0.5468  0.0388  0.2125
13315W        W32169   0.389   0.616   4.812 -0.3258  0.0229  0.1384
13316W        W32170   4.518   9.553   2.607  0.2587  0.4549  0.1663
13317W        W32171   6.335   9.431   0.107  0.2262  0.0308 -0.0768
13318W        W32172  17.715  17.452  14.223 -0.0303 -0.2521 -0.0767
13319W        W32173   6.463   0.896  12.484  0.1599 -0.2397  0.4066
13320W        W32174   8.039   2.519  12.079  0.1150 -0.0883 -0.3318
13321W        W32175   7.294  10.133  12.691  0.1265  0.1229 -0.0786
13322W        W32176   6.270   1.137   1.414 -0.0006 -0.0656  0.0564
13323W        W32177   0.716  16.137   0.176 -0.1540  0.0513 -0.1076
13324W        W32178  13.140  10.675   0.962 -0.0334  0.0686 -0.0593
13325W        W32179  12.614  12.194   1.490  0.1776 -0.1137  0.0698
13326W        W32180  15.467  12.935  16.032 -0.0113 -0.2460  0.0379
13327W        W32181   8.570   2.649   2.566  0.1111 -0.3145 -0.1481
13328W        W32182  14.809   3.749  15.612 -0.2353  0.2665 -0.0175
13329W        W32183  15.051  14.511   4.066 -0.0043 -0.1119 -0.1699
13330W        W32184   0.771   3.119   3.332 -0.0605 -0.0350 -0.2259
13331W        W32185   0.519   8.961  15.798  0.0710  0.0655 -0.0200
13332W        W32186  10.202  11.282  16.147  0.2423 -0.0630  0.3299
13333W        W32187   2.283   5.922   4.456 -0.1636 -0.0647 -0.1501
13334W        W32188   5.487   7.637  14.841  0.2339 -0.2300  0.0186
13335W        W32189   5.786   3.757   3.350  0.1069 -0.1817  0.0923
13336W        W32190   6.924   3.527  14.483  0.0763  0.4166 -0.0858
13337W        W32191  13.840   8.903  12.897  0.1744  0.2338  0.1736
13338W        W32192   8.824   0.510  12.109  0.1594  0.1483  0.0805
13339W        W32193   3.786   4.528  13.291 -0.0380  0.1798  0.0560
13340W        W32194   0.792  14.346   0.149  0.1804 -0.0417  0.2888
13341W        W32195  12.073  16.722  13.338 -0.2748  0.0584 -0.0902
13342W        W32196  14.134   7.015   1.125 -0.0511  0.4338 -0.0386
13343W        W32197  12.961   7.457  14.595 -0.0551  0.1410 -0.0667
13344W        W32198   7.147  13.199  14.335 -0.2883  0.2227  0.2302
13345W        W32199  10.172  15.171   2.857  0.1998 -0.1364  0.0053
13346W        W32200   2.347  10.463   0.654 -0.3168 -0.1673 -0.0829
13347W        W32201   0.595  13.889   0.351  0.2985  0.2094 -0.3759
13348W        W32202  10.780   6.194  12.912  0.2459 -0.0371 -0.2138
13349W        W32203  11.520   6.217   0.392 -0.0800 -0.2061 -0.2629
13350W        W32204   1.100  17.439   2.676  0.0254 -0.0028  0.0271
13351W        W32205  11.846   5.805  15.175 -0.1140  0.0089 -0.1558
13352W        W32206   3.641  12.932  14.728  0.2056  0.3023 -0.1340
13353W        W32207  13.051   4.074  14.444  0.1130 -0.4709 -0.1424
13354W        W32208  11.695  13.602  12.887  0.2164  0.0882 -0.0796
13355W        W32209   8.565  15.148  12.716  0.3914  0.0832 -0.0325
13356W        W32210  11.117   1.543   3.610 -0.1459  0.0692 -0.3075
13357W        W32211   6.255   2.880   4.264  0.0771 -0.1144 -0.0845
13358W        W32212  11.173  10.476  16.164 -0.1029 -0.2105  0.0531
13359W        W32213  16.011   9.392  14.560 -0.1936  0.1039 -0.1997
13360W        W32214   0.160  17.213   3.126  0.3438 -0.2530 -0.0122
13361W        W32215  11.156  16.604   3.971 -0.0173 -0.1596 -0.1357
13362W        W32216   5.474   1.353  11.565  0.0256  0.2101  0.2035
13363W        W32217  15.924   3.150  13.501  0.0910 -0.1300 -0.1733
13364W        W32218  10.163   5.617   4.471 -0.4884  0.0596 -0.2005
13365W        W32219   0.266   0.298   1.903 -0.0200  0.0125 -0.0441
13366W        W32220   9.313  12.046   4.095 -0.0368 -0.4011  0.1064
13367W        W32221   7.283   1.105   0.516 -0.0932 -0.0828  0.0027
13368W        W32222  10.208  13.657   4.975  0.3376 -0.0036 -0.0745
13369W        W32223  16.374  10.403  13.373  0.0243 -0.0579  0.1250
13370W        W32224  10.694   9.757  12.206 -0.0727 -0.1796  0.1587
13371W        W32225  11.994   6.157   2.703 -0.2197 -0.1426  0.1333
13372W        W32226  11.779   3.955  14.664 -0.0030  0.0391  0.1102
13373W        W32227   8.728  16.493   0.469  0.0819  0.2241 -0.0139
13374W        W32228   6.713   1.864   3.073  0.1330  0.2768  0.0708
13375W        W32229   9.728   7.431  15.369  0.1927  0.0472  0.1312
13376W        W32230  14.607  17.896  14.257 -0.0430 -0.2391  0.0804
13377W        W32231   7.438   6.853  15.769 -0.0991 -0.1814  0.0142
13378W        W32232  12.134   2.631  11.929 -0.0577  0.2840 -0.0733
13379W        W32233   7.563  17.913   3.161 -0.3198 -0.2638 -0.0227
13380W        W32234   6.128  10.203  15.938 -0.2085  0.2684  0.0154
13381W        W32235  13.624   6.706   2.137  0.1645  0.0207  0.2421
13382W        W32236  10.461   3.101   3.959  0.1527 -0.0402  0.1191
13383W        W32237   7.005   4.817  11.886 -0.1344  0.0334 -0.1127
13384W        W32238  15.592   0.077  11.616  0.0691 -0.0921 -0.0438
13385W        W32239   0.578   8.406  15.686  0.0009  0.1887 -0.0505
13386W        W32240   7.276  11.115  12.386 -0.1079  0.4143  0.2253
13387W        W32241  15.287  11.717  12.714 -0.0491  0.0671 -0.0506
13388W        W32242  14.867   2.412   4.265 -0.1316  0.0985 -0.1233
13389W        W32243  14.624  17.133   4.670  0.1543  0.0859  0.3946
13390W        W32244   5.228  13.405   2.758  0.0484 -0.0683 -0.0541
13391W        W32245   1.640  12.455   0.127 -0.0792 -0.0037  0.1799
13392W        W32246  10.100  12.334  11.095  0.1207 -0.1071  0.0967
13393W        W32247   9.324   2.395   0.720  0.2083  0.0290 -0.0597
13394W        W32248  10.325  14.533   2.730  0.2387 -0.3173  0.0260
13395W        W32249   2.525   7.966   1.455 -0.1891  0.0966  0.1280
13396W        W32250  14.853   0.924  11.675  0.2937  0.0666  0.1326
13397W        W32251  13.701   3.987  11.953  0.0928 -0.2000  0.0820
13398W        W32252   2.296  15.972  13.568 -0.0819  0.2564  0.3765
13399W        W32253  12.539  11.419  11.039  0.1461 -0.0121  0.1253
13400W        W32254   2.220  17.878   4.316 -0.0753 -0.2229 -0.1030
13401W        W32255   3.855   9.329  11.315 -0.0653 -0.1868  0.1059
13402W        W32256  17.648  16.285   1.055 -0.0641  0.1344 -0.0807
13403W        W32257   6.906   0.985  13.390 -0.1103 -0.0379  0.0709
13404W        W32258  14.360  11.913  13.298  0.0724  0.0029 -0.1187
13405W        W32259  11.916  13.570  11.531 -0.1201 -0.2245 -0.1245
13406W        W32260   0.859   7.027  11.549 -0.1792 -0.3094  0.2219
13407W        W32261   0.811  13.077   1.943 -0.1145 -0.1001  0.1473
13408W        W32262   5.107   8.202   2.874 -0.0194 -0.0877  0.0848
13409W        W32263   0.477   0.123   0.834 -0.0602 -0.1365  0.1288
13410W        W32264  17.072   1.007  13.634 -0.1686  0.1071 -0.1197
13411W        W32265   1.836   3.889   1.484 -0.1789  0.0258  0.0078
13412W        W32266  10.881   7.602  16.024  0.0372 -0.0395  0.1691
13413W        W32267  12.200  12.799  15.045  0.0819 -0.1484  0.1327
13414W        W32268   2.851  14.052   0.949  0.1583  0.3333  0.0966
13415W        W32269   0.472  16.248   0.816  0.1849 -0.0531  0.2135
13416W        W32270   0.696   6.441   2.651  0.1153 -0.3059 -0.0760
13417W        W32271  16.608  17.870   0.490 -0.0429  0.3276 -0.0382
13418W        W32272  17.749   0.764  13.150  0.1444 -0.0492 -0.0174
13419W        W32273   1.410   5.663   4.351 -0.1567  0.3781  0.0827
13420W        W32274   3.148  10.196  14.224  0.0849  0.0006 -0.0398
13421W        W32275  12.095  17.758   4.288  0.2356  0.0387  0.1400
13422W        W32276   5.571  15.310  15.604 -0.1380 -0.0119  0.0675
13423W        W32277  15.671   3.365   4.137 -0.0868  0.0253 -0.1973
13424W        W32278   9.691   6.940   4.188 -0.1327 -0.1421  0.0706
13425W        W32279   9.692   2.871  12.898 -0.0294 -0.1978  0.0490
13426W        W32280   3.645  16.903  12.495  0.0200 -0.1219  0.0782
13427W        W32281   4.490  17.039  12.172 -0.1031  0.1552 -0.0540
13428W        W32282   8.954  14.886  11.472 -0.2146 -0.5494  0.2687
13429W        W32283  14.167   9.501  12.957  0.2411 -0.0494  0.3216
13430W        W32284  15.623  12.484  12.361  0.3725 -0.2304 -0.2948
13431W        W32285   4.816   9.439  12.322  0.3206 -0.0253 -0.1414
13432W        W32286   7.999   9.827  16.212  0.1632  0.1959  0.1449
13433W        W32287   0.528   4.652  15.022 -0.1635 -0.1202  0.0012
13434W        W32288  15.160  17.874  11.891 -0.1413  0.3162  0.3253
13435W        W32289  17.776   5.366  13.973 -0.1593  0.2795  0.0787
13436W        W32290  15.335   7.140   3.503 -0.1898  0.1256 -0.0919
13437W        W32291   3.944  10.526   5.861 -0.2617  0.0135  0.0308
13438W        W32292  17.087   1.189   3.856 -0.4060 -0.1432  0.3422
13439W        W32293  10.871   1.413   3.192 -0.0538 -0.1214 -0.2118
13440W        W32294  13.831  14.779  14.602  0.2288  0.1469 -0.1776
13441W        W32295   7.117   6.252   4.840  0.2163 -0.0009 -0.2004
13442W        W32296   9.298   9.334  14.232 -0.3124  0.0393 -0.4350
13443W        W32297   7.413   7.082   0.774 -0.1602  0.1438  0.1591
13444W        W32298  15.142   7.728  16.223  0.0887 -0.3305 -0.0029
13445W        W32299   7.176  15.184   0.291  0.0939 -0.1696 -0.0423
13446W        W32300   8.853   9.727   2.535 -0.0119  0.0112 -0.1196
13447W        W32301  11.270   8.206   0.495 -0.2569  0.3848  0.0308
13448W        W32302  13.728   6.019  16.125  0.0981  0.1111  0.1649
13449W        W32303  16.158  13.957   3.243 -0.1271 -0.0914 -0.3106
13450W        W32304   1.192  15.801  12.744 -0.0191  0.0942 -0.0925
13451W        W32305   4.672  14.433   4.193  0.0015  0.2809  0.0506
13452W        W32306   8.381   0.508   2.778 -0.1601 -0.1457 -0.0390
13453W        W32307  10.729   0.230  14.598 -0.0709 -0.3057  0.0472
13454W        W32308   4.786  14.304  12.547 -0.2762  0.3088  0.1686
13455W        W32309  14.078   9.317  13.423 -0.0094 -0.0936  0.0160
13456W        W32310  13.152  10.440  12.934 -0.0900 -0.1367 -0.1130
13457W        W32311  13.653   6.964   3.947  0.0931 -0.1179  0.1154
13458W        W32312  13.672   9.627  11.398  0.0353  0.1276  0.2588
13459W        W32313   9.818   3.002   0.072 -0.2497 -0.1174 -0.0212
13460W        W32314  13.273  12.500   2.590 -0.5391  0.0075  0.0067
13461W        W32315   0.357   3.193   2.456 -0.0757  0.0691 -0.0003
13462W        W32316  13.114   0.703   2.135 -0.0483 -0.0167  0.1519
13463W        W32317  17.723  15.393   2.204 -0.1446 -0.1267 -0.1020
13464W        W32318  11.180   3.813   4.391  0.0320  0.1257 -0.0640
13465W        W32319  12.945  15.869  12.828 -0.0708 -0.2677 -0.0368
13466W        W32320   7.691  12.112  11.648  0.0358 -0.2847  0.1095
13467W        W32321  14.871   4.032  13.822 -0.3621  0.5279  0.0856
13468W        W32322   5.922  17.636  13.741  0.0068  0.0510 -0.0109
13469W        W32323   1.413  14.954  13.288 -0.0940  0.1194  0.1322
13470W        W32324   1.084  10.534   4.411  0.2844 -0.0842 -0.0627
13471W        W32325  11.861   7.415   4.337 -0.2231 -0.1663  0.2566
13472W        W32326  11.472   3.431   4.443  0.0982  0.2363  0.1048
13473W        W32327  12.270  10.609   4.451 -0.0733 -0.1113  0.1570
13474W        W32328  11.645  17.581  11.940 -0.0821  0.0066 -0.0951
13475W        W32329   4.450   6.114   3.859 -0.2556 -0.1231  0.2979
13476W        W32330  13.681   2.971   4.462  0.0556 -0.2621 -0.0172
13477W        W32331   1.030   6.737  15.895  0.0572 -0.0528 -0.0634
13478W        W32332  12.842   5.787   3.076 -0.1350 -0.1522 -0.0841
13479W        W32333  13.492   0.820  16.090 -0.1092 -0.1244  0.1545
13480W        W32334  17.949   3.282  13.042 -0.2084 -0.1048  0.1147
13481W        W32335   2.576   9.354   5.909 -0.3693  0.1836  0.1445
13482W        W32336  12.456   3.967   1.702  0.0731 -0.1557 -0.2129
13483W        W32337  12.268  17.219  13.479  0.1410 -0.2156 -0.2523
13484W        W32338   5.648  14.232   0.575 -0.3460  0.0042  0.4263
13485W        W32339   0.155  15.496   3.470 -0.0420  0.1018 -0.2656
13486W        W32340   6.984   8.721  15.866 -0.1431  0.2034 -0.2051
13487W        W32341   8.545  13.035   1.358  0.0704 -0.0064 -0.0422
13488W        W32342  16.746  16.225   3.515 -0.0022  0.1951  0.1224
13489W        W32343  11.786   2.390  12.947  0.1164  0.0419 -0.1427
13490W        W32344  15.749   1.893  11.699 -0.2249  0.0259  0.1134
13491W        W32345  15.548  16.132   3.117  0.1430 -0.0688 -0.1010
13492W        W32346   2.062  12.299   3.963  0.0078 -0.1709 -0.0149
13493W        W32347   2.728  16.993  15.716 -0.0950 -0.1119 -0.0811
13494W        W32348   7.376   6.148  13.408  0.1037  0.0606  0.0246
13495W        W32349  15.619   1.983  12.625  0.2312  0.0236  0.0316
13496W        W32350  15.206   0.161  15.443  0.2218  0.0370 -0.2887
13497W        W32351   4.398  14.958   1.562 -0.1548  0.0779 -0.1021
13498W        W32352   7.221  11.677  12.384 -0.0537  0.4283 -0.1424
13499W        W32353   6.100  16.599  15.370 -0.2932  0.0419 -0.0241
13500W        W32354   7.780   2.135  11.799 -0.0190  0.0672 -0.1072
13501W        W32355   8.111   4.437  14.527  0.1543 -0.1638  0.2017
13502W        W32356   5.071  17.398   4.037 -0.0245  0.4038  0.0196
13503W        W32357   8.839  16.408  16.191  0.1367 -0.1246 -0.0327
13504W        W32358   9.659   0.880  14.739  0.1384 -0.2900  0.2817
13505W        W32359   9.330  13.394   2.700 -0.5818 -0.3485  0.0472
13506W        W32360  10.992   7.251   0.775  0.0871 -0.1595  0.1156
13507W        W32361   6.686   0.067   1.043  0.0374  0.1273 -0.4250
13508W        W32362  14.191   0.788   3.701  0.0196  0.2446 -0.2581
13509W        W32363   0.517   6.064  16.203  0.0965  0.3028 -0.0312
13510W        W32364   6.622  10.226  11.938  0.1856 -0.1322 -0.2074
13511W        W32365  11.303  11.337  12.013 -0.2003 -0.0145 -0.0673
13512W        W32366   2.243  16.320   2.894  0.1371 -0.0709  0.1659
13513W        W32367  15.758   4.387  11.506 -0.2679 -0.0157 -0.0844
13514W        W32368   3.706  17.739   2.563  0.0706 -0.0562 -0.0108
13515W        W32369  13.497   9.392   0.540 -0.0578 -0.5077  0.2575
13516W        W32370   3.729   6.944   3.928 -0.2578 -0.0402 -0.1115
13517W        W32371  12.527   8.314  14.617  0.0348  0.0594  0.2453
13518W        W32372  13.447  17.212   0.317  0.0326  0.0984  0.3202
13519W        W32373   4.769   0.050  15.329  0.0529  0.0211  0.0414
13520W        W32374   5.520   9.497   2.038  0.2284  0.0678  0.3415
13521W        W32375  17.889   4.863   2.345  0.2093  0.0129 -0.1413
13522W        W32376  10.740   4.428  16.026 -0.0735 -0.2809 -0.1171
13523W        W32377   8.982   2.067  15.056 -0.1259 -0.5410  0.0627
13524W        W32378  14.445  11.723   1.760 -0.2228  0.3209  0.2860
13525W        W32379   0.857  16.598   1.578  0.0811 -0.0992  0.0603
13526W        W32380   8.197   5.902   3.343 -0.0120 -0.1161  0.0868
13527W        W32381   5.729  17.862   1.067 -0.1351  0.2162  0.3510
13528W        W32382   4.086   6.624  15.838  0.1055  0.1043  0.0268
13529W        W32383   4.116   5.721  10.797 -0.0744  0.3183 -0.1050
13530W        W32384  17.397   5.669  14.102  0.2054 -0.0337  0.1613
13531W        W32385  14.942  13.401   1.432  0.1376  0.1287 -0.0997
13532W        W32386  13.304   0.649  13.909  0.0570  0.2665 -0.1839
13533W        W32387  10.417   5.135   4.304 -0.1946 -0.4366 -0.0276
13534W        W32388  11.222   4.044   0.940 -0.0367 -0.1391  0.1065
13535W        W32389  12.359   3.914   0.172 -0.4267 -0.1965 -0.0382
13536W        W32390  15.329  10.766   0.586 -0.1604  0.1633 -0.1022
13537W        W32391   6.027  16.974  12.225  0.1269  0.0293 -0.0055
13538W        W32392  17.042  14.783  12.645 -0.1112  0.2697 -0.1858
13539W        W32393   4.201  11.083  14.442 -0.0350 -0.2661 -0.0054
13540W        W32394  11.210   8.946  15.184 -0.1155 -0.1420  0.3645
13541W        W32395   3.020  16.149   1.031  0.3004  0.0198  0.2248
13542W        W32396   7.536  11.724  13.221  0.1447 -0.0610 -0.1091
13543W        W32397   1.063   9.092   2.381 -0.1912  0.0963  0.0015
13544W        W32398   6.623   4.429   0.002  0.1719  0.0716  0.1315
13545W        W32399   4.781   2.633   2.045  0.2909  0.0513 -0.2100
13546W        W32400   5.327  15.173  13.326  0.0813 -0.1359 -0.1334
13547W        W32401  14.186  12.016   4.469  0.0544 -0.2981 -0.0126
13548W        W32402   2.377   2.732  15.064  0.1224  0.0602  0.1063
13549W        W32403   1.718  10.672   2.982  0.1410 -0.1143  0.1099
13550W        W32404  12.925  14.928   4.346 -0.1950 -0.1029  0.1483
13551W        W32405   7.240   1.417  11.998  0.0930  0.5275 -0.2870
13552W        W32406  16.315  16.646   4.152 -0.0826  0.0819  0.0993
13553W        W32407  15.555   5.955   5.509  0.2528  0.0613 -0.1356
13554W        W32408  12.621  17.302   1.596  0.1496  0.0618  0.3238
13555W        W32409  10.641  12.821   2.210 -0.2272  0.3046  0.1313
13556W        W32410   4.866   8.955   0.921 -0.1288  0.0556 -0.3591
13557W        W32411   3.773   6.864   2.164  0.0392 -0.1032 -0.2576
13558W        W32412  12.874  11.240   3.609  0.2836 -0.0084  0.0781
13559W        W32413  13.443   3.978   2.096  0.1977 -0.2664 -0.0302
13560W        W32414   7.181  13.381   0.476 -0.3244  0.0011  0.4151
13561W        W32415   8.089  15.575   2.508 -0.3037 -0.0294 -0.0800
13562W        W32416   3.217  10.953  15.673  0.1947  0.3244 -0.1295
13563W        W32417  14.540  11.823   4.040  0.0738  0.2580 -0.2373
13564W        W32418  17.566   6.036  14.959  0.1806  0.1206 -0.1745
13565W        W32419   2.933   3.556   4.615 -0.0693  0.1701 -0.0142
13566W        W32420   3.447   8.964  11.480 -0.0598  0.1760  0.3711
13567W        W32421  12.894  16.768  12.817  0.0341  0.0495  0.0683
13568W        W32422  14.354  11.384  11.925 -0.0503  0.0907  0.2499
13569W        W32423   7.044   9.150  12.576  0.1320 -0.2871 -0.0861
13570W        W32424   9.335   9.857   2.451 -0.1856 -0.0762 -0.0430
13571W        W32425   0.421  12.831   1.804  0.1439  0.0738 -0.1539
13572W        W32426  13.811  11.630   1.623  0.2480  0.0938  0.0078
13573W        W32427   7.700  12.305   3.688 -0.1875 -0.0490 -0.1559
13574W        W32428   8.985   6.484  10.673  0.3395  0.0474  0.3547
13575W        W32429   2.928  13.841   4.790  0.2550  0.4312 -0.0746
13576W        W32430  13.535   4.482  15.856 -0.2617 -0.2486  0.1137
13577W        W32431  17.992  14.613  15.944  0.0863  0.1363 -0.0556
13578W        W32432  15.695   4.005  14.234 -0.1456  0.0825 -0.2379
13579W        W32433   5.874  16.452   2.119  0.0948  0.0350 -0.0529
13580W        W32434   4.575  10.606  12.954 -0.1998 -0.2058  0.3534
13581W        W32435   6.023  11.332   0.495 -0.2393 -0.0279 -0.1898
13582W        W32436   9.722   5.835   2.273  0.1583 -0.2301  0.1696
13583W        W32437  13.040  13.755  13.613  0.0352  0.0495 -0.0271
13584W        W32438   7.438   6.352  14.302  0.1277 -0.1178 -0.0805
13585W        W32439   6.547  15.454  13.220 -0.0177 -0.0291 -0.1294
13586W        W32440   1.128   5.327  12.746 -0.0309  0.3466  0.0577
13587W        W32441  12.744  15.137  15.542 -0.3284 -0.1561 -0.4045
13588W        W32442   0.166   8.724   4.874 -0.0320 -0.5075 -0.1643
13589W        W32443  12.500  12.136   0.002 -0.1333 -0.1610 -0.0921
13590W        W32444   4.547   6.813  12.124 -0.1398  0.0065  0.0278
13591W        W32445   7.634   6.602   0.754 -0.0950 -0.1369 -0.0972
13592W        W32446   3.284  16.527  15.748  0.0070 -0.3090  0.1082
13593W        W32447   4.871   1.255   2.647  0.1477  0.2079 -0.1034
13594W        W32448  10.525  10.489   0.445  0.0611  0.2070  0.1493
13595W        W32449   1.321  11.316   1.227 -0.1841  0.0146  0.1372
13596W        W32450   4.585  11.203   0.691  0.0138  0.0248  0.1416
13597W        W32451   3.246   1.271   3.972 -0.1368  0.0306 -0.0135
13598W        W32452   8.968   7.036   3.518  0.1818  0.1148 -0.1639
13599W        W32453   3.468  11.380  15.802  0.1346  0.5226 -0.1525
13600W        W32454   6.957   8.961  14.285 -0.2417 -0.1272 -0.1196
13601W        W32455   9.300   0.658   2.086  0.0112 -0.0850 -0.4249
13602W        W32456  11.620   5.559  10.927 -0.5147 -0.2191  0.1272
13603W        W32457  15.593  14.081  14.906 -0.0984  0.0223  0.2182
13604W        W32458   6.012   2.685   0.299 -0.0488  0.0369 -0.1041
13605W        W32459  15.575   4.727   1.772  0.0626 -0.3553 -0.0446
13606W        W32460   8.471   1.211   1.719 -0.2953 -0.0505 -0.0029
13607W        W32461   5.581  11.161   0.193 -0.0096 -0.0354  0.3204
13608W        W32462   0.631   4.251   3.531  0.1213 -0.0260  0.0208
13609W        W32463  16.388   2.431   0.812  0.1858 -0.0350  0.2768
13610W        W32464  13.422   1.213   3.869  0.2033  0.0019  0.1376
13611W        W32465   8.392   5.449  13.424 -0.1866 -0.2119 -0.1513
13612W        W32466  13.131   9.614  13.966  0.5095 -0.2365 -0.3372
13613W        W32467   9.415  17.330   2.100  0.1281  0.1232  0.3219
13614W        W32468  10.818   0.812   3.903 -0.2104  0.0353  0.1247
13615W        W32469   3.083  14.885  14.787  0.2606 -0.0692  0.1488
13616W        W32470   7.304  16.927  12.298 -0.4133 -0.0842 -0.0255
13617W        W32471   8.562  16.130   3.486  0.3579 -0.1886  0.0444
13618W        W32472   7.012  13.818   2.255 -0.0679 -0.0157  0.2172
13619W        W32473   7.531   3.533  13.776 -0.1751 -0.0579  0.1900
13620W        W32474   7.447  17.325  14.765  0.2851  0.1713  0.2305
13621W        W32475  14.999  10.144   1.099 -0.0688 -0.0506  0.0087
13622W        W32476  10.043   5.044   4.740 -0.1915 -0.1578  0.1727
13623W        W32477   7.930   8.621   2.437  0.2070  0.3546  0.1476
13624W        W32478   6.716   7.690  12.110  0.1188  0.0262  0.1147
13625W        W32479   2.443   8.339  15.171  0.1579  0.2904  0.0063
13626W        W32480   2.360  17.133  12.041  0.1138  0.1229  0.1924
13627W        W32481   6.221   8.359  14.412 -0.0001  0.0250 -0.0705
13628W        W32482   9.387   9.372   1.796  0.2175 -0.0255  0.2456
13629W        W32483   9.817   0.351   2.973  0.1343 -0.0258  0.0369
13630W        W32484  16.191   2.182   0.309  0.3494 -0.0472 -0.0181
13631W        W32485   4.264   5.701  14.557  0.1084  0.1743 -0.1825
13632W        W32486  10.113  10.501  14.049  0.1746 -0.2876  0.2414
13633W        W32487  11.690  14.743  10.694  0.3865  0.1637  0.4035
13634W        W32488  10.622   3.716   0.777  0.2222 -0.2837  0.0693
13635W        W32489   8.165  10.540  11.426 -0.1797 -0.0924  0.2524
13636W        W32490  15.656   0.921  13.800 -0.1190 -0.2958 -0.2226
13637W        W32491  11.434  15.478  12.174 -0.0616  0.2085  0.1899
13638W        W32492   8.313   0.324   1.293  0.1807 -0.1057 -0.2638
13639W        W32493  14.463   8.178   3.025 -0.0675 -0.1443 -0.0625
13640W        W32494  13.510  17.286   2.109  0.2391 -0.1100 -0.0832
13641W        W32495   0.659  17.168   2.404 -0.0007  0.3288 -0.2742
13642W        W32496  15.905  12.307  14.447  0.0966  0.0556  0.0216
13643W        W32497  12.398   0.162   1.014 -0.3122  0.3197 -0.0033
13644W        W32498  12.986   4.529  13.994  0.2579 -0.2751 -0.0986
13645W        W32499   4.631  11.949  14.659 -0.1555  0.0404 -0.1958
13646W        W32500   5.894   0.927   3.714 -0.1677  0.0663 -0.2195
13647W        W32501  10.265  17.298  12.394  0.2177 -0.2095  0.3341
13648W        W32502   7.787   9.021   2.935  0.0283  0.1349  0.1488
13649W        W32503  17.653   0.303   3.868 -0.1839  0.1159  0.1524
13650W        W32504   9.742   4.370  10.588  0.0323 -0.4471  0.0339
13651W        W32505   7.404   1.949   2.708 -0.1858  0.0861 -0.1835
13652W        W32506   8.710  10.548  12.263 -0.1190  0.3506 -0.2867
13653W        W32507   9.623  12.871   5.096  0.0068 -0.0500  0.4335
13654W        W32508   9.865   5.423  14.900  0.1462 -0.1634 -0.0151
13655W        W32509   8.878   6.515   3.690 -0.0761  0.2852 -0.1775
13656W        W32510   6.596   8.157   3.685 -0.1779 -0.1701 -0.1206
13657W        W32511  17.426  15.542  14.209 -0.0015 -0.2781  0.0841
13658W        W32512   0.981  14.779  13.248  0.0197 -0.2567  0.0557
13659W        W32513  16.333   8.891   2.722 -0.0752  0.0753 -0.0121
13660W        W32514  14.106   2.088   1.376  0.0238  0.0684 -0.2088
13661W        W32515   6.139  11.307   4.047 -0.0840 -0.2113  0.0382
13662W        W32516   3.308   6.012  13.950  0.0305  0.0547 -0.3407
13663W        W32517  11.026  11.313   0.339 -0.0553  0.1021 -0.0502
13664W        W32518  14.900   4.708   2.721  0.0301  0.1927  0.1112
13665W        W32519   8.091  12.734   5.804  0.1571 -0.2180  0.0104
13666W        W32520  11.617  15.946   3.501  0.0850 -0.0229  0.1803
13667W        W32521   8.369  11.988   2.209  0.0252 -0.0641  0.0528
13668W        W32522  15.180   3.213   3.999  0.1381 -0.1350  0.2143
13669W        W32523   3.618  16.815   3.888  0.2231 -0.0676  0.4166
13670W        W32524   5.895  15.052   1.681 -0.4216  0.0317  0.1502
13671W        W32525   8.833   9.043  15.635  0.1277  0.0483 -0.1060
13672W        W32526   8.363   2.754  15.594  0.2722  0.0207  0.3672
13673W        W32527   9.847   3.903   2.186  0.1660  0.1226  0.2111
13674W        W32528   4.624  11.587   1.563 -0.3814 -0.0838 -0.0980
13675W        W32529  10.645   7.979   1.156  0.0445  0.0787  0.2597
13676W        W32530  15.818   0.443  13.944  0.1628 -0.2556 -0.1140
13677W        W32531   1.195  15.583   4.743 -0.1918  0.0894 -0.0709
13678W        W32532   0.403  11.103  12.621 -0.0999  0.0116  0.1689
13679W        W32533   3.220   1.094  13.278 -0.2674 -0.0574 -0.1722
13680W        W32534   6.672  15.294   4.920 -0.1886 -0.3118  0.0432
13681W        W32535   8.819  12.927   4.858 -0.2219  0.4214  0.0019
13682W        W32536   9.592   4.105  12.379  0.0084  0.0518 -0.0681
13683W        W32537  11.247   4.229  15.981 -0.0610  0.2473  0.3044
13684W        W32538   3.724   0.917  13.735  0.1387  0.1579 -0.2560
13685W        W32539   2.365  16.437   5.251 -0.0058 -0.0179 -0.0122
13686W        W32540  13.555   7.713  13.948 -0.0250 -0.0235  0.2679
13687W        W32541  16.241  10.221   3.853 -0.2154  0.0259  0.0510
13688W        W32542  15.163  15.898   4.397  0.3590 -0.2355 -0.0944
13689W        W32543   9.349  10.418   2.259 -0.1375  0.1110 -0.1445
13690W        W32544   9.586   9.951  12.207  0.2020 -0.1477 -0.0408
13691W        W32545  14.196   6.855  12.009 -0.1171 -0.2309 -0.1099
13692W        W32546   1.142  16.239  11.933  0.1148  0.0080 -0.2060
13693W        W32547   3.303   1.095   1.675  0.0196  0.0857 -0.0371
13694W        W32548   5.593  16.964  16.069 -0.4139 -0.1623  0.0999
13695W        W32549  12.844  15.232  11.569 -0.3559 -0.0971 -0.1126
13696W        W32550  16.810  10.780  15.773  0.0579 -0.3004 -0.1912
13697W        W32551   8.959   5.873   4.506 -0.0158  0.0311  0.0727
13698W        W32552   6.686   2.587  14.102  0.1160  0.2015 -0.0560
13699W        W32553   0.127  12.246   3.829 -0.1469 -0.1488  0.1256
13700W        W32554   5.530   7.599   4.114 -0.0332  0.0784 -0.3137
13701W        W32555  15.835  10.289   0.586  0.2612 -0.1410  0.0122
13702W        W32556  12.619   4.767  15.743  0.0982  0.0059 -0.0399
13703W        W32557   5.736  13.506   2.798 -0.2482  0.1294 -0.0376
13704W        W32558   2.095   0.194  12.337 -0.0468  0.1260 -0.2005
13705W        W32559   7.183   4.081   1.340 -0.3850  0.1441 -0.0227
13706W        W32560  17.606   4.826   1.614 -0.1982  0.1719  0.0724
13707W        W32561   9.359   9.612  11.514 -0.0885 -0.6006 -0.0471
13708W        W32562   3.278  12.860  15.677 -0.0969  0.0040  0.0592
13709W        W32563   1.464  15.749   1.691  0.1229 -0.3001  0.1171
13710W        W32564   7.032  12.137   3.329 -0.0419 -0.1318  0.1213
13711W        W32565   8.087   4.726   1.886 -0.1224 -0.2287  0.0323
13712W        W32566   1.655   2.685  12.326 -0.1145  0.1955  0.1224
13713W        W32567   8.934  10.522   1.905  0.0011 -0.2231  0.2134
13714W        W32568   4.878   1.027  14.321  0.0248  0.2516  0.0405
13715W        W32569   2.141   2.301  11.571 -0.1607  0.1083  0.0642
13716W        W32570   7.750  15.926   2.089 -0.0135 -0.1372  0.1139
13717W        W32571   0.127   2.719   4.885 -0.1582  0.1943 -0.2935
13718W        W32572   7.618  17.852  14.073 -0.0004 -0.1240 -0.1120
13719W        W32573   5.419   7.611   5.145  0.0594 -0.0509 -0.0956
13720W        W32574  12.104  12.898   5.231  0.1797  0.3959 -0.0634
13721W        W32575  13.834   3.344   3.034 -0.1273  0.1728 -0.1366
13722W        W32576  16.561   4.408   3.842  0.0235 -0.1859 -0.1859
13723W        W32577  16.262   9.840  11.702  0.2370 -0.0225 -0.0815
13724W        W32578   8.512  15.217  11.406  0.0098  0.2373 -0.2626
13725W        W32579  14.620   1.750  12.429  0.0884 -0.2050  0.1044
13726W        W32580   8.985  16.654   3.836  0.1520  0.1134 -0.0074
13727W        W32581  10.529  12.485   4.660 -0.1155  0.1662  0.2591
13728W        W32582  15.707   4.771  12.462 -0.0969  0.3738  0.2013
13729W        W32583  18.027  16.568   1.471 -0.3500  0.0369 -0.1714
13730W        W32584   0.674   6.183  12.145  0.0908 -0.1083  0.2070
13731W        W32585   2.089   0.361   3.085 -0.0154  0.0217  0.3113
13732W        W32586  14.113  12.238  11.465 -0.0559  0.0736  0.0278
13733W        W32587   6.862  14.200  15.426 -0.3325  0.1528 -0.0648
13734W        W32588   4.712  14.153   3.781 -0.2011 -0.0559 -0.1913
13735W        W32589   0.414   7.209   3.096 -0.2794  0.2715 -0.4972
13736W        W32590  15.192  13.187  13.282  0.0138  0.0527  0.1921
13737W        W32591   7.289   3.849  16.128  0.2832 -0.0269  0.1287
13738W        W32592  16.526  14.361  12.534  0.1019 -0.0628  0.1860
13739W        W32593   6.611   0.447  13.852 -0.1246  0.2766 -0.0061
13740W        W32594  12.485   3.723   4.599 -0.1777  0.2294 -0.2416
13741W        W32595  12.910  13.737   1.791  0.2081  0.0807 -0.0058
13742W        W32596   7.220   1.511   0.307 -0.0250  0.1760 -0.2139
13743W        W32597   7.004   7.828   2.417 -0.0923 -0.1273 -0.1123
13744W        W32598   1.402   4.216   0.492 -0.1774  0.1746  0.2169
13745W        W32599  12.616  11.960  15.695  0.1695  0.0997  0.1395
13746W        W32600  14.517  13.294  12.707 -0.1371 -0.3942  0.0688
13747W        W32601   6.271   6.484   2.612  0.1269  0.2643  0.1038
13748W        W32602  15.621   6.739   5.220 -0.2511  0.1063 -0.2816
13749W        W32603   0.285  11.275  13.159  0.0450  0.0880  0.0570
13750W        W32604  14.594  10.679  12.279  0.1012 -0.3015  0.1554
13751W        W32605   0.197   7.141  13.828  0.1464 -0.1029  0.1049
13752W        W32606  13.344   5.626   4.960 -0.1440 -0.1534  0.0025
13753W        W32607   7.523   1.888   0.159  0.1104 -0.0876 -0.0293
13754W        W32608   5.092   2.272  15.907 -0.2773 -0.0191  0.1254
13755W        W32609   5.652   5.446  12.085 -0.1084  0.0129 -0.2098
13756W        W32610  12.773  14.740  11.454  0.2493  0.1302 -0.0122
13757W        W32611  11.617  10.192   2.259  0.1275 -0.0511 -0.0916
13758W        W32612  16.851  16.410  14.708 -0.2583 -0.0955  0.0755
13759W        W32613  14.164  13.225  13.079 -0.1035 -0.0149 -0.0140
13760W        W32614  17.221  14.060   2.777  0.1731 -0.0535 -0.2093
13761W        W32615  13.529   1.237  13.316 -0.2630  0.0234  0.1225
13762W        W32616   9.015   7.398  14.987  0.0539 -0.0125  0.0615
13763W        W32617  13.954   8.252   2.898 -0.2381 -0.0138  0.1792
13764W        W32618  13.656  15.327   3.115 -0.0350  0.0924  0.1237
13765W        W32619  13.680  11.041  13.316  0.2827 -0.2296  0.0064
13766W        W32620  10.298   1.637  13.243 -0.2305 -0.1616 -0.1178
13767W        W32621  10.073   6.062  14.331 -0.1019  0.0113 -0.2860
13768W        W32622   7.422   6.855  12.058 -0.0916 -0.3312  0.5629
13769W        W32623   7.661  14.066  11.217 -0.0078  0.1255  0.2056
13770W        W32624  10.343   3.481  11.859  0.1816  0.1031  0.0814
13771W        W32625   8.402  14.667   2.458 -0.3182  0.0634  0.1040
13772W        W32626   7.584   7.668  11.113  0.1324 -0.0378  0.0369
13773W        W32627   3.014   9.430   1.217  0.0968 -0.0464 -0.2874
13774W        W32628   3.813  11.269  10.672 -0.1687  0.2444  0.0447
13775W        W32629   4.578  14.707   4.703 -0.2122 -0.0468 -0.3262
13776W        W32630   2.047   7.547  15.185  0.2062 -0.1003 -0.0158
13777W        W32631  15.940   6.740   1.217  0.1266 -0.2304  0.1154
13778W        W32632   1.448  11.769   1.478  0.2823  0.4276  0.0978
13779W        W32633   2.276   0.538   4.818  0.0678 -0.1313  0.3447
13780W        W32634  14.101   1.038   0.552 -0.1526 -0.1839  0.1924
13781W        W32635   3.026   3.203   4.197  0.1732 -0.1184  0.0664
13782W        W32636  16.471  10.530   4.240  0.0704  0.2919  0.1531
13783W        W32637   6.643   7.674   0.374 -0.1050  0.2533  0.1294
13784W        W32638   7.670  14.844   4.222 -0.1245  0.0614 -0.2807
13785W        W32639  11.890  16.671  16.104  0.0803  0.2735  0.0397
13786W        W32640  17.541  12.435  12.246  0.2516 -0.1335  0.2939
13787W        W32641   2.547   9.652  12.960  0.0696 -0.0674 -0.0905
13788W        W32642   6.980  13.720   4.665  0.0322 -0.0600 -0.1301
13789W        W32643   3.917   9.948   0.956 -0.0302 -0.2302  0.3473
13790W        W32644  12.015   3.979   2.737 -0.3261 -0.0356 -0.1331
13791W        W32645  11.924  15.749  15.871 -0.4321 -0.3043  0.0817
13792W        W32646   7.715   4.919   3.732  0.0593 -0.2587 -0.1037
13793W        W32647   0.259  16.299  13.918  0.1500  0.1068  0.0731
13794W        W32648   1.599   0.399   4.369  0.1332  0.0814  0.2612
13795W        W32649   2.850   4.994   3.850 -0.2618 -0.1939 -0.3361
13796W        W32650   5.072   6.085  13.256  0.2233 -0.3028 -0.1705
13797W        W32651  13.576   2.602  13.948 -0.1200  0.2447  0.3486
13798W        W32652   3.417   5.734   0.252  0.0471  0.2142 -0.1510
13799W        W32653   8.789  10.442   4.964 -0.0326  0.1110  0.2160
13800W        W32654  10.014   1.553  13.711 -0.1798  0.0827  0.2383
13801W        W32655   3.072   8.277   2.646 -0.1482 -0.1987  0.0876
13802W        W32656  12.559   9.377   0.490  0.0482  0.0335 -0.0113
13803W        W32657   0.732  16.726   4.069  0.0004  0.1819 -0.0583
13804W        W32658  14.393   7.089   2.509 -0.2934 -0.2267  0.2249
13805W        W32659   8.127  11.228   3.183 -0.0164 -0.1391  0.1969
13806W        W32660  12.930   5.118  12.335 -0.3547  0.1941  0.0372
13807W        W32661  10.946   7.930  11.446 -0.1022  0.2906 -0.0701
13808W        W32662   3.386   0.932  12.055  0.2153 -0.1031 -0.1264
13809W        W32663   3.842  14.711   3.058  0.3267  0.2239  0.0127
13810W        W32664  12.450  12.178   4.184 -0.1182 -0.0911  0.0870
13811W        W32665   8.589   5.561   4.668  0.2393 -0.0264  0.1375
13812W        W32666   6.683  15.528   5.725 -0.1820 -0.0064 -0.0439
13813W        W32667  16.361  12.969   5.021 -0.2626  0.0363 -0.2002
13814W        W32668  17.347  10.624  13.342  0.0033  0.0100 -0.1432
13815W        W32669   8.194   0.763   1.587  0.0253 -0.3764  0.1686
13816W        W32670  14.508   7.559   2.374  0.0308  0.1385  0.0367
13817W        W32671  13.391   7.387  14.939  0.1334 -0.1420 -0.2104
13818W        W32672  12.610  11.607  14.374 -0.0861 -0.0103 -0.1168
13819W        W32673   4.572  16.324  11.698  0.0960 -0.0918 -0.1363
13820W        W32674  13.142   3.212  15.197  0.0299  0.1866 -0.1675
13821W        W32675  14.130   0.773   0.121  0.0159 -0.0461 -0.1068
13822W        W32676   2.684  11.477   0.601  0.1113 -0.3290  0.3859
13823W        W32677  10.101   0.141  11.518  0.0809 -0.4246 -0.0437
13824W        W32678   0.210  12.073   4.333 -0.4097 -0.0732 -0.2221
13825W        W32679  12.430   9.098   2.847  0.2174 -0.3165  0.0735
13826W        W32680   6.323  15.685  15.878 -0.0566  0.1884  0.1902
13827W        W32681  17.742   3.835   3.520 -0.1746 -0.0153 -0.2844
13828W        W32682  16.741  12.352  14.847 -0.1980 -0.2459  0.0543
13829W        W32683  15.381  13.005   2.154 -0.1214 -0.0066 -0.0724
13830W        W32684   0.290  15.932  15.746  0.1187  0.2143  0.2979
13831W        W32685   6.636   9.059  11.476  0.0570  0.0977  0.1293
13832W        W32686   9.768   3.848  14.942  0.1245 -0.1996  0.0881
13833W        W32687   0.483   5.475   4.202 -0.0634 -0.0447  0.1179
13834W        W32688  14.458   7.966   1.490  0.0428  0.2980  0.1480
13835W        W32689  14.206  13.444   0.240 -0.3954 -0.1121 -0.0115
13836W        W32690   3.238  11.166  14.479 -0.0158 -0.1478  0.3662
13837W        W32691  13.704   0.264   1.153  0.0768 -0.2096 -0.0124
13838W        W32692  15.973  12.740   1.811  0.1323 -0.1085  0.0795
13839W        W32693  14.643   5.193   3.281 -0.0415 -0.0071 -0.0550
13840W        W32694  15.159  12.486   3.841 -0.0614  0.0291  0.1805
13841W        W32695   9.356  11.885   3.075  0.1737  0.2876 -0.2483
13842W        W32696   2.120   2.873  14.025  0.0771  0.0700  0.0676
13843W        W32697  12.599   4.127  13.887 -0.1717 -0.2369  0.0893
13844W        W32698  15.553   8.081   2.432  0.1427 -0.1732  0.2298
13845W        W32699  15.746  17.364   1.673 -0.1717  0.1833  0.0510
13846W        W32700   9.631   3.810   3.311  0.1407 -0.1993  0.2044
13847W        W32701  13.611  15.558   3.593  0.0388  0.1496  0.0520
13848W        W32702   2.686   1.901   3.801  0.2801 -0.1764 -0.1783
13849W        W32703  13.130   2.987   3.579  0.0315  0.4945  0.1485
13850W        W32704  11.967   8.274  13.401 -0.2105 -0.1588  0.1701
13851W        W32705   5.688  13.711  11.740  0.1478  0.2786 -0.0453
13852W        W32706  13.056   3.500  16.132  0.0241 -0.1678 -0.0802
13853W        W32707   1.955  15.574   3.577  0.2062  0.2630 -0.0915
13854W        W32708  15.057   5.376  12.807  0.1093 -0.1071 -0.2219
13855W        W32709   7.336   6.704  11.534  0.0208 -0.1244  0.0701
13856W        W32710   9.558  15.878  13.176 -0.0367  0.0010  0.1332
13857W        W32711  15.197   4.396  11.509 -0.0639  0.1254 -0.2184
13858W        W32712  15.811   3.547   0.653 -0.0937 -0.0601  0.2770
13859W        W32713  17.367   9.774  13.893 -0.0085 -0.0564  0.2253
13860W        W32714   0.532   8.382  12.260 -0.0922 -0.0385  0.2146
13861W        W32715  14.808   2.643  14.220 -0.0194 -0.0288  0.1703
13862W        W32716  12.381  14.591  12.194 -0.1482  0.1385  0.1597
13863W        W32717   2.882   8.283   1.781 -0.0408  0.0550 -0.2943
13864W        W32718  14.490   2.553   3.310 -0.2566 -0.0371  0.2554
13865W        W32719   5.986  14.783  13.522 -0.1413 -0.0509 -0.1883
13866W        W32720  11.601  11.210  15.806 -0.1773  0.2377  0.0004
13867W        W32721   0.644  10.808   4.694 -0.2754 -0.2786 -0.0155
13868W        W32722  17.260  10.817  12.359 -0.1854 -0.0016 -0.2391
13869W        W32723  11.504  11.314  12.996 -0.1671  0.2758  0.1843
13870W        W32724   7.871  10.303   5.065 -0.1402 -0.0816 -0.4466
13871W        W32725   4.982   3.759   1.467  0.1370  0.2079  0.1678
13872W        W32726   1.612   5.054   0.767  0.0801  0.0272  0.2160
13873W        W32727   2.356   4.202  14.269 -0.0433  0.0695  0.1566
13874W        W32728   2.063   4.714  12.101  0.0806 -0.0857  0.2202
13875W        W32729  15.477   2.898  13.377  0.0673 -0.0607 -0.0126
13876W        W32730  16.195   7.237   0.994 -0.1066 -0.0570  0.0875
13877W        W32731  10.429  15.499   3.856  0.0769 -0.2538  0.1373
13878W        W32732   4.456   3.999  15.931 -0.3875  0.0645  0.3900
13879W        W32733  16.494   4.613   2.515  0.1437 -0.0599 -0.2593
13880W        W32734  10.776  13.504   2.443  0.0966 -0.0418 -0.1719
13881W        W32735  12.183   9.075  13.787  0.0280 -0.0192  0.1013
13882W        W32736  16.731   8.466   0.627 -0.0282  0.0266 -0.0296
13883W        W32737   5.150   8.681  11.740 -0.3504 -0.1392 -0.3349
13884W        W32738   9.373  15.637  12.568 -0.0467  0.0210  0.0070
13885W        W32739   1.066   4.046  14.486  0.0560  0.0371 -0.0989
13886W        W32740   3.070   4.886   0.555  0.0709  0.1095  0.2285
13887W        W32741   1.476   2.884   4.505  0.0842  0.0841 -0.0186
13888W        W32742   2.846   8.090  12.319 -0.2544  0.2170 -0.0985
13889W        W32743   3.380   2.418  11.719 -0.1889  0.2006  0.0421
13890W        W32744  14.770  12.518   0.922  0.0028 -0.2131  0.0805
13891W        W32745   4.267   5.625  12.304  0.1856  0.2674  0.1511
13892W        W32746   1.478   0.619  14.729 -0.3137  0.0472  0.0232
13893W        W32747   0.540   0.611   2.167  0.2445  0.0901  0.1747
13894W        W32748  13.189  15.866   4.978  0.1303  0.0981  0.0928
13895W        W32749  12.143  12.211   1.080 -0.3746  0.0967  0.1585
13896W        W32750  11.788   7.827  16.063 -0.2981  0.1747 -0.0577
13897W        W32751   6.870   9.497   3.555  0.2072  0.1607 -0.0144
13898W        W32752  17.996   7.203   1.588  0.4255 -0.1272  0.0185
13899W        W32753   1.063   0.830   4.157 -0.1084  0.1357 -0.5827
13900W        W32754  11.695  12.943  15.368 -0.0459 -0.4026  0.1794
13901W        W32755   3.940  17.787   0.674 -0.1539 -0.0460  0.1923
13902W        W32756  10.707   4.574  14.181 -0.1753 -0.1013  0.0601
13903W        W32757   0.079  13.805   0.270 -0.1093  0.1171 -0.2161
13904W        W32758  10.279  11.893   3.110 -0.2795  0.0235 -0.2991
13905W        W32759   6.095  10.111  11.993 -0.3596 -0.1608  0.0935
13906W        W32760   1.446  17.231  14.744 -0.0866 -0.3246  0.0894
13907W        W32761  13.913   6.413  15.368 -0.2281 -0.4376 -0.2401
13908W        W32762   0.062  15.763  12.161 -0.1881 -0.0504  0.2267
13909W        W32763  11.132  11.214  13.395 -0.0268 -0.1899 -0.0567
13910W        W32764   1.206  15.716  14.501  0.0432  0.0047 -0.0332
13911W        W32765  13.017  15.828  14.234  0.2638 -0.2141 -0.1247
13912W        W32766  10.771   9.474   0.577 -0.0161 -0.2397  0.1664
13913W        W32767   3.428   5.012   0.888 -0.1685  0.1099  0.1728
13914W        W32768  17.978   1.688  15.624 -0.3057 -0.0652  0.0240
13915W        W32769  11.095  15.674  11.868 -0.1527 -0.0072 -0.0830
13916W        W32770  15.353   2.540  14.180 -0.0438 -0.2478  0.2454
13917W        W32771   8.641   1.096   2.380 -0.3236  0.3274 -0.0981
13918W        W32772   9.881   1.559   3.651 -0.0397 -0.2105 -0.1238
13919W        W32773   5.367   8.460   4.477  0.0797  0.0466  0.1665
13920W        W32774  15.111   7.739  15.494 -0.0276 -0.1630 -0.0457
13921W        W32775  12.247  13.767  12.578 -0.1594  0.2570 -0.2689
13922W        W32776   5.065   9.877  12.103  0.3524  0.1285 -0.0946
13923W        W32777  12.403  12.849  11.660 -0.1131  0.1704  0.2152
13924W        W32778   6.034  17.496  15.284 -0.1168 -0.0352 -0.1215
13925W        W32779   0.243  13.343   3.216 -0.1691 -0.2063  0.1223
13926W        W32780  12.760   1.319   0.028  0.1467 -0.1434 -0.1184
13927W        W32781   8.659   8.421  14.963  0.0530  0.0424 -0.1109
13928W        W32782   7.133  16.648   1.802 -0.1360  0.0351  0.0701
13929W        W32783  17.585   0.317   1.414  0.0998  0.1139  0.0178
13930W        W32784  12.745   8.025  14.206 -0.0051  0.1141  0.0991
13931W        W32785  17.134   7.707  15.750 -0.0725 -0.1657  0.0083
13932W        W32786   8.099  15.973   4.503  0.1459 -0.3440 -0.2635
13933W        W32787  15.666  12.427  11.520 -0.3102  0.0468  0.8205
13934W        W32788   1.306   3.226  12.713 -0.1608  0.1248  0.1983
13935W        W32789   6.496   5.542   2.769 -0.1224 -0.1139  0.2227
13936W        W32790   1.575   7.439   2.808 -0.3470 -0.1700 -0.2947
13937W        W32791  13.553  13.507   4.788 -0.2453 -0.0066 -0.0079
13938W        W32792   9.885   0.237   1.153 -0.2056  0.0004 -0.0172
13939W        W32793   2.571   3.307  11.155  0.0712  0.3740  0.2458
13940W        W32794   2.529  10.405   0.184  0.0311 -0.0957  0.1196
13941W        W32795   5.804  12.349   4.173 -0.0311  0.1035  0.1620
13942W        W32796   6.749  12.599  10.676  0.1735  0.2436  0.2038
13943W        W32797  16.383   7.257  12.356  0.1412  0.2110 -0.3392
13944W        W32798   0.835   4.790   0.393 -0.1001 -0.1272 -0.3288
13945W        W32799   6.421  12.309  12.406  0.0863  0.1515  0.0224
13946W        W32800  11.411   7.688   3.496 -0.1758 -0.1576 -0.0476
13947W        W32801   6.902  16.324  14.487 -0.0174  0.1454 -0.0190
13948W        W32802   6.610   5.644  13.599 -0.0908 -0.0754  0.1463
13949W        W32803  15.239  15.337   2.327 -0.1387 -0.0485 -0.3254
13950W        W32804  13.751  15.152   2.597 -0.3940  0.0668 -0.2544
13951W        W32805   9.356  12.403   3.737  0.2040  0.2231 -0.2023
13952W        W32806   1.124   7.265   3.039  0.3417  0.0801  0.1283
13953W        W32807   0.801   0.764   4.587 -0.1043  0.2509  0.0720
13954W        W32808   9.935   2.012  11.572 -0.2730 -0.0977 -0.1692
13955W        W32809   8.338  12.192  11.526  0.0888 -0.1188 -0.1540
13956W        W32810   4.628   8.711   3.339 -0.0802  0.0614 -0.1721
13957W        W32811  15.973  13.687   0.967 -0.0234 -0.2922 -0.0808
13958W        W32812  13.317  11.507   3.530  0.1404  0.0878 -0.0776
13959W        W32813   4.319   3.639   4.898 -0.0023 -0.0117 -0.3734
13960W        W32814   6.753  14.898   1.221 -0.1583  0.0691 -0.2270
13961W        W32815   4.969   9.211   4.721  0.1769  0.0693  0.0744
13962W        W32816   5.357  14.298  15.149 -0.5405 -0.0338  0.1085
13963W        W32817  14.634  13.409   3.305 -0.2512 -0.1469 -0.3159
13964W        W32818   0.655  17.534   2.804  0.1135  0.0425 -0.0033
13965W        W32819   7.475  16.525   0.621 -0.1370 -0.3850  0.1298
13966W        W32820  12.545  11.114  11.425  0.3126 -0.0508  0.2184
13967W        W32821  12.474   0.188   4.401  0.3121  0.0941 -0.2633
13968W        W32822   9.301   8.187  11.942 -0.1451  0.2977  0.1798
13969W        W32823  17.611  10.515   0.203  0.0424 -0.0141 -0.0063
13970W        W32824  10.525   1.149   4.164 -0.0677  0.2208  0.1334
13971W        W32825   8.641  15.871   4.395  0.2036  0.0992 -0.2996
13972W        W32826   3.933  14.015   2.972  0.2287  0.0170  0.2725
13973W        W32827   3.405   6.284   1.645 -0.2765 -0.1523  0.0225
13974W        W32828  17.950   6.285  13.694  0.0898 -0.2053  0.0096
13975W        W32829   9.046   5.180   5.259  0.0179  0.0809 -0.0952
13976W        W32830   8.568   4.046  14.552  0.0319 -0.0314  0.0750
13977W        W32831   4.433  10.738  14.148  0.2748  0.1986 -0.1618
13978W        W32832   1.685   1.491  15.164 -0.0062  0.2082  0.0915
13979W        W32833   9.290  10.272   0.385  0.1701  0.0715  0.1720
13980W        W32834  16.422   1.119   0.140  0.5073  0.5104 -0.2785
13981W        W32835   4.970  17.173  12.919 -0.0979 -0.3308 -0.1909
13982W        W32836  17.592  16.716  12.113  0.2836 -0.4530  0.0648
13983W        W32837   5.794   2.285  15.844 -0.0753 -0.2946  0.0294
13984W        W32838  14.140  13.426  11.724  0.2026 -0.0638  0.1678
13985W        W32839  11.498   7.458  13.446 -0.3611 -0.1640  0.1680
13986W        W32840   4.823   7.184  14.981 -0.0159  0.2868 -0.3161
13987W        W32841  14.458  10.288   1.861 -0.3768  0.0515 -0.2343
13988W        W32842   3.388   3.372   4.521 -0.0079 -0.0327 -0.1481
13989W        W32843   2.382  13.962  13.879  0.1197  0.1294 -0.3017
13990W        W32844  15.756  12.346   1.585 -0.0053  0.0880  0.1062
13991W        W32845   2.748  14.599  15.112 -0.1602  0.1684 -0.0319
13992W        W32846   3.219  16.057  14.320 -0.0003  0.1910 -0.3665
13993W        W32847   7.472  14.859   0.672  0.0309  0.1078  0.0496
13994W        W32848   0.876   0.063   3.974  0.0899 -0.0378  0.0859
13995W        W32849  11.861  14.311  16.208  0.0228  0.4245  0.0017
13996W        W32850  13.201   2.228   2.999 -0.0598  0.2209  0.1382
13997W        W32851   0.597   7.398  14.558  0.2351  0.1198  0.1028
13998W        W32852   9.636  12.175   0.855  0.1601  0.0666  0.1800
13999W        W32853   7.003  10.004   0.116 -0.1389  0.1599  0.0934
14000W        W32854  16.975  11.518   0.165  0.0393 -0.0842  0.2954
14001W        W32855   6.980   2.778   4.690  0.2634  0.2477  0.0805
14002W        W32856   1.362   8.176   2.869  0.1515 -0.3395 -0.0488
14003W        W32857  10.089   6.006  13.704  0.3221 -0.0877  0.2224
14004W        W32858  13.353   3.662  15.731  0.4694 -0.0938  0.0829
14005W        W32859   0.779  10.292   2.709 -0.1188 -0.0051 -0.1666
14006W        W32860  12.778  12.937   3.129  0.1705 -0.0319 -0.2757
14007W        W32861   8.588   5.146  11.645  0.0983  0.0879  0.1468
14008W        W32862   9.481  11.537   4.816  0.0232 -0.0122 -0.0154
14009W        W32863   3.457  17.030  16.032 -0.1307 -0.0786  0.0557
14010W        W32864  12.533  13.925  14.726 -0.1996 -0.1594  0.1084
14011W        W32865  11.228  13.111  15.302  0.0590 -0.1957 -0.0089
14012W        W32866   6.417  14.560   2.147  0.0012  0.1071 -0.1805
14013W        W32867  15.836   5.024  11.354 -0.0106  0.0223  0.1087
14014W        W32868   6.258  11.054   1.846  0.1458 -0.1367  0.1849
14015W        W32869  13.671   9.954  14.620 -0.1594  0.1867  0.2856
14016W        W32870   8.419   7.417  13.586 -0.0705 -0.4461  0.3100
14017W        W32871  17.570  17.849   0.069 -0.1353  0.1074  0.2339
14018W        W32872   6.842   0.702   2.776 -0.1838 -0.1108  0.2054
14019W        W32873   3.858  16.972  14.731  0.1003 -0.1348  0.1750
14020W        W32874  11.647  10.326  13.102  0.0091  0.2360  0.1590
14021W        W32875   9.147   6.880  14.744  0.0206  0.0491  0.0974
14022W        W32876  16.911   3.602   3.929 -0.1043 -0.0130 -0.1681
14023W        W32877  10.662   1.848   0.333  0.0037  0.1160  0.2411
14024W        W32878  15.106  12.923  12.810 -0.1123  0.0277  0.2083
14025W        W32879  13.833  15.823   2.478 -0.1062  0.0380 -0.1397
14026W        W32880  10.195  12.331   0.494 -0.1914  0.3115 -0.1689
14027W        W32881   2.971  17.385  14.238  0.0651  0.1236  0.3275
14028W        W32882  12.816   5.322   1.939  0.1214 -0.0121  0.2595
14029W        W32883  17.036   0.213  13.997 -0.2574  0.0767 -0.1300
14030W        W32884  10.966   2.010   1.168  0.2293  0.0955  0.0549
14031W        W32885   0.098  10.588   3.279 -0.0913  0.1411 -0.1430
14032W        W32886   1.929   4.793  13.093  0.2906 -0.0847 -0.0170
14033W        W32887   4.670   1.041   3.599 -0.2040  0.0012  0.0255
14034W        W32888   2.313   2.602  13.577 -0.2358  0.0016 -0.0302
14035W        W32889  10.824   7.460  14.172  0.3757 -0.0248  0.0239
14036W        W32890  15.056   3.756   0.759  0.1220  0.3178 -0.0889
14037W        W32891   3.382   9.713   1.060 -0.4032  0.2868  0.1974
14038W        W32892   2.476  11.193   1.952  0.3678  0.3897 -0.0074
14039W        W32893  17.795   2.235  11.428  0.1146 -0.1694 -0.1051
14040W        W32894   5.530  12.594  11.092  0.0372 -0.0311 -0.2090
14041W        W32895  14.582   4.116   3.069 -0.1889  0.3392  0.1035
14042W        W32896  17.691   2.224   4.308  0.1053 -0.1548 -0.0839
14043W        W32897  14.027  10.897   2.694 -0.2055  0.3184  0.0188
14044W        W32898  10.007   7.922   0.088 -0.1632  0.1964  0.2921
14045W        W32899   8.371  11.550   3.435  0.1041  0.2771 -0.0046
14046W        W32900  17.832   9.779   1.871 -0.0075  0.2186  0.1066
14047W        W32901   4.110   1.451  13.122 -0.1241  0.1551 -0.0595
14048W        W32902  14.116   0.047   2.116 -0.0555 -0.2843 -0.0105
14049W        W32903  15.735   7.513  13.036 -0.2629 -0.1145 -0.0773
14050W        W32904   1.131   9.775   3.696 -0.3428  0.0932 -0.0124
14051W        W32905   2.369  12.719  11.809 -0.1224  0.0249  0.3838
14052W        W32906   1.772  11.578   1.107  0.2110  0.1056 -0.1540
14053W        W32907   4.265  17.820   3.519  0.0269  0.1742  0.0042
14054W        W32908  10.427  12.075  14.121  0.0728 -0.0439  0.1215
14055W        W32909  10.772   2.876  14.244 -0.3623 -0.2085 -0.0565
14056W        W32910   9.868   7.099  15.752 -0.1057 -0.0580 -0.1105
14057W        W32911   7.770  10.500  12.051  0.1429 -0.3829  0.2751
14058W        W32912  17.991  12.750   0.450 -0.0225 -0.2692 -0.0943
14059W        W32913   3.975   6.978   2.632  0.3734  0.0622  0.0403
14060W        W32914   0.020  16.129   2.750  0.2477  0.1355  0.0180
14061W        W32915  15.434   2.273   3.582 -0.0077 -0.2504 -0.1002
14062W        W32916   7.643   9.842   3.230  0.2602 -0.3596  0.1168
14063W        W32917   2.519  16.037  14.832 -0.0304  0.1499  0.3476
14064W        W32918   1.321   0.734  15.876  0.2693  0.1611 -0.0128
14065W        W32919  13.195   3.787   1.255  0.0810  0.3423  0.3476
14066W        W32920   9.721   1.937  16.161  0.0296 -0.1718 -0.0930
14067W        W32921   0.586   0.451  14.153  0.1180 -0.1146  0.4056
14068W        W32922   6.397  16.670  12.896 -0.1576 -0.1510  0.0175
14069W        W32923   4.066   8.471  12.442  0.0700  0.4262 -0.4784
14070W        W32924   6.041   1.423   2.352  0.2532  0.0627  0.0716
14071W        W32925   8.533   5.618  11.788 -0.0649  0.0383 -0.1082
14072W        W32926  10.015  12.023  12.308  0.2870  0.1587 -0.0049
14073W        W32927   1.813   8.006  15.084  0.0059  0.3486 -0.0667
14074W        W32928   9.937   2.489  13.753  0.1007  0.1083 -0.3212
14075W        W32929  15.578   1.713  12.129  0.0328  0.2870 -0.0681
14076W        W32930  10.166   3.648  15.168 -0.0452 -0.3445 -0.0775
14077W        W32931  13.301   4.884  11.294  0.1218 -0.2486 -0.3418
14078W        W32932  13.858  15.012   3.494 -0.0715 -0.3508 -0.2643
14079W        W32933   3.777   3.645   0.909 -0.1250  0.2823 -0.1712
14080W        W32934   2.991  10.828   3.536  0.0409 -0.1788  0.1485
14081W        W32935   4.891  15.980  13.875 -0.2040  0.1404 -0.0253
14082W        W32936   9.428   7.115   3.290 -0.0473 -0.1557 -0.1871
14083W        W32937   2.042  14.194   3.841 -0.3507 -0.1778  0.0745
14084W        W32938  11.306   2.429   1.110 -0.0508  0.1412  0.0573
14085W        W32939  16.403  16.074   3.185  0.2526  0.0838  0.0031
14086W        W32940   0.920  10.641  13.497 -0.0025 -0.3468  0.1412
14087W        W32941  17.936  14.748   6.115  0.1617  0.1217 -0.0872
14088W        W32942  13.727   5.003   1.349 -0.4389  0.0233  0.0149
14089W        W32943  15.167  10.102  14.366 -0.0322  0.1147  0.2091
14090W        W32944  16.245   1.948   2.220 -0.0685 -0.3308  0.2107
14091W        W32945   6.617   8.669  15.536  0.2191  0.0514 -0.0030
14092W        W32946  10.003  16.792   4.568  0.0832  0.4133 -0.1760
14093W        W32947   8.967   3.531  15.645 -0.2323  0.0215  0.0142
14094W        W32948  15.660  13.416  13.705  0.3410 -0.3642 -0.1187
14095W        W32949  16.787   2.315  15.737  0.0498  0.1938 -0.1931
14096W        W32950  12.520   3.411  15.083  0.0607 -0.1207 -0.1484
14097W        W32951   6.999   5.578  12.907 -0.2166 -0.0378 -0.0755
14098W        W32952   5.244   1.693  15.380 -0.1449  0.0388  0.2040
14099W        W32953  17.642   7.442   0.279 -0.0500 -0.1281 -0.1155
14100W        W32954   5.403  15.124  12.574  0.0605  0.0096 -0.0725
14101W        W32955   6.616   2.483   3.036  0.3649 -0.0245 -0.1162
14102W        W32956  14.195   1.221  15.434  0.1913 -0.3189 -0.2260
14103W        W32957  16.952   4.442   2.680 -0.1426 -0.2826 -0.4227
14104W        W32958   3.897   5.302   0.584  0.2517 -0.2187  0.1981
14105W        W32959   3.363  11.465   4.266 -0.0558 -0.2366 -0.0291
14106W        W32960   3.229  14.393  14.000  0.1221  0.3170  0.2851
14107W        W32961  16.519   1.427   1.036 -0.2815  0.1467  0.0406
14108W        W32962   8.918   1.653   3.653 -0.0196 -0.0354  0.0518
14109W        W32963  14.361  16.446   2.460  0.2804  0.1756  0.2083
14110W        W32964   9.754   0.146   2.507  0.4062  0.0246  0.0042
14111W        W32965  13.523  14.030  14.411  0.0043 -0.1474 -0.2754
14112W        W32966   9.765   1.765   2.739  0.0528  0.0617 -0.0421
14113W        W32967   7.826  17.137  13.909  0.1825  0.1650 -0.3282
14114W        W32968  17.335  10.098   0.982  0.1062 -0.0209  0.0796
14115W        W32969   3.908   1.631  11.796 -0.0634  0.0089  0.1721
14116W        W32970  18.001  14.554   3.878  0.0635 -0.1784 -0.0169
14117W        W32971  11.656   0.346   3.138  0.2226  0.1094  0.2177
14118W        W32972   1.511   4.061   2.427  0.0352  0.1157  0.2487
14119W        W32973   6.385   0.325   4.103  0.0175  0.2206  0.1084
14120W        W32974  13.970  16.460   1.700 -0.0554  0.0393 -0.1412
14121W        W32975   0.067   3.908   4.880  0.2390  0.3265 -0.0878
14122W        W32976  11.122   4.700  16.178  0.1635  0.0237  0.2006
14123W        W32977  15.011  15.890   2.422 -0.1421  0.1311 -0.3883
14124W        W32978   4.462   5.577   1.910  0.0628 -0.3364  0.0824
14125W        W32979   4.277  15.458   1.810 -0.0439  0.0182 -0.0326
14126W        W32980   3.205  12.335  13.643  0.0771 -0.0474  0.1148
14127W        W32981  17.956  12.440  14.160 -0.1130 -0.0283  0.1678
14128W        W32982  12.859   9.083  11.616 -0.2661  0.1878  0.2600
14129W        W32983   2.416  12.390  12.237  0.1594 -0.2951 -0.1894
14130W        W32984   1.479   6.189  12.846  0.0596 -0.4009  0.3956
14131W        W32985  10.381   2.177  13.035  0.0371 -0.1508  0.1934
14132W        W32986   1.356  12.306   1.659  0.3549  0.0557 -0.1078
14133W        W32987   1.451  16.729   2.383  0.0784 -0.0045  0.3913
14134W        W32988   5.387   6.904  11.741  0.2644  0.0861 -0.0800
14135W        W32989   7.383  14.049   3.152 -0.3113  0.0252 -0.0759
14136W        W32990   7.792   5.074  12.858 -0.0733  0.1279  0.2012
14137W        W32991   3.540   9.690   4.042  0.2055  0.1144  0.0379
14138W        W32992   7.886   9.395  15.458  0.0755  0.3570 -0.0189
14139W        W32993  15.212   9.139   4.135 -0.0232 -0.0202 -0.0328
14140W        W32994  14.865   5.155   4.967 -0.0280  0.0620  0.0277
14141W        W32995   2.975  11.432   0.206 -0.0946 -0.1665  0.2528
14142W        W32996  12.452   0.168   5.173  0.0790 -0.3488 -0.2094
14143W        W32997  12.931  17.574  12.194  0.4712 -0.1859  0.0300
14144W        W32998  15.968   7.475  15.295 -0.1829 -0.1284  0.0139
14145W        W32999   6.562  12.601   2.301  0.1546  0.0934  0.2565
14146W        W33000   2.311  14.843   4.950 -0.3747  0.3027  0.1017
14147W        W33001  12.032  17.745   1.087  0.2407  0.2529  0.0265
14148W        W33002  13.863  14.214   3.673  0.1788 -0.1960 -0.0801
14149W        W33003   8.918   7.470   1.644 -0.1738 -0.1056  0.2086
14150W        W33004   4.340   0.310  16.178 -0.0915 -0.1091 -0.1162
14151W        W33005   1.573  13.175  11.975 -0.3725 -0.0684 -0.2549
14152W        W33006   6.367   4.167   0.876 -0.2097  0.3586  0.2190
14153W        W33007   5.882   3.603   0.393 -0.2421  0.0240 -0.2390
14154W        W33008   0.790  16.076  12.495  0.0529 -0.2341 -0.1460
14155W        W33009  13.065  12.141   1.266  0.0392  0.0038  0.1023
14156W        W33010   4.804   4.468  11.803 -0.0988 -0.0870 -0.1192
14157W        W33011   3.860   2.590  11.571 -0.1234  0.0148 -0.0312
14158W        W33012   8.144  12.187   3.157  0.0738  0.1663  0.2856
14159W        W33013   3.954   6.186  12.762  0.1732  0.0264  0.0811
14160W        W33014  11.036  10.645  14.872 -0.0796 -0.0093 -0.1208
14161W        W33015   8.805   2.749   0.793  0.1199 -0.2121 -0.1700
14162W        W33016  15.128   9.985  14.978  0.0191  0.4062  0.1308
14163W        W33017   4.302   0.203  12.135 -0.1225 -0.0069  0.3282
14164W        W33018   3.225   7.602   2.187  0.2142 -0.0252  0.1061
14165W        W33019   1.420   9.025   0.671  0.1766 -0.0220  0.1921
14166W        W33020  13.016  11.058   4.227 -0.0458  0.1870  0.0362
14167W        W33021   1.682   9.033   1.163  0.1625 -0.0138  0.3539
14168W        W33022   9.422  14.439   3.450 -0.2484  0.3681  0.0540
14169W        W33023   0.106  14.313  15.523 -0.1096  0.3365 -0.1443
14170W        W33024   8.787   6.364  15.390  0.0553 -0.0176  0.0989
14171W        W33025  17.624  12.314   4.592  0.0890 -0.1463 -0.1163
14172W        W33026  15.532  14.550   3.474 -0.1635  0.1137 -0.0211
14173W        W33027   8.180   2.531   6.140  0.0673  0.0398  0.1292
14174W        W33028  16.747  14.106   5.304  0.0865 -0.2193 -0.1460
14175W        W33029   7.005   5.671   0.284  0.0912 -0.0688 -0.0028
14176W        W33030   3.141  15.053  16.157  0.1519 -0.2840 -0.2417
14177W        W33031  17.389  16.074  15.034 -0.2973  0.0226  0.0384
14178W        W33032  16.916   8.412   3.939 -0.1930  0.2635 -0.0050
14179W        W33033   5.561   0.634   2.667  0.1542  0.2131  0.2100
14180W        W33034   6.479   1.700  13.568  0.1422 -0.2093 -0.0308
14181W        W33035   9.979   8.179   4.014 -0.0565  0.3601  0.2121
14182W        W33036   4.880   1.083   0.423  0.1614 -0.2463  0.1525
14183W        W33037   6.771  17.937   0.215  0.2768 -0.2129 -0.1809
14184W        W33038   5.779  16.519  12.104  0.2863  0.1954 -0.1476
14185W        W33039  13.771   2.205  12.260 -0.0901 -0.3746 -0.0631
14186W        W33040  11.704   1.844  13.675 -0.3313  0.0761  0.2008
14187W        W33041  15.994   9.808  10.274  0.2497  0.4019 -0.1188
14188W        W33042  13.029  11.596   1.828 -0.0366 -0.0241  0.1471
14189W        W33043   0.695   9.622   3.926 -0.0351 -0.1601 -0.2850
14190W        W33044   2.274   1.781  14.246  0.1765 -0.0807  0.0166
14191W        W33045   4.675  15.756   4.153 -0.1221 -0.0757  0.3085
14192W        W33046   9.797  15.854  15.628  0.1433  0.1291  0.2147
14193W        W33047  14.149  10.374  11.918 -0.0316 -0.3078 -0.0157
14194W        W33048   7.315   0.913  14.142  0.0775 -0.1720  0.0147
14195W        W33049   1.154   2.752  12.494  0.3302  0.0854 -0.0508
14196W        W33050   0.855  10.786   1.434  0.5113  0.1000 -0.0266
14197W        W33051  13.850   5.288  12.183  0.0574  0.1600  0.3533
14198W        W33052  11.348  11.010  13.843 -0.1104 -0.0471  0.2861
14199W        W33053   5.576  16.979  13.483  0.1392 -0.0705 -0.0410
14200W        W33054  11.674   3.864   4.204  0.1539 -0.2988 -0.1668
14201W        W33055  12.239   3.756   3.630  0.1556 -0.1824  0.0482
14202W        W33056   0.243  16.921   4.775 -0.2069  0.0318  0.0382
14203W        W33057   4.624   9.518  15.929 -0.1222  0.1370 -0.0400
14204W        W33058  12.146   0.237  12.293  0.0206  0.1725  0.0418
14205W        W33059   5.639   9.068  14.310 -0.1766  0.0809 -0.1338
14206W        W33060   2.761   7.497   1.948 -0.0919  0.1019 -0.0825
14207W        W33061  12.105   5.520  13.404 -0.0649  0.0677 -0.0099
14208W        W33062   2.554   4.976  12.133 -0.2275 -0.0145 -0.1276
14209W        W33063   0.268   5.474   1.904  0.2484  0.1480 -0.1913
14210W        W33064   5.536   6.236  14.358  0.2149  0.1303 -0.2979
14211W        W33065   9.160   7.262  13.146 -0.0820 -0.0635 -0.0418
14212W        W33066  16.309   3.174   2.261 -0.1101 -0.2609  0.0569
14213W        W33067   0.121  17.369  15.638 -0.0503  0.0719 -0.1751
14214W        W33068  11.907  12.037   2.915 -0.0507 -0.2487  0.1382
14215W        W33069  11.603  15.697   4.573  0.0001  0.0233  0.3000
14216W        W33070  16.861   9.133   1.344  0.0005  0.0001 -0.0512
14217W        W33071   8.033   2.349   4.906  0.0454 -0.1671  0.0304
14218W        W33072  11.228  15.441   5.373 -0.2421 -0.1018 -0.0103
14219W        W33073   2.427  15.903   4.362  0.1208 -0.0527  0.2496
14220W        W33074   7.275  17.487  11.790 -0.0173 -0.1768  0.0321
14221W        W33075  14.246  13.137  12.244  0.0864  0.3346  0.3246
14222W        W33076   4.565  11.401   1.142 -0.1106  0.2814 -0.0031
14223W        W33077   6.908   8.946  13.026 -0.0152 -0.0925  0.1467
14224W        W33078   8.110   4.706  14.989  0.2708  0.1255 -0.0756
14225W        W33079   3.146  14.143   2.801  0.1572 -0.2600 -0.0626
14226W        W33080   6.851   6.623   1.259  0.1882 -0.0874  0.0858
14227W        W33081   5.160  17.679  15.644 -0.0687  0.1645 -0.0544
14228W        W33082  18.035  14.489   1.576  0.0067 -0.2645 -0.0323
14229W        W33083  11.236   8.037   4.186  0.1136 -0.5010 -0.1429
14230W        W33084   4.335   4.157  14.362  0.1559  0.3019 -0.0169
14231W        W33085  16.959   8.769  15.897  0.1101 -0.0141 -0.0711
14232W        W33086  17.817  16.232  14.818  0.0442  0.0102  0.0905
14233W        W33087  15.936  13.665  16.055 -0.3159  0.0743  0.0263
14234W        W33088   2.900   3.468   2.488 -0.1237 -0.1822 -0.2475
14235W        W33089  10.746  10.266  14.740 -0.0169  0.0166 -0.2073
14236W        W33090  14.654   8.846   4.480  0.2729 -0.1782  0.0036
14237W        W33091   0.393  12.482  15.392 -0.1038 -0.0316 -0.0908
14238W        W33092  13.452   2.463  11.974  0.3491 -0.3991  0.0380
14239W        W33093   5.769   9.355  12.415 -0.2149  0.2465 -0.2964
14240W        W33094   4.328  10.774  12.395  0.2374 -0.0437  0.1504
14241W        W33095  13.045   8.690   4.726  0.1057 -0.2127 -0.0227
14242W        W33096  17.249  11.936  16.195 -0.1723  0.0659  0.0529
14243W        W33097  10.945  15.402  12.300  0.4522  0.2978  0.1438
14244W        W33098   8.554  14.229   4.792  0.3949  0.2041  0.0192
14245W        W33099   4.022  10.271  11.673 -0.3082  0.1658  0.1663
14246W        W33100   1.730   9.193   4.382 -0.0548  0.3601 -0.2161
14247W        W33101  15.077   3.002  12.037  0.3606  0.3670  0.0928
14248W        W33102  12.660   6.217   3.801  0.0252 -0.1521  0.1990
14249W        W33103   6.946  16.745  12.991  0.1253 -0.0950 -0.2042
14250W        W33104  17.405  16.674   0.873  0.2265  0.1053  0.0512
14251W        W33105  15.665   6.043  11.478  0.1311  0.0450  0.0555
14252W        W33106   1.598  16.680   2.855 -0.1922  0.0906  0.0175
14253W        W33107   7.452  17.390   0.238  0.0446  0.1001  0.2925
14254W        W33108  10.391  17.804   2.899 -0.1435 -0.2472  0.1664
14255W        W33109  12.678  11.543  15.060 -0.1495 -0.0456 -0.0751
14256W        W33110   3.505   5.163  14.356  0.0263  0.2477  0.0201
14257W        W33111  15.915   4.828   0.491  0.1545  0.1346  0.1174
14258W        W33112  10.661   8.390  16.098 -0.1468  0.4694  0.1899
14259W        W33113  13.261   1.745   6.053 -0.0936  0.2522  0.1420
14260W        W33114   0.648   0.728   3.340  0.1894  0.1515 -0.0845
14261W        W33115   0.074  10.539   2.383  0.0220  0.0646 -0.0839
14262W        W33116  14.442   4.794  14.753 -0.0382  0.1662 -0.0076
14263W        W33117   6.065   5.235  12.993 -0.1726 -0.1914 -0.1049
14264W        W33118   9.639  13.290  13.335  0.0888 -0.1515  0.0306
14265W        W33119  15.296   6.069  10.183  0.2604 -0.1368 -0.0097
14266W        W33120   1.006   8.317  15.333 -0.1067  0.1720  0.1498
14267W        W33121   6.926   6.711  11.173 -0.0619 -0.3454 -0.1568
14268W        W33122  13.570  16.366  15.308  0.3125 -0.1035 -0.0450
14269W        W33123   2.264   2.684   4.189 -0.2846  0.1205 -0.2469
14270W        W33124   4.617  11.991   4.693 -0.0679  0.0232 -0.1618
14271W        W33125  16.666  15.213   0.073  0.0521 -0.0841  0.1370
14272W        W33126   8.424  17.780  12.495  0.0539  0.2220  0.0917
14273W        W33127   9.264  15.729  15.615  0.1538 -0.0440  0.0804
14274W        W33128   0.735   6.693   1.174 -0.0123 -0.2541 -0.1081
14275W        W33129   2.728  13.137  12.574  0.0971 -0.1725 -0.0434
14276W        W33130   9.581   8.243   2.483 -0.1476  0.0241 -0.0434
14277W        W33131   7.392   5.735  15.361  0.1664  0.2867  0.1567
14278W        W33132   1.398  12.045   2.603  0.3144  0.2196 -0.3401
14279W        W33133   4.964  17.721   4.811 -0.2635  0.1163  0.1894
14280W        W33134  12.262  11.657  13.473  0.2138 -0.1273 -0.0849
14281W        W33135   9.695   9.739   1.544 -0.0796  0.0503  0.3152
14282W        W33136  11.144   5.329   4.043  0.0376  0.0664 -0.0069
14283W        W33137   5.271   1.567   2.653 -0.0708  0.0061 -0.1725
14284W        W33138  11.550   3.015  14.264  0.1850  0.1419 -0.0624
14285W        W33139   9.347   6.296  11.553  0.1191  0.0692 -0.3242
14286W        W33140   7.127   3.312  16.111 -0.0084  0.1820 -0.2508
14287W        W33141  12.631  17.614  13.302 -0.0507  0.2092 -0.2127
14288W        W33142   6.378   1.491   4.543 -0.1596  0.1786 -0.1082
14289W        W33143  12.061  13.751   0.610  0.0448 -0.0274 -0.0276
14290W        W33144  16.631   4.004  15.378  0.2428  0.1147  0.0385
14291W        W33145  16.854   7.914   0.512 -0.0586 -0.3078  0.0703
14292W        W33146  12.324   2.027  11.963  0.1226  0.0915  0.1558
14293W        W33147   4.571  15.467  12.653 -0.0731  0.1023  0.1075
14294W        W33148   6.503   4.392  12.553  0.0215  0.0887 -0.0155
14295W        W33149  11.127  16.103   3.752 -0.2061 -0.1054  0.1812
14296W        W33150   6.379   3.652   0.585 -0.2199 -0.1955 -0.0501
14297W        W33151   4.695  10.114   1.515  0.2436  0.2286  0.2028
14298W        W33152  13.542  12.398   0.649  0.0599  0.2415 -0.2628
14299W        W33153   4.769   3.598   0.510  0.0541  0.2571 -0.0503
14300W        W33154  10.995  16.893   1.230  0.2126  0.0357 -0.1214
14301W        W33155   9.089   7.162  11.976  0.0408 -0.0765  0.0380
14302W        W33156   9.440  18.025  14.486 -0.0320  0.2394  0.0421
14303W        W33157   5.112   2.434   0.180  0.0699 -0.3500  0.0180
14304W        W33158   4.212  10.157  15.487 -0.1542  0.2213  0.0212
14305W        W33159   1.446   0.756  14.030  0.0239 -0.0065 -0.0910
14306W        W33160  12.522   1.454  12.489 -0.1045 -0.0364  0.1363
14307W        W33161  15.928  16.382  16.020 -0.1611 -0.0146  0.2463
14308W        W33162  14.161  14.967  14.938 -0.2163  0.1353 -0.1851
14309W        W33163  14.174   3.132   3.979 -0.1764  0.3135  0.1419
14310W        W33164   0.884  15.202   4.720 -0.2455 -0.1745  0.0027
14311W        W33165   1.723  13.172   1.761 -0.1862  0.2224  0.0284
14312W        W33166  14.118  16.190   0.854  0.0195  0.4196  0.3426
14313W        W33167   5.422  17.572   4.741  0.0667 -0.0447  0.1167
14314W        W33168  14.308  11.602  13.748  0.0459 -0.0431 -0.1196
14315W        W33169   1.883  13.859  15.918  0.0478  0.0596  0.2321
14316W        W33170   3.662  16.565  12.170 -0.1814  0.1517 -0.1350
14317W        W33171   4.920  11.905  13.647 -0.1102 -0.0884  0.0167
14318W        W33172   6.120   2.492  11.192  0.2834  0.1694 -0.0359
14319W        W33173   0.440  14.641   2.441  0.1131  0.1785 -0.1194
14320W        W33174   5.593  13.992  12.620  0.0238 -0.0619 -0.2190
14321W        W33175   0.474   4.486  12.995 -0.0996 -0.4416  0.1016
14322W        W33176   0.998  15.921  10.682 -0.2103  0.0158 -0.0426
14323W        W33177   6.521  17.414  15.608  0.1810 -0.2875 -0.1135
14324W        W33178  13.146  11.500  13.738  0.0962  0.0976  0.1369
14325W        W33179   5.414  15.271   1.794 -0.2539 -0.2551  0.1343
14326W        W33180  14.249  14.153  15.652  0.0693  0.0420 -0.1532
14327W        W33181   1.222  10.667  11.345  0.0026 -0.1142 -0.4544
14328W        W33182   9.497  16.404  14.542 -0.3639 -0.0781  0.1002
14329W        W33183  15.644   8.242  14.407 -0.2275 -0.0496  0.1026
14330W        W33184   6.629   5.145   1.363  0.3594 -0.0578  0.0214
14331W        W33185   6.801  12.927  13.969  0.0569 -0.3094  0.2955
14332W        W33186   0.305  12.517   0.015 -0.0625  0.0117 -0.1811
14333W        W33187   6.000   2.720  12.703 -0.0467  0.5167  0.5431
14334W        W33188  16.226  15.874   4.565  0.0161 -0.0248 -0.3227
14335W        W33189   8.857  11.098  13.192 -0.2057  0.2751 -0.0987
14336W        W33190   6.802   1.204  11.797 -0.0068  0.0938  0.0046
14337W        W33191  12.220   5.988   3.480 -0.0141 -0.2634  0.0808
14338W        W33192  11.155  15.312   4.845  0.2810  0.2269 -0.0257
14339W        W33193   7.336   9.367  15.506  0.1292  0.1519  0.2422
14340W        W33194  13.863   5.811  13.917 -0.3147 -0.1033 -0.0827
14341W        W33195   8.197  16.116   2.668  0.1083 -0.0717 -0.2177
14342W        W33196  10.020   8.396   1.584  0.1313 -0.1166  0.1164
14343W        W33197  17.572  15.300  13.762  0.0931  0.0173 -0.1753
14344W        W33198   5.662   2.880   0.581 -0.1514  0.0781  0.1901
14345W        W33199   3.873   3.626   4.634  0.2321  0.3370 -0.0329
14346W        W33200   0.655   3.181   1.536  0.1315 -0.0500  0.2150
14347W        W33201  13.191   2.821   0.675  0.1341  0.1806 -0.0951
14348W        W33202  13.916   3.736  11.618  0.0886  0.0431  0.1461
14349W        W33203   8.754   9.465  14.196 -0.2448 -0.1629 -0.2152
14350W        W33204   2.992  13.010  12.148  0.2011 -0.1543 -0.1466
14351W        W33205   8.397  10.210  14.808 -0.0717 -0.0996  0.0150
14352W        W33206   2.291  17.448   4.041  0.0032 -0.0208  0.1501
14353W        W33207  10.521   4.367   2.485 -0.3254  0.1763  0.0517
14354W        W33208   5.118  17.321   3.422 -0.3265 -0.1243  0.0127
14355W        W33209  17.075  14.044  13.224  0.1394  0.1013 -0.2096
14356W        W33210   9.870   2.938   2.307 -0.0678  0.0925 -0.1587
14357W        W33211  13.420  14.675  12.580 -0.1978  0.0673  0.0176
14358W        W33212  14.078   5.657   4.479 -0.1776  0.1937 -0.2779
14359W        W33213   0.040  16.355   3.732 -0.0740 -0.0874 -0.2977
14360W        W33214   8.286   7.908  16.029 -0.0445  0.0184  0.2223
14361W        W33215  11.316   0.221  12.859  0.0106  0.0399 -0.4969
14362W        W33216   0.660   5.485  11.463 -0.2538  0.0154 -0.0525
14363W        W33217   8.407   3.170   0.119 -0.2077 -0.0173  0.0488
14364W        W33218   5.840   2.926   1.096 -0.2371  0.2460  0.1685
14365W        W33219   7.057  11.214  11.220  0.1295 -0.1501 -0.0422
14366W        W33220   1.657  13.264   2.939  0.0064 -0.0223 -0.1412
14367W        W33221  14.913   8.094  12.078  0.1133 -0.1553 -0.3300
14368W        W33222   0.596   0.059   2.197 -0.1144 -0.1541 -0.3035
14369W        W33223   1.830  11.190   4.017  0.1176 -0.0419 -0.1103
14370W        W33224   9.006   7.169   2.039 -0.0004 -0.1249  0.0544
14371W        W33225   6.145   0.597   1.206  0.0735  0.0573 -0.0384
14372W        W33226  10.600   8.281  11.638  0.1352  0.0245  0.2097
14373W        W33227   5.643   5.849   3.877  0.1296  0.0565 -0.0269
14374W        W33228  10.198   1.854   0.451  0.0349  0.3465 -0.0062
14375W        W33229   4.404   4.582   1.418 -0.0649  0.2651  0.0673
14376W        W33230  13.042   4.985   1.591  0.1629 -0.0431  0.0875
14377W        W33231   5.105   7.137  15.970 -0.1943 -0.0036 -0.1701
14378W        W33232  17.872  17.457   2.307  0.2510 -0.0828  0.0206
14379W        W33233   4.749   1.636  11.989  0.3946  0.1444 -0.0795
14380W        W33234  11.837   4.866   2.162  0.1231 -0.2062  0.3705
14381W        W33235   8.701   7.161   4.461 -0.0749 -0.1549  0.0814
14382W        W33236   2.744  11.201  15.931  0.0853  0.0513 -0.0223
14383W        W33237  14.592  17.052  13.795 -0.0878 -0.1689 -0.2323
14384W        W33238  14.633  14.509  15.786 -0.0005 -0.2910 -0.1154
14385W        W33239   6.410   9.320   4.488  0.0562  0.5603  0.1642
14386W        W33240   9.764   4.004   2.697  0.0644 -0.0117 -0.0866
14387W        W33241  11.359  10.868  15.256  0.3109  0.2506 -0.3136
14388W        W33242   4.944  15.674   4.948  0.0923  0.2043 -0.0508
14389W        W33243  17.705   2.920   0.644  0.0233 -0.0767 -0.2858
14390W        W33244   9.033  12.805  14.856 -0.1706  0.0264 -0.2119
14391W        W33245  12.599  12.423  15.293  0.1778  0.0829 -0.0683
14392W        W33246   4.797  16.419  13.186  0.2869  0.1377 -0.0692
14393W        W33247   2.928  12.981   1.726  0.2910  0.0925  0.1590
14394W        W33248  12.493  16.877   4.399 -0.0109  0.2111  0.0750
14395W        W33249  11.121   3.320   0.599  0.0192 -0.1520 -0.0013
14396W        W33250   3.002   6.645   4.310  0.3471 -0.2387 -0.1656
14397W        W33251   8.886  11.125   4.262 -0.2400 -0.2561  0.0296
14398W        W33252   3.495   9.357  12.633 -0.1359 -0.1092 -0.0812
14399W        W33253  12.652  11.592   1.013 -0.1080  0.0611 -0.1694
14400W        W33254  11.515   2.504  11.471 -0.2498  0.0601  0.0564
14401W        W33255  16.916  13.960   3.183 -0.0144  0.0269  0.0969
14402W        W33256  11.380  14.022   2.965  0.1512  0.0695 -0.0535
14403W        W33257   1.479   4.790   1.146 -0.1356  0.3164 -0.1410
14404W        W33258   2.927   9.008  11.256  0.0500  0.2628 -0.3235
14405W        W33259   5.438   5.959   4.419  0.0745 -0.0350 -0.1882
14406W        W33260  17.010   5.278   3.988  0.2751 -0.0311  0.2289
14407W        W33261  17.810  17.016  12.588  0.1759  0.1017  0.0256
14408W        W33262  14.384   4.550   0.632 -0.1005  0.2041  0.1340
14409W        W33263   3.345  14.293   2.249 -0.0864 -0.1015 -0.1357
14410W        W33264  12.141  16.673  15.640 -0.0332 -0.0835 -0.2072
14411W        W33265   5.122  16.343   0.540 -0.0157  0.0531  0.0937
14412W        W33266   7.331   2.634   0.439 -0.3012  0.0482 -0.2102
14413W        W33267  17.940   8.248  12.938 -0.1440 -0.0210 -0.0451
14414W        W33268   8.079   9.237   4.767 -0.0821 -0.0064  0.0553
14415W        W33269  14.223   3.191   0.838 -0.3693  0.1250  0.1573
14416W        W33270   5.940   6.100   0.610 -0.3189  0.0505 -0.0399
14417W        W33271  17.874   1.366   0.118 -0.1286  0.2581 -0.1167
14418W        W33272  12.502   3.181   2.321  0.1854  0.0964  0.0055
14419W        W33273   7.130   1.098   2.734  0.1081 -0.3291  0.3417
14420W        W33274   4.997  12.550  12.475 -0.2322  0.2562  0.0775
14421W        W33275  15.032  11.070   2.776 -0.2181  0.1757  0.1316
14422W        W33276  12.895   5.032   2.816 -0.0978 -0.1392  0.0451
14423W        W33277   0.043  17.217   4.337 -0.1736  0.2454  0.3345
14424W        W33278  17.278  16.012   5.124 -0.0888  0.1793  0.0594
14425W        W33279  10.105  15.728  14.625  0.2127 -0.3981  0.1621
14426W        W33280   9.342   8.852   4.560  0.0665  0.1757 -0.0721
14427W        W33281   7.000   9.736  15.429 -0.2136  0.0674  0.0480
14428W        W33282   2.102   9.606   5.899  0.1013  0.0265  0.1295
14429W        W33283  12.477   1.005  12.813 -0.2314  0.0878 -0.1675
14430W        W33284   1.567   5.031   2.154  0.1782  0.0784  0.2707
14431W        W33285  13.219   4.329   4.562 -0.1079  0.0649 -0.0340
14432W        W33286  10.829  10.272  13.447 -0.1752  0.1211 -0.1700
14433W        W33287   8.975  10.592  15.242 -0.3469 -0.2723  0.0391
14434W        W33288  14.377  15.427  14.776  0.3528  0.1349 -0.2911
14435W        W33289  11.426   2.360  10.490 -0.3596  0.1124  0.0325
14436W        W33290  15.922   7.960  11.201  0.0875 -0.0032  0.0852
14437W        W33291   7.987   5.972  12.584  0.1133 -0.1066  0.2521
14438W        W33292   0.068  13.441  10.765 -0.3847 -0.0916  0.1097
14439W        W33293  17.489  11.997   3.177  0.0855 -0.2355  0.0516
14440W        W33294   4.788   7.501   4.618  0.2708 -0.0868 -0.1399
14441W        W33295  11.801  15.529  12.533 -0.2699  0.1237  0.0843
14442W        W33296  15.497   7.558   2.302  0.0876 -0.0690 -0.1568
14443W        W33297  15.358   0.740  15.441  0.0007 -0.0350 -0.1667
14444W        W33298  13.940  17.964   0.903  0.0051  0.0594 -0.1243
14445W        W33299  12.594   4.318   2.072  0.0700 -0.0558  0.1673
14446W        W33300   3.375   6.424   2.105  0.2339 -0.1780 -0.1008
14447W        W33301   9.759  14.494   5.100  0.1612 -0.1112  0.0927
14448W        W33302   4.978   9.842   2.477  0.0580 -0.1665  0.0518
14449W        W33303   4.339   2.812  11.490 -0.1400  0.2879 -0.1690
14450W        W33304   9.756   6.671   3.317 -0.3045  0.2808 -0.0191
14451W        W33305  13.017   4.553  15.899 -0.0768  0.0606 -0.2643
14452W        W33306   0.629   0.875   3.805  0.0576  0.2251  0.0600
14453W        W33307  11.253   7.661  13.953  0.0674 -0.0075  0.2814
14454W        W33308  12.094   7.758  15.142  0.2262  0.3300  0.3270
14455W        W33309  17.660  13.557   4.897 -0.1166  0.0244  0.1186
14456W        W33310   1.035   9.467   3.190  0.0837 -0.0845  0.0173
14457W        W33311  11.992  12.729   0.283 -0.0013 -0.0043 -0.2628
14458W        W33312  15.171   3.535  13.149  0.0141 -0.1201 -0.0825
14459W        W33313  10.462  13.276  13.194  0.0325 -0.0401  0.0367
14460W        W33314  17.431  12.794  11.863  0.1747 -0.0707 -0.2989
14461W        W33315  11.728   4.574  13.093 -0.1397  0.4735 -0.2724
14462W        W33316   6.402   3.556   4.265 -0.0939 -0.1731  0.1331
14463W        W33317  11.979  12.339  16.198 -0.1275 -0.1161  0.0863
14464W        W33318   5.433  15.760   0.206 -0.1989  0.1525 -0.0574
14465W        W33319   5.754   2.454  15.148  0.0523  0.5279  0.0748
14466W        W33320   0.038  15.084  13.196 -0.0415 -0.0951 -0.0814
14467W        W33321  10.720   9.891  15.066 -0.1008  0.0412  0.1571
14468W        W33322   4.556   3.893  14.702  0.2252  0.2083 -0.3065
14469W        W33323   6.404   7.296   4.226 -0.0658  0.0943  0.0969
14470W        W33324  14.688  16.683  13.416 -0.0252  0.6113  0.0039
14471W        W33325  14.221  13.701   0.768  0.1995 -0.1957 -0.1503
14472W        W33326  17.863  14.177  14.772  0.2593 -0.0126 -0.2096
14473W        W33327   0.206   9.778  10.628 -0.1216 -0.1120 -0.2182
14474W        W33328  11.663   1.908  13.127  0.0657  0.0540 -0.0685
14475W        W33329   6.164   1.807   4.164 -0.0532 -0.0306  0.0240
14476W        W33330   8.495   6.185   3.040 -0.0880 -0.1686 -0.1889
14477W        W33331  15.496  15.685   2.013 -0.2697  0.1264 -0.3174
14478W        W33332  14.573  14.378  15.319 -0.1625  0.0503 -0.0485
14479W        W33333   0.191  12.859  14.009 -0.3605 -0.1341 -0.3409
14480W        W33334   1.406  13.550   3.629 -0.0126 -0.0777 -0.1462
14481W        W33335  15.094   8.846   2.562 -0.1920  0.1177  0.1411
14482W        W33336   0.692   9.999   0.971 -0.0927 -0.2491 -0.3906
14483W        W33337  16.406   3.539  13.180  0.2238  0.1541 -0.0332
14484W        W33338   7.699  13.959  14.349  0.2745 -0.0707 -0.1732
14485W        W33339   9.028  16.188   3.742  0.2953  0.0791  0.1298
14486W        W33340  13.513  10.862   4.696  0.0365 -0.1672  0.0292
14487W        W33341  14.804   2.429   2.884 -0.2357  0.0515  0.1602
14488W        W33342   8.348   3.027   3.025  0.0925  0.2436 -0.1334
14489W        W33343  12.397  17.959   3.361 -0.1657 -0.1180  0.1731
14490W        W33344  17.989  17.039   1.179  0.0258 -0.0527  0.2181
14491W        W33345  16.069  16.250   4.248 -0.0315 -0.1029 -0.0557
14492W        W33346   9.958  10.932   2.945 -0.1742  0.2392  0.1780
14493W        W33347   8.372   9.562   4.976 -0.0202 -0.3722  0.0022
14494W        W33348  11.504   2.367  10.950 -0.2743  0.0659 -0.1108
14495W        W33349  16.675  16.327  12.345  0.2802  0.0144  0.3323
14496W        W33350   7.444   6.658   2.891  0.1615  0.2063  0.4420
14497W        W33351   2.780   9.626  16.150  0.3110  0.0671  0.0082
14498W        W33352   0.791  14.777   4.393  0.2697  0.1077  0.1842
14499W        W33353  17.523   0.244  12.210 -0.2793 -0.0699 -0.3475
14500W        W33354   9.870   6.438   4.249  0.2642 -0.0432 -0.3425
14501W        W33355  17.984  13.897  11.107 -0.0176 -0.1956  0.2037
14502W        W33356  11.482  13.975   4.526  0.0939  0.1846 -0.1723
14503W        W33357  10.695  16.388   2.789  0.3719  0.1565  0.0376
14504W        W33358  13.057  17.258  13.970  0.0119 -0.1122 -0.2101
14505W        W33359   8.823   7.351   0.308 -0.1804  0.1261 -0.0072
14506W        W33360   9.811  13.258  15.541  0.1746 -0.0846  0.2752
14507W        W33361  13.897   5.233   2.000 -0.0860 -0.0226 -0.2530
14508W        W33362  15.612   4.948  15.591 -0.1112  0.0017 -0.0949
14509W        W33363   6.665  13.731   3.673  0.1736 -0.0823  0.2268
14510W        W33364   3.690   4.015  12.651  0.4687 -0.1035 -0.1956
14511W        W33365  11.157   9.375  12.559  0.0259 -0.0310  0.3342
14512W        W33366  12.942  15.723  11.691 -0.2566 -0.0203  0.0879
14513W        W33367  14.788  14.104  13.217 -0.0283  0.3302 -0.3630
14514W        W33368   6.675   0.727  15.304  0.2437  0.0413 -0.0397
14515W        W33369  15.787  16.512   3.905 -0.0517  0.0936  0.0517
14516W        W33370  17.000   0.044  13.423 -0.1227 -0.3055  0.3970
14517W        W33371   6.525   4.929   4.549 -0.1402  0.1500 -0.3448
14518W        W33372  13.530   9.356  10.941 -0.0049  0.4715  0.0701
14519W        W33373   5.164   2.027   3.953 -0.1378  0.0254  0.0739
14520W        W33374   5.491   8.652  13.425  0.0736 -0.1816  0.1593
14521W        W33375  14.342  14.586   1.134  0.0559  0.0024  0.0155
14522W        W33376  12.271  16.421  12.986 -0.2615 -0.0063 -0.1047
14523W        W33377   0.780  12.680  11.731  0.2055  0.0397 -0.2282
14524W        W33378   1.156   1.725  13.329 -0.2806  0.1060  0.1739
14525W        W33379   5.983   7.079   0.719  0.0484  0.1084 -0.0936
14526W        W33380  12.605   0.944  13.582  0.0996 -0.3159  0.0532
14527W        W33381   0.528   2.343   1.980 -0.2680 -0.0051  0.0471
14528W        W33382   2.753   1.716  13.499 -0.0587  0.4341  0.2079
14529W        W33383  15.611  12.132  14.841  0.3205  0.0787  0.0126
14530W        W33384   9.646   1.122   5.102 -0.3045  0.1002  0.0111
14531W        W33385   8.111   9.193   1.005  0.1984  0.2699 -0.0813
14532W        W33386   2.440  12.610  15.033 -0.1334  0.0602 -0.1643
14533W        W33387  10.924   0.147  13.734 -0.2056  0.0610  0.0995
14534W        W33388   1.683  10.900  12.969  0.1207  0.1198 -0.1034
14535W        W33389   9.897  16.957  13.386  0.1852  0.0997  0.1450
14536W        W33390  10.435  15.839   4.336 -0.1006 -0.0650 -0.1055
14537W        W33391  12.588   1.667  15.959 -0.1486  0.1348  0.1381
14538W        W33392   9.094   9.462   4.668  0.2157  0.2502 -0.2319
14539W        W33393   4.610  15.163   0.202 -0.0469  0.2702 -0.2392
14540W        W33394   5.097   4.486  15.720  0.1806  0.2732 -0.3400
14541W        W33395   4.392  15.280   3.315 -0.1213 -0.0546 -0.3102
14542W        W33396  11.983   4.651  15.172  0.3418  0.1152 -0.0308
14543W        W33397  11.884  10.598   1.719 -0.1162 -0.0291  0.3241
14544W        W33398   2.819   5.746   3.224  0.1759  0.1796  0.0766
14545W        W33399   9.313   8.565  13.318  0.1354 -0.1744 -0.1213
14546W        W33400   8.752   7.147   5.643 -0.0513 -0.0240 -0.0723
14547W        W33401   2.682   8.734   5.065  0.0243 -0.1490  0.3259
14548W        W33402  10.609   8.626  12.138  0.0628 -0.0587 -0.1487
14549W        W33403  11.726  16.547   1.542 -0.1687 -0.1585  0.1062
14550W        W33404   6.304  17.630   2.164  0.0879  0.0297  0.1277
14551W        W33405   5.213  16.278   4.368 -0.2147  0.2643 -0.1332
14552W        W33406   0.681  11.794  11.893  0.0821 -0.1699 -0.0160
14553W        W33407   8.175  12.996  15.859 -0.0759  0.0709  0.1038
14554W        W33408   2.514  17.442  11.554 -0.1309  0.0732  0.2808
14555W        W33409   9.567  11.433  15.076 -0.3582 -0.0598  0.1205
14556W        W33410  12.293   1.917   0.588 -0.0052 -0.2170  0.0812
14557W        W33411   0.077   9.433   0.800 -0.1045  0.0322  0.0773
14558W        W33412  12.263   9.819  11.455 -0.0915 -0.4469 -0.0924
14559W        W33413   7.908   3.771   4.283  0.0575  0.1086  0.1435
14560W        W33414  13.681   2.808   2.572  0.3414  0.3917  0.1163
14561W        W33415  10.252   2.043   2.788 -0.2577  0.0215  0.1032
14562W        W33416  11.353  17.751  15.606 -0.1144 -0.0250  0.2514
14563W        W33417   3.145  12.890  14.367 -0.1207  0.2411  0.1009
14564W        W33418  17.075  15.769   0.402  0.3300 -0.1089  0.1032
14565W        W33419   8.823  14.336   0.984 -0.1629  0.3166  0.0265
14566W        W33420  12.858   6.269  13.068  0.0776 -0.0396  0.1507
14567W        W33421  10.870   1.480  15.001  0.0885  0.0904  0.1686
14568W        W33422   3.227   5.668   4.040  0.1738 -0.2206 -0.0579
14569W        W33423   9.322  11.461   0.263  0.1678  0.0883  0.0229
14570W        W33424   4.528  15.187  13.694 -0.0020 -0.0145 -0.0698
14571W        W33425   6.597   6.763  15.794 -0.1260 -0.2160  0.0007
14572W        W33426  12.754   2.075   0.649 -0.0651 -0.2154  0.1460
14573W        W33427  16.271   5.490  14.635  0.1189  0.0670 -0.0366
14574W        W33428  11.816  17.471  13.812 -0.0315  0.0531 -0.1352
14575W        W33429   0.570   7.418  15.034  0.2308 -0.0257  0.0835
14576W        W33430  16.966   6.131  12.769 -0.0272 -0.3961 -0.1370
14577W        W33431   8.620   5.220   2.934  0.3996 -0.2042 -0.0686
14578W        W33432  10.802   2.578  12.131 -0.0684 -0.1727  0.3523
14579W        W33433  11.352   9.764  12.942  0.1829  0.0052  0.2181
14580W        W33434  11.517  12.128   1.675  0.0956  0.2773  0.1241
14581W        W33435   2.433   3.716   4.220  0.0869 -0.2250  0.4533
14582W        W33436  13.760   1.584  10.793  0.1011  0.0642  0.0432
14583W        W33437   2.453   7.870  13.098  0.0975 -0.0194  0.2249
14584W        W33438   5.061  12.203  14.460  0.2722  0.1763 -0.1029
14585W        W33439  12.567   8.662   4.780 -0.0014  0.0265 -0.0784
14586W        W33440  15.148  15.093   0.793 -0.0370  0.0161 -0.1421
14587W        W33441  12.577   8.773  13.766 -0.3377  0.1256  0.1031
14588W        W33442  15.956  16.435  13.565 -0.1620  0.0076 -0.0774
14589W        W33443  14.045   1.805  14.180  0.0736 -0.1242 -0.1370
14590W        W33444   6.260   8.651   4.474  0.0208 -0.0713  0.0518
14591W        W33445   0.399  12.497   0.747 -0.1072 -0.0373  0.2418
14592W        W33446  13.078   2.194   4.403 -0.0288 -0.3695  0.1671
14593W        W33447  12.855  17.115   3.496  0.1016  0.2701  0.0399
14594W        W33448  11.891   7.388  15.846 -0.0914  0.3099 -0.0841
14595W        W33449   9.838   1.748  14.463 -0.1050  0.0942 -0.1030
14596W        W33450   6.948   5.661  15.070 -0.1487 -0.0998  0.0989
14597W        W33451  11.680  17.810  15.129  0.1164 -0.1301  0.2277
14598W        W33452  13.632  10.608   2.426  0.0984  0.0123  0.0131
14599W        W33453  15.138   2.990   2.282  0.1685  0.0598  0.1541
14600W        W33454  17.963  12.640   0.988  0.1367 -0.1270 -0.3893
14601W        W33455   9.222   6.262  12.107  0.0079  0.1346 -0.3021
14602W        W33456   4.728  15.175  11.425 -0.2847  0.1364 -0.0426
14603W        W33457  14.563   1.211  13.100  0.0645 -0.1561  0.0034
14604W        W33458   3.280   7.965  12.016  0.1725 -0.2002  0.1865
14605W        W33459   4.576   3.083  14.841  0.0858  0.1647 -0.2513
14606W        W33460   7.450   8.897  15.517  0.1058  0.0160  0.1869
14607W        W33461  13.367  11.542  15.765  0.1456 -0.0912 -0.4153
14608W        W33462   6.307  10.953   3.265  0.0542  0.0896 -0.0744
14609W        W33463   7.047  11.651   0.344  0.1930  0.3617  0.2334
14610W        W33464  11.076   1.980  13.778 -0.1751 -0.0497 -0.1495
14611W        W33465  11.155   3.178  13.968  0.0600 -0.2099  0.2884
14612W        W33466  17.809   6.607  10.718  0.3061 -0.3539  0.4529
14613W        W33467  13.738  14.684   3.889  0.2057 -0.0243 -0.1083
14614W        W33468   9.399  17.277   4.370  0.2220 -0.1428 -0.0910
14615W        W33469  12.890  10.623   5.427 -0.1233  0.2679 -0.3418
14616W        W33470   2.546  17.119   6.074 -0.0549 -0.1638 -0.0773
14617W        W33471   4.638  12.278  13.239  0.0959 -0.2169 -0.1248
14618W        W33472   0.567   0.784  16.020 -0.3604  0.0237  0.0190
14619W        W33473  17.908  14.985   1.392  0.1093 -0.0192 -0.0485
14620W        W33474  14.863   0.183  14.478  0.1758 -0.0535 -0.0903
14621W        W33475  13.724  13.498   0.023 -0.2516 -0.0782  0.0769
14622W        W33476  14.503   3.663  10.422 -0.0920 -0.1601 -0.2147
14623W        W33477   5.376  11.918   0.047 -0.1511  0.0658 -0.0607
14624W        W33478   3.320  12.843   2.618 -0.0104 -0.0055  0.0234
14625W        W33479   4.384  14.277  13.232  0.1370 -0.0825  0.1040
14626W        W33480   5.732   4.251  15.701 -0.1580  0.1407 -0.1497
14627W        W33481  17.396   5.111  15.602 -0.2075 -0.1505 -0.3044
14628W        W33482  16.610   6.113   0.147  0.4417  0.0964 -0.2044
14629W        W33483   7.052  12.636  14.369  0.1462  0.0307  0.1966
14630W        W33484  17.924   6.856   1.211  0.1628  0.1590 -0.0620
14631W        W33485   3.411  17.020  14.368  0.2215 -0.1104 -0.0402
14632W        W33486  14.702   9.420   1.577 -0.0884 -0.0526  0.2651
14633W        W33487  12.277   5.571   0.174 -0.2409  0.1712 -0.0254
14634W        W33488  11.431   9.709  15.996 -0.1779 -0.0704  0.0291
14635W        W33489  13.544   8.713  14.017 -0.1509  0.1466 -0.0016
14636W        W33490   2.600  14.022   2.689 -0.1684  0.0206 -0.1877
14637W        W33491  10.746   7.142   0.107 -0.1687  0.1816 -0.5755
14638W        W33492  12.014  11.235   3.399 -0.0052 -0.1050  0.0974
14639W        W33493   5.668  16.909   0.357  0.0741  0.0417 -0.1262
14640W        W33494  13.645  17.673   3.510 -0.3895 -0.0544 -0.1126
14641W        W33495  10.374   6.643   2.464 -0.2360 -0.0763  0.1542
14642W        W33496  17.586   0.586  15.314  0.4022  0.0230  0.3620
14643W        W33497   9.073   1.367  13.549 -0.1533 -0.1268 -0.1719
14644W        W33498  17.842   8.595  11.681  0.0596  0.0606  0.2123
14645W        W33499   7.684   7.147   3.702 -0.0322 -0.1164 -0.0460
14646W        W33500   1.490   4.683  12.757 -0.0013  0.0996  0.0245
14647W        W33501   9.016   3.793   3.328  0.0961  0.3632 -0.0263
14648W        W33502  10.092  15.172  15.816  0.0807 -0.2569 -0.3279
14649W        W33503  10.303  17.444   3.331  0.0492 -0.1492  0.1644
14650W        W33504   4.125   2.215   5.698 -0.0671  0.1967  0.1342
14651W        W33505  15.850   6.096  15.682  0.2797 -0.1675 -0.0721
14652W        W33506   4.209   7.517   2.440  0.0058  0.0092  0.2934
14653W        W33507   1.093  12.129   3.474  0.0103 -0.0840 -0.1161
14654W        W33508  11.605   9.605   3.842 -0.1120  0.0551  0.1930
14655W        W33509   7.665   1.676   3.952 -0.0381 -0.1098  0.0963
14656W        W33510   0.554  15.664  12.360  0.0413  0.0861  0.1387
14657W        W33511   8.393  17.998   3.543  0.0581  0.0955  0.2109
14658W        W33512   0.282   6.411  12.395  0.1497 -0.1195 -0.2282
14659W        W33513   0.259  17.311   0.908  0.0060  0.1001  0.1824
14660W        W33514   0.826  12.345  13.686 -0.2706 -0.1634 -0.0025
14661W        W33515   7.735  14.694  10.534  0.2152 -0.1690  0.2783
14662W        W33516   0.557  17.136   4.237 -0.0369 -0.0833  0.1427
14663W        W33517  15.320  11.348   3.416 -0.0166 -0.2803  0.2637
14664W        W33518  14.154   8.878  14.151  0.4361 -0.1752 -0.2202
14665W        W33519   8.379   9.985   0.864 -0.0165 -0.2450 -0.1081
14666W        W33520   5.189  15.510   3.538  0.1606 -0.1456 -0.1953
14667W        W33521   1.551   8.486  15.993 -0.0447  0.0638 -0.2148
14668W        W33522   0.620  10.010   3.597 -0.1198  0.1618  0.0322
14669W        W33523   4.126   8.878   1.055 -0.0417  0.0187  0.1459
14670W        W33524   0.683  15.879   1.807 -0.1432  0.0802  0.0476
14671W        W33525   3.377  13.069  12.474  0.0839  0.0993 -0.2567
14672W        W33526  12.081  15.543  14.917 -0.0978  0.0073 -0.2337
14673W        W33527   2.530   2.404   2.640 -0.1856  0.0830  0.2182
14674W        W33528  15.468   4.007   2.602  0.0886 -0.1324  0.0057
14675W        W33529   6.584  12.236   1.966  0.0035 -0.1541 -0.0221
14676W        W33530  17.380  10.935  15.988  0.0024  0.1065 -0.0456
14677W        W33531  17.612   4.401  12.950 -0.0540 -0.0743 -0.0334
14678W        W33532   6.812  10.553   1.162  0.0721  0.1988 -0.2143
14679W        W33533  12.271   1.570   0.151 -0.1185  0.0126  0.1312
14680W        W33534   6.289  14.618   3.342 -0.1960 -0.2477 -0.2565
14681W        W33535  17.870  16.687  13.164 -0.2666 -0.0261  0.1694
14682W        W33536  11.730  16.351   0.327  0.0179 -0.2292  0.0790
14683W        W33537  12.903   4.834   1.115 -0.1341 -0.1889 -0.0805
14684W        W33538   7.614   3.727  12.364 -0.0384  0.1837 -0.1508
14685W        W33539   4.703  11.836  16.044  0.1431 -0.3102 -0.0038
14686W        W33540   5.462   5.486  14.996 -0.0828  0.1905  0.0525
14687W        W33541  12.779  13.135  13.103  0.1042  0.0659  0.0235
14688W        W33542  12.413   5.552   1.651 -0.0107  0.0134 -0.1966
14689W        W33543   3.656   3.617   2.387  0.2456 -0.0975  0.0511
14690W        W33544   7.158  13.106  12.577  0.1425 -0.0895 -0.3264
14691W        W33545   6.025   3.422   3.833 -0.1017 -0.2882  0.0933
14692W        W33546   0.306  13.848  15.645  0.0493 -0.1203 -0.1704
14693W        W33547  15.123  12.253  14.440  0.0067 -0.2901  0.0090
14694W        W33548  10.510   1.495   5.028  0.0835 -0.0343  0.0321
14695W        W33549   3.070  10.413   4.482  0.4323 -0.0351  0.2335
14696W        W33550   5.747   5.585  13.827 -0.0222  0.1732  0.0395
14697W        W33551   6.808  16.181  15.287  0.1496 -0.0026  0.1374
14698W        W33552   5.380   9.985   2.091 -0.0872 -0.0628 -0.1565
14699W        W33553  11.583  16.497  12.358  0.0152  0.1261  0.0212
14700W        W33554   2.240   4.647   0.126  0.0840  0.1338  0.1117
14701W        W33555   6.219  15.079  12.886 -0.0990 -0.2088 -0.1188
14702W        W33556  13.989  17.469   5.273  0.0512  0.1176  0.0641
14703W        W33557   5.904   1.025   2.683  0.1792  0.2888  0.2902
14704W        W33558  13.057   2.708  12.767 -0.2586 -0.1156  0.3269
14705W        W33559   2.911   4.818   2.604 -0.2061  0.1708 -0.2607
14706W        W33560   4.974   2.556   2.507 -0.2185  0.1946  0.2250
14707W        W33561   5.061  14.954   1.234 -0.1687  0.1476  0.0930
14708W        W33562  10.262   0.787  12.193 -0.0616  0.1525  0.0044
14709W        W33563   2.253  12.185  15.357 -0.0752 -0.0170  0.2358
14710W        W33564   7.133   8.212   1.133  0.0849  0.0794 -0.0821
14711W        W33565   7.472  16.764   4.431 -0.0994 -0.1102  0.0124
14712W        W33566   5.057  10.808  14.784  0.0627 -0.1128 -0.0952
14713W        W33567  12.039   1.206  12.443 -0.2232  0.4147 -0.1151
14714W        W33568  17.524   2.159   0.158 -0.2190  0.2367  0.0118
14715W        W33569   1.245  13.939  13.400 -0.0102  0.2620  0.0918
14716W        W33570  14.730  13.177   0.064 -0.0464 -0.3772  0.0576
14717W        W33571   2.888   1.245  12.987  0.1505  0.0782  0.0548
14718W        W33572  14.850   3.552   4.281 -0.0868  0.0580 -0.1741
14719W        W33573   8.648   2.153   2.320 -0.0102 -0.3436  0.0532
14720W        W33574   0.193  15.341   3.980  0.1147 -0.1822  0.4057
14721W        W33575  13.913  11.291   4.322  0.2366  0.0630  0.0893
14722W        W33576  17.635  13.766  10.809 -0.0265 -0.0556  0.0450
14723W        W33577   7.207   4.379  16.205  0.2262  0.1702 -0.1083
14724W        W33578   8.645   7.793  14.235  0.3148 -0.0803  0.1340
14725W        W33579  12.577   8.440   3.545 -0.1860 -0.3743 -0.2641
14726W        W33580  14.655   0.062   2.091 -0.1048  0.2658  0.0537
14727W        W33581  17.782  14.135   3.691  0.1286 -0.0270  0.0663
14728W        W33582  10.009  16.610   4.062  0.1032  0.0419  0.1114
14729W        W33583   5.849   1.535   2.809  0.1281  0.0521 -0.1378
14730W        W33584  13.729   0.054   4.157 -0.1255  0.3649 -0.2809
14731W        W33585  11.434   4.556   2.680 -0.2181 -0.1620  0.1284
14732W        W33586  13.811   7.229  13.728 -0.1842 -0.2593 -0.1650
14733W        W33587   7.718  14.604   3.725  0.1502  0.0540 -0.1061
14734W        W33588   3.903   7.497  11.481  0.0376 -0.0851  0.1154
14735W        W33589  14.571  10.750   2.605 -0.0865  0.4108 -0.1225
14736W        W33590  15.456  17.969  14.039  0.0847 -0.0952  0.3960
14737W        W33591   5.958   1.990  11.635 -0.1800 -0.0285 -0.1610
14738W        W33592   2.108  13.965  11.747  0.5096  0.1491 -0.0689
14739W        W33593   4.394  16.027  12.475  0.2430  0.0527 -0.0233
14740W        W33594   1.319  13.115  12.398  0.0874 -0.1621  0.0464
14741W        W33595  16.107   6.593   2.732  0.0317 -0.0594 -0.3621
14742W        W33596   8.198   0.937   2.505  0.1875  0.1489 -0.0016
14743W        W33597  17.297  16.637   3.111 -0.0047  0.0241  0.3643
14744W        W33598  12.764  16.188   1.077  0.0719 -0.0291  0.1415
14745W        W33599  11.351  15.064  14.637  0.1624 -0.0747  0.1102
14746W        W33600   1.287   0.429   2.613 -0.1513 -0.0014 -0.1368
14747W        W33601  14.636   4.502  15.182  0.2255  0.1609  0.0050
14748W        W33602  10.993  16.927  12.572  0.1888  0.2454 -0.2145
14749W        W33603   3.240   5.264   1.433  0.0259 -0.0355  0.1975
14750W        W33604  17.445   1.525   3.019 -0.1315  0.0869  0.1923
14751W        W33605   7.453  12.965   0.588 -0.4439 -0.0628  0.1657
14752W        W33606   2.630   1.358   0.604 -0.0825  0.0943 -0.0853
14753W        W33607   4.553   6.225  13.112 -0.0901  0.0025  0.2042
14754W        W33608   2.083  16.915   0.290  0.1474  0.0542 -0.0336
14755W        W33609   9.487   9.347  14.947  0.0943 -0.4405  0.5247
14756W        W33610   6.361  12.515  10.353 -0.3204  0.0195 -0.2047
14757W        W33611  13.437  10.061   2.424 -0.2408 -0.2016 -0.3452
14758W        W33612  14.986  15.873   3.840 -0.2279  0.1902  0.1769
14759W        W33613   2.500   4.361  13.834  0.1487  0.0410 -0.0078
14760W        W33614  15.993  12.312   2.183  0.0237  0.1225  0.1215
14761W        W33615  11.170   0.952   0.440 -0.0299 -0.0724  0.0828
14762W        W33616  17.245  11.565  15.317 -0.0031  0.0441 -0.0753
14763W        W33617   1.656   2.316   3.996 -0.0187  0.0975  0.2364
14764W        W33618  10.234   2.602   2.541 -0.2097  0.1626 -0.2784
14765W        W33619  15.737  14.652   2.024 -0.2010 -0.0692 -0.1438
14766W        W33620   4.049   3.731  14.709 -0.4390 -0.3396 -0.0756
14767W        W33621   9.381   2.208  13.998  0.1113  0.0169  0.0798
14768W        W33622  11.039  11.507  13.015 -0.1212 -0.1357 -0.0992
14769W        W33623  15.276   2.223   0.960  0.0965 -0.0029 -0.1822
14770W        W33624   8.620  16.774  14.388 -0.1838 -0.2558 -0.0468
14771W        W33625  15.169   9.055  12.250 -0.2025 -0.2504 -0.1198
14772W        W33626   6.919   7.295   0.196 -0.0030 -0.2756  0.1556
14773W        W33627  16.758  16.978   0.474  0.1569  0.0045 -0.0792
14774W        W33628   8.164  13.403  11.599  0.0196  0.2908 -0.2415
14775W        W33629  11.711  14.492   3.723  0.0974 -0.1604  0.4177
14776W        W33630   4.287  17.636  12.309 -0.3783  0.0067 -0.0367
14777W        W33631  10.349   8.254   3.695  0.2648 -0.0727  0.0891
14778W        W33632  14.191   4.839   2.108 -0.0452  0.2185 -0.0016
14779W        W33633   4.666   8.002  14.765 -0.3065 -0.1038 -0.0835
14780W        W33634  10.748  14.341   5.639  0.2715 -0.0946 -0.1103
14781W        W33635   6.496   2.958  15.747  0.1477  0.0062 -0.6546
14782W        W33636  12.960  11.368   2.296 -0.1097 -0.2775  0.0812
14783W        W33637   1.035   5.864   3.160  0.3919  0.4023 -0.1465
14784W        W33638   4.543   5.134  14.350  0.2036  0.2483 -0.1107
14785W        W33639   4.894  14.998   2.527  0.0637  0.1483 -0.0629
14786W        W33640  13.723   5.492   1.262  0.2910 -0.0391 -0.0154
14787W        W33641   0.153   2.273   4.558  0.2051 -0.1091 -0.4206
14788W        W33642   6.540   9.463  15.325 -0.3095  0.2733  0.2291
14789W        W33643   6.054   6.593   0.620  0.1451  0.1896  0.0028
14790W        W33644  10.745  17.620   2.165 -0.0396 -0.0714  0.4754
14791W        W33645  13.114   6.668   1.983 -0.1714  0.1634  0.1712
14792W        W33646  16.801  14.441  11.495  0.1951  0.0716 -0.0003
14793W        W33647   3.552   2.015   1.638  0.0418  0.4952  0.0203
14794W        W33648  13.360   5.297  12.139 -0.1162  0.4421  0.0487
14795W        W33649  14.410  11.562  14.298 -0.0942  0.1399  0.0184
14796W        W33650   8.397  17.891   2.066  0.1260 -0.0018 -0.2857
14797W        W33651   0.964   5.297  15.470 -0.0535  0.4788  0.1423
14798W        W33652  13.081   0.343   2.437 -0.2109  0.1773 -0.2214
14799W        W33653   3.631  17.839  12.699 -0.0197  0.0168 -0.0351
14800W        W33654   4.917   8.774  13.840  0.0331 -0.1684  0.5463
14801W        W33655  14.209  17.584  12.112  0.0699  0.0254 -0.1755
14802W        W33656  15.438  17.306   2.154  0.1456 -0.0898 -0.2712
14803W        W33657   7.567   5.384   1.688 -0.2344 -0.0979  0.1970
14804W        W33658   4.295   9.956  10.215 -0.0448 -0.0359 -0.1820
14805W        W33659   2.517   4.048  11.765 -0.1015  0.2772  0.0556
14806W        W33660   0.826   8.449   3.387 -0.0271  0.1463  0.2380
14807W        W33661   8.601   3.547  10.872 -0.0100 -0.0006  0.3425
14808W        W33662  12.836  14.235  13.550  0.0518  0.2698 -0.2326
14809W        W33663  14.509   7.879  16.166  0.1290 -0.0834 -0.1270
14810W        W33664   9.353   9.603   3.431 -0.0399 -0.0368 -0.1322
14811W        W33665  12.295   1.469  12.000  0.0164 -0.0669  0.1248
14812W        W33666   4.818   9.937  14.392  0.1399 -0.0933 -0.0280
14813W        W33667   3.197  16.973   1.136 -0.1565 -0.1921 -0.2499
14814W        W33668  17.623   6.681   3.138 -0.0250  0.0403 -0.0350
14815W        W33669   9.849  14.793  12.134  0.0433  0.1554 -0.0118
14816W        W33670   4.010  11.972   0.839 -0.0531  0.0572 -0.0404
14817W        W33671  15.339  16.929  12.392 -0.2257 -0.0250 -0.2465
14818W        W33672  13.006  15.365  12.060  0.2817 -0.4050 -0.1584
14819W        W33673   8.479   3.177  11.858 -0.1623 -0.1400  0.0420
14820W        W33674  17.528   9.507  12.342  0.2760  0.1145 -0.2569
14821W        W33675  17.054  15.223   2.111 -0.2049  0.0111 -0.3061
14822W        W33676   9.518   1.292   2.705 -0.3244 -0.2197 -0.1260
14823W        W33677   4.331   3.873  13.276  0.0519  0.1306 -0.3413
14824W        W33678  15.505   3.072   0.195  0.0879 -0.1511 -0.1029
14825W        W33679  16.785   3.162   2.339  0.0577  0.3436  0.0673
14826W        W33680  14.874  14.471   2.949  0.0492  0.1085 -0.1104
14827W        W33681   1.633  10.504  11.595 -0.2022 -0.3072 -0.1206
14828W        W33682   8.528  17.008   5.191  0.0614 -0.2478 -0.1297
14829W        W33683   1.743   1.824   3.884  0.2798 -0.0698 -0.2153
14830W        W33684  16.606   6.309  15.028  0.1755  0.3129 -0.1100
14831W        W33685   7.820  11.958  15.433 -0.3110 -0.1933  0.2119
14832W        W33686   8.663   6.339  12.095  0.0887 -0.1194  0.2220
14833W        W33687   7.972   4.386  13.457  0.1808 -0.0464  0.3742
14834W        W33688   9.740  17.772   2.094 -0.0217  0.1246  0.0280
14835W        W33689   0.395  13.255  12.638 -0.2200  0.3378  0.0373
14836W        W33690  16.561  13.149  13.618  0.0863 -0.1268 -0.1724
14837W        W33691   5.123  17.706  13.573 -0.0930 -0.3138  0.0614
14838W        W33692  17.195  10.238  12.549 -0.1643 -0.2686 -0.1336
14839W        W33693  17.277   2.749   3.641 -0.1124  0.1639  0.1164
14840W        W33694  10.013   7.322   0.857 -0.0416 -0.1451 -0.1320
14841W        W33695   5.753   6.742   4.351 -0.3210  0.0550  0.2846
14842W        W33696   2.337   0.144   1.681 -0.2991  0.2567 -0.0413
14843W        W33697  17.920  17.561   0.322 -0.1208 -0.1789 -0.1867
14844W        W33698   5.371  12.145   4.139  0.0222 -0.0974 -0.0382
14845W        W33699  16.101   4.310  14.014  0.4512 -0.0258  0.4618
14846W        W33700   8.620   4.603   2.047  0.0320  0.0770  0.3187
14847W        W33701  17.628   9.198   0.505 -0.0642  0.3763  0.1397
14848W        W33702  13.617   0.892   2.011 -0.0809  0.1028  0.0719
14849W        W33703   4.103   3.765  14.138 -0.0925 -0.0519 -0.1186
14850W        W33704  13.465   2.083  13.805 -0.4635  0.0382  0.1202
14851W        W33705  15.950   5.347  15.040 -0.0262 -0.0900 -0.0125
14852W        W33706   3.211  10.430   1.786  0.0775  0.1702  0.0644
14853W        W33707  15.934  14.951   4.269 -0.0520 -0.0058 -0.1279
14854W        W33708   3.623  18.014   0.140  0.1917  0.2280 -0.0543
14855W        W33709   6.822   9.417  10.042 -0.0276  0.0415 -0.1283
14856W        W33710  13.055  17.308  15.124  0.0971  0.0420  0.3024
14857W        W33711  10.883  11.094  14.608 -0.2045  0.1653 -0.3110
14858W        W33712   9.165   3.249  12.573 -0.1574 -0.0069  0.0683
14859W        W33713  16.828   1.791   1.400 -0.2362 -0.0750 -0.1408
14860W        W33714   4.024   0.020  13.053 -0.0253  0.2071  0.0159
14861W        W33715   2.064   1.425   4.566 -0.1435 -0.0758 -0.1731
14862W        W33716   1.590   5.284  12.605  0.0011  0.1056 -0.0398
14863W        W33717   2.762   0.887  13.293 -0.0101  0.0679 -0.0083
14864W        W33718   5.783   0.397  14.530 -0.0531 -0.0774  0.0808
14865W        W33719   1.874  13.482  14.377  0.1402  0.0550  0.0517
14866W        W33720   2.279  13.399  10.602  0.0277 -0.1298 -0.2270
14867W        W33721   9.635   6.363   1.191  0.1336 -0.2554 -0.1495
14868W        W33722   6.531   7.160   1.254 -0.0699  0.0478  0.4123
14869W        W33723   9.326   5.671  15.626 -0.3453  0.0712 -0.0755
14870W        W33724  11.645  15.134  15.102 -0.0936  0.1523 -0.1511
14871W        W33725   0.919  13.823  14.782  0.1797 -0.1927  0.1691
14872W        W33726  11.609   7.821  14.319  0.0335 -0.1448 -0.0624
14873W        W33727  15.528   4.005   0.688  0.3136  0.1672 -0.1799
14874W        W33728   4.227   6.861   4.028  0.1213  0.1629  0.0102
14875W        W33729  12.368  13.187  12.130  0.2742  0.0076 -0.0206
14876W        W33730  16.397  13.986  15.582  0.0488 -0.1110 -0.2351
14877W        W33731   0.168   3.169  13.454  0.0056 -0.0560 -0.0500
14878W        W33732   4.664   5.768  13.331 -0.0490 -0.2541 -0.0582
14879W        W33733   7.577   2.524  15.416 -0.2133 -0.0501  0.1556
14880W        W33734  13.440   2.467  12.529 -0.1507  0.2095  0.0563
14881W        W33735   5.336   6.731   4.751  0.1103  0.2846 -0.1622
14882W        W33736   8.285   8.867  12.401  0.1646  0.1483  0.4605
14883W        W33737  12.612  13.009   2.142 -0.0299 -0.1472  0.0996
14884W        W33738   6.374  12.755   3.684  0.0762 -0.2398 -0.3025
14885W        W33739  17.593  11.132  11.622 -0.0386  0.0041  0.0611
14886W        W33740  14.996  10.912   3.765 -0.0651 -0.0475 -0.0026
14887W        W33741   6.387   9.987   2.230  0.1712 -0.0176  0.2204
14888W        W33742   5.363   7.732   3.635 -0.2371 -0.0409 -0.1029
14889W        W33743   2.931  14.253   1.941  0.2301 -0.0211  0.0356
14890W        W33744  10.093  15.749  16.040  0.1044 -0.3172 -0.0154
14891W        W33745  12.976   1.869  14.974 -0.3721  0.0777 -0.2663
14892W        W33746   7.826   1.997   1.655  0.0444  0.3647 -0.2638
14893W        W33747  13.546  10.268  15.606 -0.2160  0.1742  0.1715
14894W        W33748  12.446  16.128   1.916  0.1242 -0.3557 -0.1205
14895W        W33749  12.196  12.307   0.479  0.1744  0.1875 -0.2624
14896W        W33750   2.549  16.276   5.794  0.1796  0.0345 -0.1611
14897W        W33751  14.600  16.243  13.664 -0.2761  0.0096 -0.0633
14898W        W33752  14.428  17.333   5.109 -0.0415 -0.0578  0.1669
14899W        W33753   4.722   9.054   4.330 -0.1536  0.1307 -0.2588
14900W        W33754  11.698   4.891  14.347  0.0487  0.2191 -0.0105
14901W        W33755   2.569   1.267  11.546 -0.0670  0.0259 -0.1181
14902W        W33756  12.809   1.412   2.984  0.0097 -0.1239 -0.1223
14903W        W33757   8.500   2.251  15.597 -0.1357  0.0092  0.1749
14904W        W33758   1.009   9.600   0.026 -0.0474 -0.0161 -0.3349
14905W        W33759   3.183   3.330   2.877  0.4225 -0.0540 -0.1371
14906W        W33760   4.260  11.730  15.668 -0.0656  0.0439  0.2433
14907W        W33761   5.153  16.811   4.134 -0.0045  0.0126  0.1617
14908W        W33762  11.202  17.380   1.460  0.2459  0.0574  0.0586
14909W        W33763  11.707   0.729  13.456  0.3097 -0.1622 -0.1994
14910W        W33764   4.000   6.478  14.737 -0.0145  0.2314 -0.1016
14911W        W33765   3.043   1.369  14.118 -0.1914 -0.4423 -0.1256
14912W        W33766   0.089  12.978  15.319 -0.1341 -0.1667 -0.0869
14913W        W33767  17.892   0.686   4.726 -0.0538 -0.0132 -0.0509
14914W        W33768   5.001   2.962  13.423 -0.0247 -0.1815  0.3104
14915W        W33769   6.784   3.714   3.344 -0.2638  0.0620  0.0709
14916W        W33770   7.741  16.030   4.026  0.2336 -0.2702  0.2296
14917W        W33771   6.335  11.335   2.392 -0.1796  0.1530  0.3094
14918W        W33772   8.707  12.716   1.675 -0.0532  0.0311  0.1081
14919W        W33773   8.569   1.851   4.839  0.2654 -0.2944  0.3240
14920W        W33774   2.345  10.263  14.145  0.1175 -0.1035 -0.0471
14921W        W33775   2.093   7.854  14.128 -0.0306 -0.3317 -0.0588
14922W        W33776   0.833   8.113   0.381  0.0553 -0.0359  0.0506
14923W        W33777  16.650  16.501   1.827  0.3190  0.2557 -0.0764
14924W        W33778   2.745   7.536  15.779  0.1114 -0.0198  0.2526
14925W        W33779   9.535   0.152  12.849 -0.0625 -0.0594  0.0383
14926W        W33780   3.873  10.563   4.564  0.2773 -0.2698  0.0023
14927W        W33781   8.519   6.573  11.641  0.3038  0.4382 -0.1715
14928W        W33782  17.045  15.204  15.101 -0.1570 -0.0464 -0.0098
14929W        W33783   7.687   5.794   2.001  0.1180 -0.0388 -0.0594
14930W        W33784   2.568   6.026  15.033  0.0370  0.0412 -0.1246
14931W        W33785   0.185  14.197  13.039  0.0678  0.0095 -0.0553
14932W        W33786   3.453  12.793   3.106 -0.2021 -0.0767 -0.0682
14933W        W33787   7.153  10.224   0.870  0.0888  0.2706  0.0487
14934W        W33788  17.944   6.999   0.176  0.1378  0.0768 -0.2172
14935W        W33789  16.472   9.394  10.922  0.2743  0.1158  0.3797
14936W        W33790   0.558   7.395   3.818  0.1729 -0.0699 -0.1338
14937W        W33791   8.598   9.362  12.977  0.0196  0.2635  0.1767
14938W        W33792   5.251   0.369  11.860  0.0813  0.0133  0.1306
14939W        W33793   5.990  17.441   4.475 -0.0879  0.0814 -0.0587
14940W        W33794   2.524   6.845  13.589 -0.0406 -0.1409 -0.0837
14941W        W33795  10.537   4.205  10.735  0.0767 -0.2240 -0.3352
14942W        W33796   6.550  13.180   0.712 -0.3697  0.0701  0.0054
14943W        W33797  16.850   7.871  10.866 -0.8042  0.1887  0.0579
14944W        W33798   0.976  11.683   5.765  0.4400  0.0014 -0.2690
14945W        W33799   0.170  10.920   4.862 -0.0468 -0.0432  0.0543
14946W        W33800   3.459   1.921  11.870 -0.0123  0.0833 -0.1030
14947W        W33801  17.660   8.473   2.661 -0.2986  0.1908 -0.2372
14948W        W33802  17.410  16.125   1.907 -0.1577 -0.2353  0.0530
14949W        W33803   4.877  17.821   2.356 -0.0171  0.2128  0.2303
14950W        W33804   4.692  13.911  12.196 -0.2305 -0.1113  0.2389
14951W        W33805  11.451  10.188   0.911  0.2270  0.2353 -0.4006
14952W        W33806   0.948  17.941   3.515 -0.0028 -0.1498  0.0623
14953W        W33807  10.064   5.585  12.693 -0.2420 -0.1939  0.0374
14954W        W33808  13.782   2.825  12.247  0.0529 -0.1069 -0.0889
14955W        W33809   2.735  16.288   2.745  0.2129 -0.2131 -0.0756
14956W        W33810  16.720  10.585  12.476 -0.0591  0.1014  0.0810
14957W        W33811  11.108   5.469   0.684 -0.1528 -0.1081  0.0013
14958W        W33812   8.053  15.171   2.842  0.4602 -0.2429 -0.2311
14959W        W33813   3.220   3.601  12.317  0.2808  0.0801 -0.0244
14960W        W33814   7.584   2.882   1.740  0.1635  0.4126 -0.0275
14961W        W33815   2.270   6.781   0.008  0.2054 -0.2103  0.0242
14962W        W33816   1.802   0.970  16.002 -0.1955  0.1151 -0.0882
14963W        W33817   7.040   1.592   2.725  0.1377 -0.0664 -0.4281
14964W        W33818  12.279   6.114  11.924  0.1196  0.2068  0.0710
14965W        W33819  12.260   5.400  14.992  0.1717  0.1865 -0.2848
14966W        W33820  17.095   6.788  13.502  0.1270 -0.5067  0.1948
14967W        W33821   8.542  10.859   5.079  0.3089 -0.1765 -0.1129
14968W        W33822   6.656   6.455  14.103  0.2495  0.0346  0.0897
14969W        W33823   4.781   3.280  12.669  0.0096 -0.1813 -0.1800
14970W        W33824   4.453   9.189   0.712  0.0139 -0.0486  0.1680
14971W        W33825  14.766  11.573  12.636  0.0727  0.0684  0.2982
14972W        W33826   8.194   9.238  13.205 -0.0714 -0.0022  0.1179
14973W        W33827  15.138  12.484   4.375 -0.1491 -0.4081 -0.3621
14974W        W33828  14.737  11.938  15.215 -0.1412  0.0206  0.3750
14975W        W33829   5.067   2.140   2.110 -0.1204 -0.0577  0.0935
14976W        W33830   4.017  13.064   3.222  0.0916  0.0605 -0.0471
14977W        W33831  11.739   4.539   3.750 -0.2333  0.0792 -0.3475
14978W        W33832   2.177   6.303   0.006 -0.1438  0.0164 -0.0976
14979W        W33833  17.322   0.741  14.072  0.0645 -0.0784 -0.0243
14980W        W33834  14.190  13.429   3.599 -0.1235  0.0690 -0.0394
14981W        W33835   5.729   3.809   4.008  0.0673 -0.1242  0.5241
14982W        W33836   6.284   9.872   0.871 -0.3408  0.1243 -0.1034
14983W        W33837  11.704  17.228   1.654  0.0831 -0.2201 -0.0787
14984W        W33838   4.450  12.267   2.117 -0.2758  0.1710  0.0481
14985W        W33839   1.560  15.180  15.650 -0.2342 -0.0721 -0.1471
14986W        W33840  15.940  12.966   5.366  0.1622 -0.2175  0.1527
14987W        W33841  14.549   5.338   1.466 -0.0527 -0.0663 -0.1187
14988W        W33842   4.105  17.389   0.392 -0.3582 -0.4512  0.2293
14989W        W33843  13.957  11.860  15.065  0.1819 -0.2575  0.0506
14990W        W33844  12.775  11.528  13.318  0.4283  0.1393  0.0325
14991W        W33845   7.506   4.481   0.420 -0.2542 -0.0409 -0.0343
14992W        W33846   4.498  15.341  15.496  0.3562 -0.0056 -0.1258
14993W        W33847   9.786  13.600  11.903 -0.2025  0.1447 -0.0737
14994W        W33848   0.625  16.821   2.018  0.1186 -0.1096  0.0378
14995W        W33849   1.974  16.812   2.054  0.0333  0.1112  0.3433
14996W        W33850   3.924   7.607  15.928  0.3424  0.0405 -0.0250
14997W        W33851  15.021  13.588  13.035 -0.0106  0.3116  0.2176
14998W        W33852  16.556  17.365  12.540 -0.1947 -0.0308 -0.0097
14999W        W33853  13.573  12.167  13.349  0.1125  0.3574  0.0718
15000W        W33854   5.270   9.729   0.852 -0.0494  0.4187  0.1678
15001W        W33855   9.170  13.648   5.095 -0.0522  0.1296  0.0374
15002W        W33856  14.298   3.022  12.322 -0.2239  0.0564  0.2163
15003W        W33857  16.074  15.175   5.009  0.0258  0.3049 -0.0908
15004W        W33858  15.650  11.723  15.091 -0.3283  0.3717  0.1463
15005W        W33859   6.271   7.453  12.144 -0.1799  0.0881  0.1688
15006W        W33860   1.115   0.197  14.814 -0.2059  0.3571 -0.0369
15007W        W33861   4.984  17.212   1.112 -0.1196  0.1694 -0.0483
15008W        W33862   1.453  11.115  11.764 -0.3261  0.3018 -0.1327
15009W        W33863   1.495  14.522  15.242  0.0425  0.0387 -0.0007
15010W        W33864  10.735  12.073  11.618 -0.1664  0.0230  0.2434
15011W        W33865  14.948   7.565   3.491  0.0743  0.0929  0.3547
15012W        W33866   9.846   7.318   2.617  0.4638  0.0224 -0.0947
15013W        W33867  16.081   4.212   2.587 -0.0980  0.0536 -0.1495
15014W        W33868   4.777   7.748   3.035  0.4951  0.3012  0.0377
15015W        W33869  13.471   9.796   0.199 -0.0487 -0.0726  0.0223
15016W        W33870  16.618   3.076  14.409 -0.1776 -0.1163 -0.0650
15017W        W33871  12.438   6.460  12.298  0.1664 -0.1616  0.0753
15018W        W33872   7.405  14.745  16.206 -0.3166  0.0148  0.0152
15019W        W33873  12.291   4.943  14.130  0.0920 -0.2069  0.1872
15020W        W33874  12.685   9.720  15.797  0.2219  0.0753 -0.1524
15021W        W33875  15.110   4.802  13.947 -0.2288  0.1632 -0.0806
15022W        W33876   1.848   9.262  15.662 -0.2872  0.0570  0.1654
15023W        W33877   1.692   3.817   4.095  0.1049 -0.0559  0.2800
15024W        W33878   7.321  12.336   1.412 -0.0362  0.0150 -0.3370
15025W        W33879  13.692   0.815  14.137  0.0648  0.2009  0.2307
15026W        W33880  13.157  11.883  13.450 -0.0657 -0.1911 -0.2189
15027W        W33881   4.783   6.594   4.043 -0.0516 -0.0216 -0.3226
15028W        W33882  13.351   4.293  14.765 -0.3090 -0.3234 -0.1679
15029W        W33883  14.490   4.465   1.261  0.2425 -0.2692  0.2988
15030W        W33884   3.524   7.947  13.135  0.2475  0.1346  0.0222
15031W        W33885   7.761  16.479   1.665 -0.0605  0.1036 -0.0486
15032W        W33886   6.459   3.224  14.695  0.0758 -0.1527  0.3367
15033W        W33887  15.880  12.288  15.249  0.1170  0.1935 -0.1814
15034W        W33888   3.161  16.534  14.335  0.1233  0.0465 -0.0328
15035W        W33889   1.404   7.516  10.834  0.0833 -0.1755 -0.1079
15036W        W33890   6.311  14.200  16.117 -0.1712  0.0583  0.1114
15037W        W33891   0.813  10.418   0.668 -0.2270  0.1286 -0.0126
15038W        W33892   4.394   4.201  11.783  0.3617 -0.0334  0.0097
15039W        W33893   1.397  10.805   0.880  0.0582 -0.0344  0.1281
15040W        W33894  11.601   3.845   4.724 -0.1646 -0.0443 -0.3238
15041W        W33895  16.723  12.982   4.497 -0.0186  0.1105  0.4533
15042W        W33896  15.352  11.658  15.920  0.1257  0.3945 -0.0136
15043W        W33897   6.123   2.488   1.847  0.2871  0.0772  0.3142
15044W        W33898  10.562   3.976  14.230  0.0045 -0.6377 -0.0545
15045W        W33899  14.794  12.899   0.615 -0.0141 -0.1512 -0.3748
15046W        W33900  15.777  17.604   1.187  0.0684  0.0357  0.1152
15047W        W33901  15.470  12.404  15.612 -0.2053  0.0025 -0.0398
15048W        W33902  12.259  10.557   2.663  0.3645 -0.3035  0.2957
15049W        W33903   3.163  13.410  12.765  0.2561  0.4193 -0.1362
15050W        W33904   6.792   9.906   5.691 -0.0734 -0.1085 -0.1817
15051W        W33905   6.126  15.453  14.396  0.2589 -0.0595 -0.0697
15052W        W33906   1.843  11.923   3.695 -0.1084 -0.0530 -0.0336
15053W        W33907   4.773   2.843  13.863  0.2771  0.1407  0.2595
15054W        W33908  12.164   6.888  12.275 -0.2616 -0.2166  0.1633
15055W        W33909   0.678  17.626   1.001 -0.0882  0.2212 -0.0550
15056W        W33910   3.168   8.504   5.015 -0.0373  0.1369  0.0869
15057W        W33911   0.691   5.337   3.369  0.1795 -0.1772  0.3243
15058W        W33912   0.191  15.816   1.674  0.1698 -0.0034 -0.2048
15059W        W33913  16.780   6.831   3.736 -0.3630 -0.1131 -0.0185
15060W        W33914  11.670   6.683  14.762  0.0127  0.2286  0.3332
15061W        W33915  13.006  12.054  16.011  0.0817 -0.2605  0.0115
15062W        W33916   8.936   1.259   3.385  0.0027  0.1550  0.2138
15063W        W33917  11.456   9.230   2.519  0.3185  0.0905  0.0806
15064W        W33918   1.751  15.681  14.622  0.0687 -0.0725 -0.0270
15065W        W33919   9.698   4.578   3.926  0.2051 -0.3139 -0.0286
15066W        W33920   6.762  13.075  11.543  0.2425  0.1220  0.3034
15067W        W33921  11.889  10.992   4.400 -0.0815 -0.1965  0.2129
15068W        W33922  11.669   8.243   0.151 -0.0582  0.4426 -0.0721
15069W        W33923   1.061  10.236  15.037 -0.2725  0.1736  0.2795
15070W        W33924  17.986  14.834   4.980 -0.1792  0.1421 -0.2200
15071W        W33925  13.552   7.474  14.420 -0.1534 -0.1608 -0.2628
15072W        W33926   0.600  10.550   4.159  0.0615  0.2523 -0.1028
15073W        W33927  17.841  15.862  15.214  0.2455 -0.0371 -0.2096
15074W        W33928   8.691  12.218  16.098 -0.1695 -0.0051 -0.1477
15075W        W33929   5.022   8.646   2.460 -0.0997  0.1300  0.0237
15076W        W33930  15.147   6.120   0.297  0.0927  0.2679 -0.2304
15077W        W33931  13.867   0.364  13.030  0.3620  0.2706 -0.0486
15078W        W33932   7.157  10.996   4.003 -0.0817 -0.1047  0.0564
15079W        W33933  17.433   1.234   4.194  0.1953  0.1648  0.0645
15080W        W33934   9.508   9.694  14.568 -0.0928 -0.3142  0.0385
15081W        W33935  15.840  11.603  14.165  0.1743  0.1622  0.0903
15082W        W33936   6.997  17.598  15.672 -0.0149 -0.2878  0.2542
15083W        W33937   7.606  12.897  12.642 -0.0579 -0.1230 -0.0976
15084W        W33938  13.700  11.565  11.192  0.1560 -0.2174 -0.0668
15085W        W33939   6.856  12.209  13.152 -0.1677 -0.4044  0.2274
15086W        W33940  16.595   5.522  12.024  0.0209  0.0242  0.0124
15087W        W33941  13.702  10.640   1.426 -0.1913 -0.0734  0.3211
15088W        W33942  17.359   8.454   4.286 -0.1865  0.0492  0.0602
15089W        W33943  16.226   5.506   4.078 -0.0960  0.0505 -0.0871
15090W        W33944  12.638  13.420   1.339  0.0310  0.0665  0.3310
15091W        W33945   6.448  12.494   1.150 -0.2893  0.3175 -0.0845
15092W        W33946   8.244   0.767  14.463  0.1690  0.0181  0.1145
15093W        W33947   3.986   9.018  12.253  0.0202 -0.3062  0.0166
15094W        W33948   4.484   9.105   1.771  0.1866  0.0773 -0.0051
15095W        W33949  11.419   6.294  14.213 -0.0264 -0.1584  0.1902
15096W        W33950  16.625   9.348   0.899 -0.0021  0.1143  0.2124
15097W        W33951   4.310   4.845   3.904  0.1108  0.0939 -0.0311
15098W        W33952   9.788  11.690  11.293 -0.1400  0.0799 -0.1900
15099W        W33953   8.230  10.861  15.324  0.3323  0.3002 -0.2905
15100W        W33954   9.381  15.273   1.938  0.0402  0.2148 -0.1743
15101W        W33955   4.514   5.492  16.134  0.0143 -0.1336  0.2581
15102W        W33956   4.780  10.833   2.172  0.0772 -0.3275 -0.1685
15103W        W33957  15.521   0.642  11.751 -0.0203 -0.0497 -0.1203
15104W        W33958  14.406   3.331   2.055 -0.2594 -0.0078 -0.0255
15105W        W33959   5.210  11.100   2.059 -0.2572 -0.0055  0.2249
15106W        W33960   4.823  16.941   2.768 -0.1717 -0.0182  0.2020
15107W        W33961   4.667  10.451  14.646 -0.2219 -0.1032 -0.2837
15108W        W33962  17.151   9.436   1.071  0.2869 -0.1672  0.0723
15109W        W33963   6.547  11.277  15.995  0.0565  0.1394  0.0272
15110W        W33964   5.030   2.525  12.992 -0.1555 -0.0863 -0.0700
15111W        W33965  13.062  17.539  13.545  0.2326  0.1975  0.0366
15112W        W33966   2.184   6.681  14.000 -0.1210 -0.2250  0.1528
15113W        W33967   8.300   0.852  13.876  0.1137  0.0074 -0.1973
15114W        W33968   0.876  15.347  12.110  0.3196  0.0110 -0.1002
15115W        W33969   3.752  15.528  13.645  0.1393  0.1352  0.0627
15116W        W33970  10.307  17.955   0.193  0.3798 -0.0221  0.0440
15117W        W33971   2.931  17.306  16.071 -0.1275  0.0523 -0.0434
15118W        W33972  16.449  10.864   0.433 -0.3847  0.2936  0.0603
15119W        W33973   7.454   3.471   0.282  0.0824  0.0718  0.2396
15120W        W33974  16.955   3.512  14.553  0.3397 -0.3860 -0.1123
15121W        W33975   8.664   0.471  14.060 -0.0753 -0.2435  0.0191
15122W        W33976   4.552   4.862  11.176 -0.2566  0.0992 -0.1568
15123W        W33977   5.166   5.527  15.448  0.1387  0.1116  0.0763
15124W        W33978   4.629  10.631   0.059  0.1420  0.0735 -0.0089
15125W        W33979   7.887  12.068  13.012  0.1426 -0.0936  0.2047
15126W        W33980   1.592  13.234   0.195 -0.2484  0.3661  0.0354
15127W        W33981  16.797   6.406  15.977 -0.1419 -0.1525 -0.0693
15128W        W33982  10.571   1.501   2.785  0.2347  0.0370 -0.0063
15129W        W33983  14.783   0.416  13.471  0.4301 -0.0460 -0.1099
15130W        W33984   0.844   2.765  10.722  0.2301 -0.0096  0.3218
15131W        W33985   4.363   1.888  13.029 -0.1328 -0.1202  0.0066
15132W        W33986  11.660   0.969   0.602 -0.0151 -0.0351 -0.0147
15133W        W33987  16.325   7.571  11.943  0.2828  0.0336 -0.1260
15134W        W33988  13.476  13.956  12.796  0.2295  0.1394 -0.0738
15135W        W33989   1.391   7.008  12.687  0.1443 -0.2205  0.2213
15136W        W33990  14.524  10.179   0.192  0.0561 -0.0292  0.2249
15137W        W33991   8.243   9.758  12.907 -0.0557  0.2757  0.1836
15138W        W33992   3.486   4.265  13.052 -0.0270 -0.1874  0.2088
15139W        W33993   9.636  17.551  12.249  0.1317  0.0863 -0.0576
15140W        W33994   1.013   1.110  15.740 -0.1193 -0.0755 -0.3017
15141W        W33995  13.625   6.668  12.888  0.1564  0.0718  0.2192
15142W        W33996   0.920   1.971  15.401 -0.0430 -0.1580 -0.0662
15143W        W33997  13.140   7.138  15.374  0.0659  0.0630 -0.1592
15144W        W33998  11.542   7.089   4.663 -0.1125 -0.1179 -0.0674
15145W        W33999   9.360   7.845   4.023 -0.1123 -0.1705 -0.1282
15146W        W34000  17.945   8.292  15.608  0.1032 -0.1671  0.0749
15147W        W34001   3.485   1.490  14.472  0.0417  0.0380  0.0913
15148W        W34002   2.031  14.836  12.490  0.0247 -0.1996  0.1915
15149W        W34003   7.719  15.150   4.625 -0.3030 -0.1315 -0.1323
15150W        W34004   7.021  16.541   4.464  0.2657  0.3059  0.1403
15151W        W34005  14.784   0.905  15.329 -0.1117  0.0681  0.0982
15152W        W34006   1.055   5.376   3.030  0.0806  0.0676  0.0184
15153W        W34007   8.738  16.475   2.002  0.0405 -0.1699 -0.0116
15154W        W34008  11.290  12.399  15.847  0.0358  0.3860  0.0359
15155W        W34009  14.056   6.137  11.802 -0.0394 -0.0246 -0.2937
15156W        W34010   7.001   8.299  12.291  0.0629  0.0456  0.2021
15157W        W34011  15.844   1.720   3.487  0.0669 -0.0413  0.0146
15158W        W34012  13.812  12.896  13.239 -0.1116 -0.2669 -0.2944
15159W        W34013   7.319  16.277   4.195 -0.0856  0.2348 -0.1306
15160W        W34014  11.632   5.391  14.264 -0.1333 -0.0549  0.1890
15161W        W34015   8.540   2.438  12.912  0.0111 -0.1530  0.1057
15162W        W34016  12.388  15.101   0.694  0.0442  0.0947  0.1044
15163W        W34017   5.463   8.065   2.528  0.3574 -0.2663 -0.2732
15164W        W34018   1.082  15.309   1.020 -0.0781 -0.1490 -0.0007
15165W        W34019  17.714   3.673   0.780 -0.1905  0.0749 -0.0947
15166W        W34020  14.525   8.780  15.089 -0.3026  0.0587 -0.1699
15167W        W34021  16.442   1.769   0.002  0.2089 -0.2392 -0.1018
15168W        W34022   3.473   1.992  14.791 -0.0318  0.1459 -0.0823
15169W        W34023   1.829   1.242   2.664  0.2697 -0.1354  0.1301
15170W        W34024  17.730   1.437   2.151 -0.1172 -0.1266 -0.0836
15171W        W34025  12.518   7.092   0.377  0.1867  0.1084 -0.1515
15172W        W34026   8.858   4.159  12.881  0.1536 -0.0345 -0.2407
15173W        W34027  10.615   0.174  14.139 -0.1338  0.0389  0.1132
15174W        W34028  12.223  14.528  14.889  0.1008  0.3036  0.1047
15175W        W34029  12.682  15.401   3.439  0.2311  0.2574  0.0080
15176W        W34030   6.944  13.596   2.797 -0.0110 -0.3116  0.4645
15177W        W34031  12.444  17.937  10.902  0.0850  0.0509 -0.2239
15178W        W34032   1.671   1.388  12.846 -0.0094  0.1450 -0.2117
15179W        W34033  11.236   7.988  14.761 -0.2426  0.0514 -0.1034
15180W        W34034  11.024  16.119   1.623 -0.2203 -0.2486 -0.0847
15181W        W34035  10.766  16.232   4.673  0.0060 -0.0521 -0.0194
15182W        W34036   5.618   0.432  12.799 -0.2256 -0.0075  0.1329
15183W        W34037   7.576   1.795  14.016 -0.1847  0.0660  0.0380
15184W        W34038  17.945   2.131   3.806 -0.2466 -0.1052  0.4362
15185W        W34039   3.696  15.550   2.718  0.1081 -0.2088  0.2249
15186W        W34040  10.114   4.429   3.734 -0.2914  0.2397 -0.0491
15187W        W34041   1.669   6.613   2.506 -0.0851 -0.0699  0.0232
15188W        W34042  15.886  13.343   0.594 -0.2678 -0.1924  0.0795
15189W        W34043  11.048   7.236  13.706 -0.4012  0.1015  0.1728
15190W        W34044  14.834   2.258  13.667  0.0197  0.2915 -0.1884
15191W        W34045  11.486   0.412  12.337 -0.0214 -0.0062 -0.1149
15192W        W34046   7.771   1.151   4.111  0.2264 -0.2394  0.0370
15193W        W34047   8.589  13.307  15.958  0.1077  0.3518  0.1394
15194W        W34048  11.995  13.527  14.125 -0.1617 -0.0155 -0.4392
15195W        W34049   5.866  14.940  12.562 -0.0196  0.1644 -0.0577
15196W        W34050   3.020   5.755  15.165 -0.1445 -0.0780  0.0416
15197W        W34051   2.282   9.101   0.863  0.3047 -0.1799 -0.1690
15198W        W34052  17.439   9.219  11.333  0.0252 -0.4354 -0.2889
15199W        W34053   8.481  17.366   1.851 -0.0645 -0.1817  0.0292
15200W        W34054   8.283  16.484  12.215 -0.2637 -0.1303  0.1555
15201W        W34055   8.085  17.678  14.764 -0.0429  0.1414  0.0427
15202W        W34056  12.319  10.607  13.238  0.2567 -0.1419 -0.0163
15203W        W34057   7.453  11.411   0.200 -0.2452  0.0545  0.0531
15204W        W34058  16.363   2.481  15.559  0.2074  0.1766  0.1425
15205W        W34059  17.120  10.068   0.270 -0.1221  0.1351 -0.1349
15206W        W34060  10.395   9.770   2.360  0.0924  0.0405  0.1108
15207W        W34061   9.897  15.803  12.780 -0.1677 -0.2747 -0.2468
15208W        W34062  11.460   8.033  13.642  0.0576 -0.0452 -0.2641
15209W        W34063   9.667  17.397  15.435 -0.0608 -0.3587  0.0396
15210W        W34064   8.564  13.146   0.316  0.0188 -0.1806 -0.1968
15211W        W34065   5.855  12.731   6.026  0.1325 -0.1479 -0.2126
15212W        W34066   0.816   8.983   3.305  0.0324  0.0904 -0.0926
15213W        W34067   4.931  12.404   2.282 -0.0188 -0.2430  0.2392
15214W        W34068   1.148   5.793  15.566  0.1952 -0.1775  0.2850
15215W        W34069   8.965  15.832  15.224 -0.0825 -0.0793 -0.1057
15216W        W34070  15.080  10.496  13.979 -0.4332  0.3593  0.0337
15217W        W34071  14.754   1.057   1.146 -0.0828  0.0632  0.0010
15218W        W34072   4.826   5.496   4.953  0.0325  0.0983 -0.1194
15219W        W34073  15.626  16.384  12.529 -0.0160 -0.1248 -0.0633
15220W        W34074   9.438   7.219   1.819 -0.1027 -0.0456  0.1732
15221W        W34075  13.212   2.391   4.875  0.1707 -0.1409 -0.0205
15222W        W34076  17.759   7.467   2.395  0.0342  0.1098 -0.1628
15223W        W34077   9.696  17.153   4.812 -0.0146 -0.2040  0.1053
15224W        W34078   6.507  17.633  12.589  0.1762 -0.0288  0.1356
15225W        W34079  11.795   3.371  14.573 -0.0300  0.0516 -0.1686
15226W        W34080  16.120   8.553  14.274  0.0562 -0.2921 -0.2456
15227W        W34081  15.628   2.843  12.934  0.0061  0.1446  0.1444
15228W        W34082  11.783  10.182  14.914  0.0187 -0.0150  0.2978
15229W        W34083   1.757   4.531   2.174  0.2289 -0.1238  0.2579
15230W        W34084  14.021   3.761  15.250 -0.4117  0.1232 -0.0304
15231W        W34085   7.325   5.577  12.116  0.4055 -0.1558 -0.1850
15232W        W34086   3.616  16.118  14.020 -0.2953  0.0509 -0.1726
15233W        W34087   2.543   0.688   4.405 -0.1984 -0.1247 -0.1996
15234W        W34088   5.315   0.642   4.852  0.0671 -0.1489 -0.3246
15235W        W34089   8.558  16.156  12.472 -0.1660  0.1873 -0.0547
15236W        W34090  13.858  16.986  15.660 -0.3067 -0.1283  0.3712
15237W        W34091  10.184   4.746  14.443 -0.1407 -0.0498 -0.0090
15238W        W34092   0.131  15.104  14.571 -0.5010 -0.0387 -0.1733
15239W        W34093   0.894   1.507  11.578  0.2291  0.2189  0.1094
15240W        W34094  16.440   0.000  11.964  0.0639  0.0151 -0.1171
15241W        W34095   8.193   4.832   3.134 -0.0062 -0.0693 -0.0263
15242W        W34096   2.760   0.740  15.470  0.1170 -0.1389  0.1804
15243W        W34097   1.474  13.685   0.919  0.3562  0.0911 -0.0042
15244W        W34098   3.239   1.669   2.458 -0.1235  0.0410 -0.0401
15245W        W34099  11.629  13.438   3.516 -0.3502  0.0097 -0.0061
15246W        W34100  15.013   7.315   2.283  0.1118 -0.0628  0.1516
15247W        W34101  16.353   4.495  15.195 -0.2634  0.2636 -0.0311
15248W        W34102  14.527  14.808   3.211  0.2777  0.0417  0.3052
15249W        W34103  14.683  13.043  13.144 -0.3307 -0.0268  0.1970
15250W        W34104   9.771   3.458  16.135  0.1061  0.0695 -0.0828
15251W        W34105   4.795  13.671  16.140 -0.0012 -0.0016  0.1586
15252W        W34106   3.616  10.969   4.504 -0.0604  0.1173 -0.0185
15253W        W34107   5.326  14.426   3.579 -0.1175  0.0050 -0.0569
15254W        W34108  13.266  17.461  14.413 -0.0026 -0.2131  0.0571
15255W        W34109  10.612   5.476   4.725 -0.1904 -0.3834 -0.1713
15256W        W34110  10.183  12.053   3.583  0.0931  0.1596 -0.2236
15257W        W34111   3.032  18.020   4.439 -0.1067  0.0406  0.2388
15258W        W34112   3.362   3.340  14.063  0.0959 -0.3908 -0.1150
15259W        W34113   8.368   6.736   1.100 -0.1653 -0.1961  0.0553
15260W        W34114   3.204  10.641  13.251 -0.0889  0.1117 -0.1895
15261W        W34115  17.008   2.604   1.370 -0.1424  0.0149  0.3264
15262W        W34116   1.260  15.553  11.840 -0.2768 -0.0488  0.0983
15263W        W34117   9.238   9.323  15.672 -0.2740  0.3770  0.1351
15264W        W34118  14.617   7.408  16.048  0.0360 -0.0660 -0.1469
15265W        W34119   1.239   6.833   0.111 -0.2263 -0.0387  0.0416
15266W        W34120   2.816  14.082  14.177  0.2887  0.2465 -0.0794
15267W        W34121  11.207   1.147  15.191  0.0323  0.2644 -0.0910
15268W        W34122   8.545   3.906   3.245  0.0330  0.0102  0.1403
15269W        W34123   5.782   2.359  13.628  0.3465  0.0966 -0.2713
15270W        W34124   5.259  12.852  15.578  0.3145 -0.3297 -0.0837
15271W        W34125   5.695  13.051   4.732  0.1573 -0.3560  0.0461
15272W        W34126  17.528  14.008  11.248 -0.0170  0.0637  0.1088
15273W        W34127   6.357   2.947   2.677 -0.4302  0.0602 -0.1126
15274W        W34128   8.214   5.809  13.911 -0.2133  0.1271 -0.2309
15275W        W34129  10.249   2.744   3.138 -0.0556  0.2601  0.0342
15276W        W34130   1.980   4.919   1.833  0.0769 -0.1996  0.0537
15277W        W34131   8.286   6.677   1.781  0.1468  0.1828  0.0045
15278W        W34132  16.186   0.119   3.192 -0.1040 -0.2146 -0.0927
15279W        W34133  17.959  17.819  15.505  0.0035  0.3258 -0.0071
15280W        W34134   5.686  15.604  15.158 -0.0125 -0.1304 -0.0500
15281W        W34135  10.064  14.317   0.334 -0.0451 -0.1923 -0.2540
15282W        W34136   4.530   3.530  13.012  0.0068  0.0946 -0.2690
15283W        W34137   7.181   7.532  15.389  0.3833 -0.0390 -0.0783
15284W        W34138   4.707   4.435   5.726  0.0265 -0.2431  0.3708
15285W        W34139   9.427   1.964  13.083  0.1378 -0.3228 -0.4651
15286W        W34140  15.232   2.856  11.507 -0.0448  0.2129  0.2556
15287W        W34141   3.868   0.327  16.059 -0.3622  0.0015 -0.0484
15288W        W34142  15.757  15.231  15.991 -0.0072  0.0042  0.1749
15289W        W34143   4.320  13.536   4.251  0.2494 -0.2266  0.1369
15290W        W34144  15.662   0.176   2.529  0.3336  0.0140  0.1204
15291W        W34145  16.535  12.944  16.154 -0.2361 -0.3558  0.0744
15292W        W34146  15.124   5.363  11.786  0.1386  0.1623  0.2985
15293W        W34147  13.582   7.515   4.766 -0.0497 -0.0292  0.0392
15294W        W34148  13.609  10.293  13.115  0.1142  0.1322 -0.0421
15295W        W34149  12.990   3.073  14.347 -0.0943 -0.0701  0.1757
15296W        W34150  11.609  11.618  14.105  0.1558 -0.1577 -0.4213
15297W        W34151   7.075  12.072  13.976  0.0214 -0.1178 -0.1289
15298W        W34152   4.531   1.146  13.496  0.1439 -0.0890  0.1511
15299W        W34153   6.041  11.628   3.144 -0.0117 -0.0918 -0.1388
15300W        W34154  17.586  14.866   3.153  0.2258 -0.1200  0.1496
15301W        W34155  14.403   5.918  13.754 -0.0473 -0.0052 -0.0716
15302W        W34156  17.493   3.811  13.777  0.1039  0.1821  0.0736
15303W        W34157   4.517   8.900   1.311  0.2377  0.2244  0.4310
15304W        W34158  16.239  14.051  13.636  0.0106 -0.0860 -0.1799
15305W        W34159  17.596   4.730  14.489 -0.1201 -0.1857 -0.0348
15306W        W34160   6.903   2.316   1.354 -0.0129  0.2716  0.2865
15307W        W34161   6.287  16.856   2.320 -0.1712 -0.0987 -0.0572
15308W        W34162   2.191   3.170   0.207  0.1380  0.2646 -0.0532
15309W        W34163  11.544  12.156  16.193 -0.0092 -0.2790 -0.2391
15310W        W34164   1.044   8.484  11.947  0.0429  0.2551  0.4948
15311W        W34165  14.279  15.254  12.559 -0.0608  0.0222  0.0376
15312W        W34166  11.737  12.417   1.358 -0.0824  0.0490 -0.1071
15313W        W34167  11.760  14.987  15.600 -0.1426  0.2298  0.0730
15314W        W34168   7.619  10.446  15.544  0.0839  0.4000 -0.1048
15315W        W34169   7.883   9.193  12.320  0.0002 -0.1743 -0.0846
15316W        W34170   1.682  16.363   1.755 -0.1273  0.1024 -0.1327
15317W        W34171  16.830   7.159  12.565 -0.3079 -0.0553  0.0481
15318W        W34172   1.436  12.905  15.516 -0.2629 -0.4481 -0.0444
15319W        W34173   5.270   7.741   3.111  0.0172 -0.0317  0.0888
15320W        W34174  10.033   6.743  16.146 -0.3627  0.1973  0.0141
15321W        W34175   3.435   2.996   1.916 -0.1220 -0.0011 -0.3094
15322W        W34176  10.174  17.104   0.866 -0.0617  0.1478 -0.0746
15323W        W34177  11.547   0.314   3.860 -0.3813  0.1681 -0.1496
15324W        W34178  16.333   2.924  15.151 -0.0095  0.1347  0.1958
15325W        W34179   1.793  16.946  14.397 -0.1728  0.0189 -0.1418
15326W        W34180   4.420  15.415   2.825 -0.1136  0.3612  0.1013
15327W        W34181   8.742   1.111   0.339 -0.1052  0.0779 -0.2719
15328W        W34182  10.445   1.778   1.488 -0.0381  0.0974  0.2134
15329W        W34183   4.753   0.345   0.757  0.4006  0.1595  0.1137
15330W        W34184  11.736   4.329  11.769  0.0701  0.0222 -0.1841
15331W        W34185  16.226   1.198  11.716 -0.0211 -0.0474 -0.1180
15332W        W34186   9.847  15.263   1.411  0.1738 -0.1922  0.3805
15333W        W34187  10.590  12.935  11.669  0.0238 -0.0109  0.3792
15334W        W34188   0.837   6.686   4.363  0.2037 -0.2303 -0.0226
15335W        W34189  14.310  12.384   4.745 -0.2402 -0.2470  0.1926
15336W        W34190   4.912  17.955   0.572 -0.2788  0.1026  0.0520
15337W        W34191  11.007   0.026   2.207  0.0654 -0.2135 -0.2431
15338W        W34192  13.950   2.245  15.411  0.1504  0.2202 -0.0243
15339W        W34193   8.840  15.109   2.248 -0.3106 -0.2862 -0.0620
15340W        W34194  15.530   1.304   2.703 -0.2150 -0.1829 -0.2403
15341W        W34195   4.625  15.177  11.938 -0.2469  0.0959  0.1408
15342W        W34196  15.828  12.941   1.395 -0.1380 -0.1332  0.0215
15343W        W34197  17.509   5.642  16.218 -0.2984  0.4565 -0.0718
15344W        W34198   5.722   6.270  12.636 -0.0527  0.1747  0.0036
15345W        W34199  15.421   3.429   1.024 -0.3203 -0.1678 -0.0547
15346W        W34200   7.362   4.846   2.406 -0.2673  0.1178 -0.0239
15347W        W34201   1.740  17.885   4.384 -0.1107 -0.1214  0.2935
15348W        W34202  14.470   6.790   0.697  0.0618  0.0087  0.0467
15349W        W34203   7.021  15.515  13.545 -0.2634  0.0930  0.1240
15350W        W34204   6.219   9.929   1.673 -0.0569 -0.0851  0.1173
15351W        W34205  17.912  11.996  11.632  0.0942 -0.1841  0.0257
15352W        W34206   3.675  17.717  13.164  0.0106 -0.4181 -0.1025
15353W        W34207  15.311  14.888   2.002  0.1061 -0.1048 -0.1956
15354W        W34208   1.678  13.500  15.448 -0.1970 -0.2267 -0.0427
15355W        W34209  13.115   9.772   1.195 -0.1713 -0.0797 -0.2697
15356W        W34210   3.847  11.398  14.538  0.2528  0.0125 -0.1142
15357W        W34211   8.777   0.261   2.770 -0.3744 -0.1174  0.3787
15358W        W34212   6.122  17.345   1.731  0.0633 -0.1048  0.0561
15359W        W34213  15.329   4.452  12.418 -0.1745 -0.1138  0.0844
15360W        W34214   5.659  10.298   4.474  0.1306 -0.1551  0.0786
15361W        W34215   3.504   7.888  15.848  0.2302 -0.1102  0.0532
15362W        W34216   0.793   9.754   1.473  0.2693 -0.1047  0.1568
15363W        W34217  16.035   3.987   0.708 -0.3122 -0.2149  0.0599
15364W        W34218   6.720   2.684   4.236 -0.3438  0.0241 -0.0160
15365W        W34219  10.228   1.162   1.832 -0.0281 -0.0378  0.1012
15366W        W34220   5.065   7.955  15.046 -0.0469 -0.2009 -0.3458
15367W        W34221   6.157  12.155  15.297 -0.0976  0.1089  0.1950
15368W        W34222   9.475   2.759   2.019 -0.2095  0.2957  0.1536
15369W        W34223  17.035   6.298   0.212  0.3380 -0.0521 -0.1002
15370W        W34224   9.505  14.695  12.591  0.2798  0.1790  0.1205
15371W        W34225  12.150  17.517   1.565  0.2336 -0.0262  0.0977
15372W        W34226   8.862   8.415   4.188 -0.0552  0.2059  0.5059
15373W        W34227  15.138   5.013   3.053  0.3198  0.0030  0.1118
15374W        W34228   1.586   5.698  11.758  0.1121 -0.3292  0.2498
15375W        W34229   4.977  15.156  12.865  0.0791 -0.2072 -0.3342
15376W        W34230  10.195  16.946   3.240 -0.1443  0.0401  0.3692
15377W        W34231  17.739   1.898   2.467  0.1391 -0.0368 -0.0476
15378W        W34232  11.448  16.161  13.663  0.1758 -0.1439 -0.1005
15379W        W34233   9.450   3.715   0.937 -0.0884 -0.4844  0.0816
15380W        W34234   2.843   0.963  15.964  0.0638  0.0851  0.1034
15381W        W34235   5.765  17.512  14.792 -0.1077 -0.0283  0.1518
15382W        W34236  11.309  17.498   3.496  0.1051  0.1696 -0.0355
15383W        W34237   2.485  14.522  13.367  0.2295 -0.2307  0.1445
15384W        W34238   0.427  16.613   1.239 -0.1454  0.2997 -0.2157
15385W        W34239  13.038  11.445  12.913  0.0426 -0.0270 -0.0951
15386W        W34240   3.729   3.604   0.199  0.0018 -0.0526  0.3079
15387W        W34241   7.730  13.660  16.149 -0.1536 -0.1352  0.1386
15388W        W34242   1.788   7.282  15.691 -0.1482  0.0892 -0.2377
15389W        W34243  15.552  13.404  11.632 -0.0145  0.0038  0.1059
15390W        W34244   8.892   3.077  12.168 -0.4104  0.0019 -0.0362
15391W        W34245  11.732  18.002   2.388 -0.3737  0.2133  0.2025
15392W        W34246  10.440   0.682   4.225 -0.1486  0.2776 -0.3013
15393W        W34247  15.709   1.479  11.446 -0.0742 -0.2469 -0.0307
15394W        W34248  15.268   5.906   4.333 -0.0421  0.1858  0.1652
15395W        W34249   7.118   0.403  15.005 -0.2111  0.0283 -0.0176
15396W        W34250   3.308   7.111  14.802 -0.0135  0.2240  0.1482
15397W        W34251   1.477  17.972  11.612  0.1668 -0.2235 -0.1053
15398W        W34252  12.520   2.262  13.835 -0.1780 -0.2197 -0.1720
15399W        W34253   7.020  16.504  14.933  0.0403 -0.3665 -0.1033
15400W        W34254   2.784   6.288   3.361  0.1106 -0.1012 -0.0309
15401W        W34255   2.594  13.423   3.074 -0.1153  0.2490  0.0058
15402W        W34256   1.821   1.421   5.811  0.0860 -0.0010 -0.1135
15403W        W34257   5.023   2.321   0.907 -0.0037  0.1701 -0.1951
15404W        W34258   2.910  17.071  11.993  0.2077 -0.1904 -0.0742
15405W        W34259  12.378  12.404  12.008  0.0388  0.2148  0.1655
15406W        W34260  11.059   0.186  14.958  0.4227  0.0457  0.0122
15407W        W34261  16.790  17.867   0.940 -0.4768  0.1212 -0.0014
15408W        W34262  11.312  10.822  11.876 -0.2009 -0.1200 -0.0746
15409W        W34263   8.966   1.795  13.882 -0.5799 -0.0243 -0.3205
15410W        W34264   9.404   1.327  14.499 -0.0146 -0.0496  0.0862
15411W        W34265  16.294   7.976  11.652  0.2293 -0.1233 -0.3046
15412W        W34266   7.947  10.540   1.415 -0.1186  0.0919  0.0002
15413W        W34267   0.596  10.293   1.412 -0.1636  0.3065 -0.1389
15414W        W34268  12.159   6.153   0.654 -0.2475 -0.2554 -0.1610
15415W        W34269  10.864  11.147  13.855 -0.1153 -0.1031 -0.0893
15416W        W34270  12.479  15.974  14.274  0.0690  0.3459  0.2264
15417W        W34271   3.813  12.701   1.754  0.2967  0.2162 -0.0035
15418W        W34272   2.652   2.348   4.004 -0.1864  0.0350  0.1314
15419W        W34273   1.670  12.438  12.923  0.2199  0.1405  0.0899
15420W        W34274   8.344   6.255  13.774 -0.1222 -0.3891 -0.2534
15421W        W34275   8.291   3.623   5.495  0.0158 -0.1355 -0.0318
15422W        W34276   2.619  11.044   1.469  0.0771  0.0374 -0.4398
15423W        W34277  15.973  12.270   0.099 -0.1249  0.0874 -0.0314
15424W        W34278   3.259  17.999   5.341 -0.0375  0.3278 -0.0754
15425W        W34279   7.300   4.907  14.628  0.2173 -0.0237  0.1314
15426W        W34280   0.489   9.217  12.897 -0.2237 -0.1153  0.0658
15427W        W34281  15.224  17.896  12.411 -0.0549 -0.2475 -0.2339
15428W        W34282  12.701   8.332  12.869 -0.2500 -0.2639 -0.3325
15429W        W34283  16.332   7.749  14.867 -0.1340 -0.0080  0.0802
15430W        W34284  12.207   6.640  14.707 -0.0632  0.2572  0.0970
15431W        W34285   1.188  16.312  15.004 -0.0857 -0.0013 -0.0044
15432W        W34286   0.284   8.139  15.328 -0.1122 -0.3534 -0.0780
15433W        W34287  17.271   3.966  16.207  0.3026 -0.0567 -0.0865
15434W        W34288   8.869   3.948  14.936  0.1538  0.1067 -0.1173
15435W        W34289   5.457  12.971   0.202 -0.2176 -0.0017  0.2781
15436W        W34290  12.254  12.380  11.015  0.0603 -0.1475  0.1491
15437W        W34291  17.058   1.790  12.306 -0.1181  0.4336  0.1244
15438W        W34292   1.728   6.643  12.624 -0.0906  0.0708 -0.4724
15439W        W34293  14.969  16.823   3.885  0.0998 -0.1286  0.2458
15440W        W34294   0.774   6.781   1.726  0.0324  0.1018  0.0908
15441W        W34295  14.492   2.199   1.655  0.0705  0.2087 -0.1649
15442W        W34296  11.890  12.458  13.360 -0.1152  0.3615  0.0829
15443W        W34297  14.893  17.714  16.207  0.1378  0.1801 -0.0185
15444W        W34298  15.740  16.744  11.634  0.1164 -0.1412 -0.1601
15445W        W34299   2.456  17.422  15.346 -0.2054  0.2154 -0.1522
15446W        W34300  16.506   9.307   4.817 -0.1868  0.1008 -0.2675
15447W        W34301  17.977  12.034   2.853 -0.0416 -0.1200 -0.0638
15448W        W34302  16.629  14.235   2.359 -0.1267 -0.0234 -0.0489
15449W        W34303  10.870   8.035   0.204 -0.2555  0.0037  0.1672
15450W        W34304   5.770   1.523  14.523  0.4024 -0.0398 -0.0835
15451W        W34305  15.241  10.506   3.577 -0.2129  0.1922 -0.4521
15452W        W34306  11.109   3.685  15.154  0.3558  0.0129 -0.1448
15453W        W34307  13.055  14.049  14.602  0.2874 -0.1159 -0.0342
15454W        W34308  15.615   4.505  13.758 -0.2905 -0.0333 -0.0941
15455W        W34309   8.729  13.053   3.231 -0.0180 -0.2086  0.1341
15456W        W34310  12.901  17.599  14.762 -0.1744  0.0352 -0.1175
15457W        W34311  10.783   8.631   1.772 -0.0768 -0.0129  0.0131
15458W        W34312  13.211   0.348   4.524  0.0436  0.2588  0.0170
15459W        W34313  17.166  12.225  14.653 -0.1040 -0.1210 -0.2042
15460W        W34314   2.241   9.154  12.379  0.0973  0.1849 -0.0059
15461W        W34315  17.735   6.778   4.192  0.3926  0.0279  0.2053
15462W        W34316   7.812   2.884   1.273  0.1587 -0.2622 -0.0491
15463W        W34317   8.873  12.227   2.369 -0.2786 -0.0416 -0.1033
15464W        W34318  14.027  10.199   1.202  0.0924 -0.3304 -0.0402
15465W        W34319   9.259   7.977  12.365  0.0850  0.3884  0.0226
15466W        W34320   7.577  16.081   3.577 -0.1574 -0.2082 -0.0492
15467W        W34321  11.659  12.894   1.458  0.1072 -0.0600 -0.0687
15468W        W34322   1.489   0.908  15.102  0.1989 -0.3426 -0.1865
15469W        W34323   2.217   6.435   3.418  0.0004 -0.0903 -0.1104
15470W        W34324  14.546   8.902   1.572 -0.2748 -0.0512  0.3552
15471W        W34325   6.680  16.982   4.094  0.1220 -0.3352 -0.0228
15472W        W34326  10.465   7.805  12.279  0.1093 -0.2476  0.1071
15473W        W34327   4.543   0.253  12.556 -0.3904  0.2175  0.1373
15474W        W34328   8.106  10.289   0.100  0.0791 -0.0189 -0.1378
15475W        W34329  12.342   3.997  15.634 -0.0046  0.1208 -0.2251
15476W        W34330  16.905  14.399   3.525  0.1204  0.1634 -0.0553
15477W        W34331  16.104  10.905   4.992  0.0466 -0.3167  0.0395
15478W        W34332  10.716   0.619   3.440  0.2927 -0.1479 -0.1669
15479W        W34333  10.537  15.039  14.930 -0.0917  0.0596 -0.2867
15480W        W34334  12.256  12.907  15.522 -0.0648 -0.1806  0.0326
15481W        W34335   5.073  13.514  13.547  0.0042 -0.2089 -0.3159
15482W        W34336   6.278   4.599  15.010 -0.1341  0.0128  0.1299
15483W        W34337   9.108   0.272   3.579 -0.0077  0.0807 -0.0583
15484W        W34338   5.805   7.049  12.012  0.1881  0.0360  0.0852
15485W        W34339   4.056  13.854  11.469 -0.1417  0.2818 -0.1934
15486W        W34340  11.150   0.535   0.738 -0.1024 -0.0332  0.1623
15487W        W34341  12.450  16.180   3.609  0.1525  0.2445 -0.1237
15488W        W34342  17.672   4.339   3.374 -0.0072  0.0274  0.3068
15489W        W34343   8.862  13.121  12.272 -0.2115 -0.0596 -0.0253
15490W        W34344  14.678  13.525  15.066  0.0199 -0.0355 -0.1765
15491W        W34345  16.711  17.395   1.829 -0.0279  0.2130  0.0595
15492W        W34346  16.351   0.194   4.554 -0.3802 -0.1004 -0.1118
15493W        W34347   2.172  10.089   3.535 -0.2396  0.0221  0.2434
15494W        W34348  15.315   0.507   1.816 -0.1645  0.1579 -0.1718
15495W        W34349   2.742   1.886   4.291  0.1176 -0.2440  0.2300
15496W        W34350   4.266   9.534  12.309 -0.0664  0.2194 -0.3843
15497W        W34351  16.561   5.081  13.651  0.0398 -0.0250 -0.1433
15498W        W34352  16.427  14.065   4.272 -0.1436  0.0456 -0.0028
15499W        W34353   5.433   8.446  14.266  0.0757 -0.1869  0.0353
15500W        W34354   5.147   5.209  11.969 -0.0779 -0.1768  0.2135
15501W        W34355   9.001   0.955  13.228 -0.1696 -0.0799  0.1446
15502W        W34356   3.072   8.584   0.848 -0.1783 -0.2048 -0.1248
15503W        W34357   9.968   3.076  15.515  0.0320  0.1837 -0.0649
15504W        W34358  17.738  15.726   1.857 -0.2506  0.2990 -0.1038
15505W        W34359  13.137  18.032   2.833  0.0873  0.0111  0.1512
15506W        W34360   4.106   3.174  14.785 -0.0039  0.0654 -0.0170
15507W        W34361   1.180   3.796  14.000  0.0535 -0.1853  0.0717
15508W        W34362  13.457   0.385   0.689  0.1625  0.0707 -0.1568
15509W        W34363   5.715  14.377  15.460  0.1312  0.0108 -0.0186
15510W        W34364   1.746  16.748  13.875 -0.0806  0.1584 -0.1693
15511W        W34365   6.251   7.124   2.429 -0.0899 -0.1559 -0.0776
15512W        W34366   4.261   6.402   1.208 -0.2932  0.0910 -0.1311
15513W        W34367  13.670  16.290   1.110 -0.0723  0.1035  0.0476
15514W        W34368   1.401  10.157  14.325 -0.1333  0.1516  0.0342
15515W        W34369  13.472   5.630  14.212  0.2595  0.1688  0.1886
15516W        W34370   9.470   8.624  11.651  0.2074 -0.1021  0.3142
15517W        W34371  13.608   3.544   2.609 -0.2165 -0.1602 -0.1111
15518W        W34372  11.792  14.231   2.159  0.2263  0.1259  0.1670
15519W        W34373  11.570   5.992  13.293  0.3993 -0.0989 -0.2149
15520W        W34374   9.910  14.497   2.391 -0.1101  0.0481  0.2435
15521W        W34375   3.538   2.208   4.023  0.1133  0.1278  0.1712
15522W        W34376   3.552  14.313   3.215  0.1532 -0.0784 -0.1939
15523W        W34377   1.672  14.152  11.644  0.1487 -0.1429  0.0274
15524W        W34378  13.309   5.172  13.302  0.3409  0.1486 -0.0423
15525W        W34379  17.003  13.497  15.408 -0.0410  0.1120 -0.3325
15526W        W34380   9.479   4.668  14.602 -0.1210 -0.0514 -0.2294
15527W        W34381  14.696  14.512   2.117 -0.4164  0.1039 -0.1375
15528W        W34382  16.833  10.445  11.577  0.0197  0.3206  0.1455
15529W        W34383   6.770  16.359   3.218 -0.1117  0.2661  0.1708
15530W        W34384  17.264   5.580  15.696 -0.0747 -0.0216 -0.2542
15531W        W34385  12.996   4.088  11.429  0.0566  0.2042  0.3587
15532W        W34386   9.179  17.676   1.274 -0.0672  0.2257  0.0852
15533W        W34387   0.243   1.496  15.229 -0.0382 -0.1020 -0.0107
15534W        W34388  13.936  15.807   0.422  0.0491 -0.1855 -0.1626
15535W        W34389  10.678  15.852   1.358  0.1051 -0.1673  0.1113
15536W        W34390   2.086  11.835  16.013 -0.0608  0.2943 -0.0621
15537W        W34391   6.317  14.126   4.063 -0.1588 -0.1544 -0.1720
15538W        W34392   4.351   4.731   2.858  0.2481 -0.0680  0.0231
15539W        W34393  12.399  12.160   3.697  0.1578 -0.3175  0.2416
15540W        W34394   3.759   4.734  12.767  0.2481  0.0574  0.3154
15541W        W34395   4.026   3.433  13.367  0.1643  0.0364 -0.2193
15542W        W34396  16.828   0.772  12.927  0.3666 -0.1488 -0.1559
15543W        W34397   9.014   2.201   4.620  0.1461 -0.1295  0.2662
15544W        W34398  17.175  13.274   1.335 -0.1244 -0.0705 -0.0577
15545W        W34399  16.124  16.267   2.381  0.2384  0.1377 -0.3671
15546W        W34400   6.038  15.703   2.577 -0.1429 -0.2818 -0.0622
15547W        W34401   6.473  10.784  16.146  0.3448 -0.1058 -0.2299
15548W        W34402  12.849   3.519   2.467 -0.0080 -0.1271  0.2223
15549W        W34403  13.586  12.229  15.073  0.3627 -0.0396  0.0751
15550W        W34404   8.324  11.745  13.770 -0.0536 -0.1515 -0.0678
15551W        W34405  13.419  11.957  14.561  0.1291  0.2731 -0.2468
15552W        W34406  15.769  14.668  12.023  0.3775 -0.3049  0.0812
15553W        W34407  16.200   0.301  15.791 -0.0768  0.2206 -0.0296
15554W        W34408   9.348  15.570   0.518  0.0367  0.0451 -0.0651
15555W        W34409   5.489  15.893   5.707 -0.0207  0.2954 -0.1130
15556W        W34410   0.933   8.346   0.843 -0.0345  0.2196 -0.1692
15557W        W34411  13.903   3.201   2.354 -0.0890  0.1738 -0.0420
15558W        W34412  11.391   7.316  12.392 -0.0740  0.0981 -0.1819
15559W        W34413   9.584   9.505  15.994 -0.0363 -0.2877  0.3442
15560W        W34414   6.043   5.590  14.833 -0.0018  0.1484  0.1306
15561W        W34415   8.135  11.768   4.764  0.1095 -0.0459  0.2506
15562W        W34416  11.706   9.212  13.941  0.0120  0.2079 -0.3815
15563W        W34417   7.285   1.139   5.602  0.1143  0.2166 -0.1199
15564W        W34418   9.316  11.883  11.449  0.2265 -0.2760 -0.1052
15565W        W34419   1.129   7.989   1.781 -0.3041 -0.0909  0.0687
15566W        W34420   8.651   7.179  13.235  0.0649  0.3269 -0.1099
15567W        W34421   5.000   8.727   1.344 -0.4347  0.0910 -0.1415
15568W        W34422   0.720  14.907   0.912 -0.1865  0.1738 -0.0515
15569W        W34423   3.643  17.281  11.513 -0.0254 -0.3460  0.0241
15570W        W34424   6.332   3.433  14.229 -0.3422 -0.0374  0.1265
15571W        W34425   0.436  15.413   1.926 -0.4960 -0.3557 -0.0192
15572W        W34426   4.582   8.143   3.852  0.2939  0.1803  0.2548
15573W        W34427   7.379  12.563   3.338 -0.2569 -0.1151 -0.0939
15574W        W34428  12.560   5.391   2.845  0.1471  0.2407 -0.1218
15575W        W34429  15.632  14.849   1.119  0.0297 -0.2486  0.3750
15576W        W34430   1.314   5.241  15.154  0.1464 -0.0351  0.1048
15577W        W34431  10.819  11.338   4.447  0.2777 -0.0833  0.0229
15578W        W34432  10.940   2.361  14.911 -0.0072 -0.2037  0.3572
15579W        W34433   0.903  13.424  11.544  0.0413 -0.1333  0.0721
15580W        W34434   7.669   2.175  15.892 -0.1179 -0.0077 -0.1371
15581W        W34435   8.638  17.483   1.403  0.1314 -0.2301  0.0854
15582W        W34436   2.166   7.864  12.689  0.2386  0.0251 -0.0233
15583W        W34437   0.384   7.632  16.090 -0.2268 -0.2526  0.2333
15584W        W34438   2.104  16.314   3.578 -0.0365 -0.0738  0.4682
15585W        W34439  13.321   9.864   0.631 -0.0516  0.1929  0.1573
15586W        W34440   0.197  16.386   0.408  0.2447 -0.0651  0.1849
15587W        W34441   8.718  10.517  13.317  0.1490  0.1022 -0.1303
15588W        W34442   4.531   3.387   1.306 -0.2135 -0.1788  0.5085
15589W        W34443   8.956  11.477   2.922 -0.0010 -0.0256  0.2160
15590W        W34444   2.944  14.951   0.440  0.0221  0.1966  0.1329
15591W        W34445   0.530   4.935  14.105  0.0644 -0.0248 -0.2461
15592W        W34446   9.306  15.149  15.711  0.1327  0.2554  0.3065
15593W        W34447   9.183  14.270   0.198 -0.0063 -0.0711  0.2239
15594W        W34448  15.579   9.295  14.249  0.0016  0.0515  0.1132
15595W        W34449   4.369   1.105  14.200 -0.1019 -0.0884 -0.0416
15596W        W34450   9.202  10.264  14.109  0.3145  0.0919 -0.0718
15597W        W34451  11.910  11.703  11.681 -0.0879  0.0125 -0.0756
15598W        W34452  15.775  14.945  11.525 -0.1093  0.4328 -0.0541
15599W        W34453   1.341  11.086  12.325 -0.1053 -0.2360  0.0008
15600W        W34454  11.148   5.297  14.074 -0.1228 -0.1482  0.0281
15601W        W34455   4.045   7.295   5.043  0.0150 -0.1023  0.1771
15602W        W34456   0.431   9.598   1.092  0.0414  0.1693 -0.2032
15603W        W34457  16.602   2.168  14.201  0.1054  0.1928 -0.2741
15604W        W34458  17.416   3.142  12.323  0.0102 -0.2086 -0.1501
15605W        W34459  16.763  10.015  13.629  0.2900 -0.0139 -0.1774
15606W        W34460   5.376  13.813   2.503 -0.0499  0.0222  0.0398
15607W        W34461  13.080  14.193   2.007  0.0453  0.3048 -0.1690
15608W        W34462  11.219   3.158  15.106  0.0594 -0.1635 -0.0674
15609W        W34463  11.375   5.913  15.122  0.2619  0.0349 -0.0608
15610W        W34464   5.800   6.724   1.806 -0.0140  0.0287  0.3966
15611W        W34465   2.400  15.624  14.072  0.1155 -0.2125  0.2004
15612W        W34466   9.254   4.803  15.467 -0.0327  0.0755 -0.1722
15613W        W34467  13.086   2.182  11.873 -0.1428  0.3335  0.2643
15614W        W34468   1.914  14.777  11.246  0.0181 -0.0975 -0.0717
15615W        W34469   4.120  17.672   5.202  0.0418  0.4852 -0.0443
15616W        W34470  12.324   9.736  15.016 -0.3478 -0.0074 -0.2846
15617W        W34471  14.145   7.168  16.087 -0.1804 -0.1138  0.1248
15618W        W34472  14.004  14.150  14.576  0.1554 -0.2205 -0.1294
15619W        W34473   9.099  17.502   4.058 -0.1701  0.0011 -0.0107
15620W        W34474   4.203  18.001  15.847  0.1881 -0.0419 -0.1830
15621W        W34475   4.175  10.771   4.915 -0.1483  0.0668  0.1095
15622W        W34476  13.989   0.637   5.750  0.1238  0.2096  0.0181
15623W        W34477  13.737  13.125  11.847  0.0475 -0.0950 -0.2156
15624W        W34478  14.814  14.175   2.525 -0.2157 -0.1206  0.0094
15625W        W34479  10.674  15.962   2.452 -0.0347 -0.2747 -0.0301
15626W        W34480   2.188  14.339  12.447  0.3254 -0.0829  0.1560
15627W        W34481  12.257  15.209  13.260 -0.0287 -0.0361 -0.2220
15628W        W34482   4.130  14.880  13.861  0.0922 -0.1774  0.0082
15629W        W34483   8.254   1.983   2.001  0.1920  0.0193  0.1232
15630W        W34484   6.448   5.230  12.226 -0.0371 -0.2493  0.2617
15631W        W34485  11.355   2.146  15.197  0.1891  0.5077 -0.0873
15632W        W34486  16.177  17.417   3.725  0.4250 -0.2171  0.2323
15633W        W34487   5.125  10.347  14.449  0.1801  0.0114  0.0595
15634W        W34488  11.291  17.472   0.420 -0.1986  0.2381  0.1290
15635W        W34489  16.983   3.278  12.534  0.1537  0.0704 -0.3067
15636W        W34490  10.006   7.092   3.171  0.1252  0.0031 -0.4484
15637W        W34491   6.341   9.552  14.076 -0.3407 -0.0503 -0.1126
15638W        W34492   0.069  13.718   2.878  0.0629  0.3649 -0.0272
15639W        W34493  16.738   3.721  12.376  0.1518 -0.2087 -0.1265
15640W        W34494   7.626  16.521   3.874 -0.0472  0.0196  0.1583
15641W        W34495   4.794  13.658   2.880 -0.1743 -0.0384 -0.2169
15642W        W34496  11.428   0.022   3.430 -0.0181  0.0189  0.0727
15643W        W34497  11.537   4.848  15.390 -0.3697 -0.3425 -0.3057
15644W        W34498   1.455  17.663   1.004 -0.0834 -0.1155  0.0248
15645W        W34499   3.524  10.806   1.366 -0.1643  0.0985  0.3370
15646W        W34500  15.999   1.922  15.795 -0.0655  0.0176 -0.2158
15647W        W34501  12.919   8.785  14.128  0.0496 -0.0929 -0.0165
15648W        W34502  17.744  16.271  13.441 -0.1566 -0.0108  0.1846
15649W        W34503  13.359  17.971   1.015 -0.0141  0.2874 -0.1516
15650W        W34504   4.575   7.480   2.123 -0.0017  0.5096 -0.0416
15651W        W34505   1.394   7.820   4.279 -0.1223  0.3184  0.0742
15652W        W34506  15.248  15.419  14.578 -0.2519  0.3330 -0.2672
15653W        W34507  14.945   1.430   2.040  0.1534 -0.2847 -0.0899
15654W        W34508  15.771   1.397   4.473  0.1090 -0.4999 -0.0292
15655W        W34509   1.176  12.133  15.048 -0.1689  0.1017 -0.2059
15656W        W34510  14.265   5.567   2.888  0.3660 -0.3350 -0.3010
15657W        W34511  10.145   1.232  12.027 -0.0893  0.3175  0.0314
15658W        W34512   2.828   7.596   3.117  0.1750  0.0180 -0.0287
15659W        W34513  12.742   2.717  13.680 -0.1167 -0.0015 -0.3572
15660W        W34514  10.220   7.089   4.081  0.1892  0.2011 -0.0608
15661W        W34515  11.806   1.498  12.832  0.2322 -0.1905 -0.0488
15662W        W34516   6.060  14.563   4.234 -0.0670  0.0670 -0.0617
15663W        W34517  15.661  11.421  12.912 -0.0460  0.2574 -0.0207
15664W        W34518  14.399   5.262  14.386  0.0404  0.4296 -0.0870
15665W        W34519  17.522  15.044  11.584 -0.1709  0.2643 -0.0863
15666W        W34520   1.763  16.456  14.960  0.1438 -0.2824  0.2032
15667W        W34521   0.178   9.163  10.047  0.0363 -0.0130  0.2806
15668W        W34522   6.366   5.013  15.477 -0.1442  0.1274  0.2826
15669W        W34523   2.835   5.268   1.834  0.0177  0.0206  0.1290
15670W        W34524   1.450   7.210  14.331  0.0352  0.1046  0.0694
15671W        W34525  11.760  16.683  11.713 -0.2575  0.0141  0.2972
15672W        W34526   0.254   6.782   1.517  0.3344 -0.0736 -0.1240
15673W        W34527  13.666  10.338   4.224 -0.1132  0.0571  0.2133
15674W        W34528   2.212   3.872  13.154  0.0705 -0.0482 -0.2972
15675W        W34529  13.255   2.895  12.209 -0.0426 -0.0072 -0.1039
15676W        W34530   4.474  16.425  14.188 -0.0917 -0.3971  0.0059
15677W        W34531  17.237   3.357   0.722 -0.0962 -0.1691  0.0507
15678W        W34532  15.435   0.938  13.306 -0.1106 -0.3890  0.0423
15679W        W34533   4.922   6.079   4.250  0.0440  0.1758  0.1763
15680W        W34534  13.546  14.172   0.532  0.0957 -0.5250 -0.0560
15681W        W34535  15.804   3.700   2.772  0.2993 -0.1101  0.0622
15682W        W34536   3.638  12.515   3.518 -0.1302 -0.2401 -0.0093
15683W        W34537   5.418   0.225  14.113 -0.0233 -0.1331 -0.4202
15684W        W34538   2.518   7.988   0.554 -0.0205 -0.0609  0.0052
15685W        W34539   2.924   4.564  14.799 -0.0944  0.2697 -0.0887
15686W        W34540   3.535  12.049   3.415 -0.3702  0.3706  0.3731
15687W        W34541   5.419   3.433  14.546 -0.0035 -0.2497  0.2851
15688W        W34542  16.069  15.857   0.055  0.0603 -0.0199  0.0537
15689W        W34543  13.191   4.532   2.180  0.0891 -0.1880 -0.0190
15690W        W34544   0.010   9.272   1.817 -0.3499 -0.0170  0.0103
15691W        W34545   7.007   1.553   3.258  0.0209 -0.0019  0.0225
15692W        W34546   8.825   0.760   0.772 -0.2065  0.2065 -0.0930
15693W        W34547   6.022  10.799   4.229  0.1088  0.0269 -0.0352
15694W        W34548   5.940  17.365  16.176 -0.1212 -0.0702 -0.1858
15695W        W34549   1.597   1.883  14.820 -0.0633 -0.1940  0.1453
15696W        W34550   1.556  13.586  13.105  0.1191  0.0021  0.0374
15697W        W34551   5.626  17.752  13.247 -0.2197 -0.0493  0.3747
15698W        W34552   2.945   1.357   3.491  0.0737  0.4171 -0.0205
15699W        W34553  10.825  12.031   1.038  0.2268 -0.1133 -0.2840
15700W        W34554   3.104   9.538  14.185 -0.1274 -0.1011 -0.2815
15701W        W34555   7.906  13.649   1.207  0.3081  0.1005 -0.1395
15702W        W34556  15.270   6.169   0.799  0.0413  0.1706  0.2139
15703W        W34557  14.308   4.128  15.446 -0.2154 -0.2174  0.2005
15704W        W34558   0.501  17.125  14.355  0.2514  0.0511  0.0196
15705W        W34559   1.432   8.437  15.047 -0.0535 -0.0015  0.3849
15706W        W34560  12.222   3.667   4.161 -0.1226 -0.1452 -0.1171
15707W        W34561  16.660   6.456  15.489  0.2438 -0.0370 -0.0254
15708W        W34562  17.436   4.262  14.125 -0.1276 -0.0067 -0.3181
15709W        W34563   4.416  11.985  11.525 -0.2450 -0.1312  0.0838
15710W        W34564   4.744   6.278   0.214  0.1513  0.2751 -0.2687
15711W        W34565  12.113   0.952  11.159  0.0675 -0.0742 -0.1553
15712W        W34566   7.872   1.408  14.742 -0.0198  0.0815  0.0665
15713W        W34567   8.200  15.587  13.401 -0.3311  0.1836 -0.1500
15714W        W34568   8.708  13.234   1.805  0.0996 -0.2268 -0.0835
15715W        W34569   4.144  16.737   1.517  0.0529 -0.4347  0.2082
15716W        W34570   1.217  16.684  13.781 -0.2299 -0.2065  0.1567
15717W        W34571  14.100   8.430  12.959  0.1943 -0.0585  0.1437
15718W        W34572  10.395  14.865  12.961  0.0370 -0.0783 -0.1941
15719W        W34573   6.005   6.818  14.868 -0.0295 -0.4129  0.1805
15720W        W34574  15.454   0.439   0.261 -0.1626  0.0705 -0.0559
15721W        W34575   0.329  17.519   2.381  0.0819  0.4154 -0.2323
15722W        W34576   2.373  11.850   4.028 -0.0394  0.3701 -0.0911
15723W        W34577   4.560  13.408   2.107 -0.2603  0.0384  0.1614
15724W        W34578  12.318   9.663   1.594  0.1149 -0.0155 -0.0752
15725W        W34579  13.493   1.233  11.937 -0.1341 -0.3012 -0.0249
15726W        W34580  13.949  14.185   3.180 -0.2497  0.1942 -0.1255
15727W        W34581   8.997   5.453  14.327 -0.3094  0.0349 -0.0180
15728W        W34582   8.114  14.368   0.166 -0.0762  0.1445 -0.1434
15729W        W34583  10.638   3.758   3.221  0.0910  0.1174 -0.0043
15730W        W34584   0.508   1.033   0.776  0.0543 -0.2392 -0.2245
15731W        W34585  11.592   4.974  14.905 -0.0141  0.0319  0.1395
15732W        W34586   3.231   7.476   2.725  0.1620  0.0067  0.0254
15733W        W34587   7.785  13.402  11.979  0.1675  0.2725  0.3989
15734W        W34588  15.575  12.204   2.410  0.2772  0.0969 -0.0243
15735W        W34589   0.929  11.939   1.373 -0.2177 -0.0442 -0.1986
15736W        W34590   1.327   7.456  15.759 -0.0885 -0.1778  0.0815
15737W        W34591   4.872  11.557  12.889  0.0976  0.3099 -0.1494
15738W        W34592  15.738   2.650  12.413  0.1318  0.1986  0.1129
15739W        W34593   8.283   3.635   3.881 -0.0638  0.0391  0.0612
15740W        W34594  10.681   5.612   4.194  0.2233  0.3154  0.0417
15741W        W34595   2.352  11.335   4.098 -0.2233  0.0570 -0.2821
15742W        W34596   8.293  13.770  15.255  0.1423  0.1864 -0.1378
15743W        W34597  14.731   1.429  15.488 -0.1605  0.0213  0.2661
15744W        W34598  15.481  17.712   4.195 -0.5015 -0.3023  0.1852
15745W        W34599   1.795  13.723   3.900 -0.3242 -0.0635  0.0395
15746W        W34600  16.732  16.430   5.762  0.0679 -0.0937 -0.0000
15747W        W34601  12.783   2.795  11.372 -0.1654 -0.1381  0.0159
15748W        W34602  12.598   3.657   3.299 -0.3017 -0.2485 -0.0696
15749W        W34603  14.936   0.635   0.913  0.2095 -0.2147  0.0751
15750W        W34604   0.195   9.965  11.831  0.1148  0.3180 -0.0465
15751W        W34605  14.248   2.465   2.814 -0.2702  0.2305 -0.0208
15752W        W34606   2.356   6.478   1.683 -0.0519 -0.0230 -0.3902
15753W        W34607  14.017  10.020  15.060  0.0856  0.0774 -0.0143
15754W        W34608   3.810   4.778   3.466 -0.3136  0.0059  0.1343
15755W        W34609  17.036  14.550   2.584  0.1997  0.1971 -0.2953
15756W        W34610  11.513  11.306   3.521  0.1766 -0.1855  0.0320
15757W        W34611  13.285  17.188   4.217  0.2761  0.1387 -0.2410
15758W        W34612   4.298  10.316  14.988 -0.1134 -0.0968  0.0343
15759W        W34613   2.554  14.804   1.293 -0.0876  0.0478  0.0763
15760W        W34614  11.005   7.908   3.634 -0.1398  0.5310  0.3791
15761W        W34615   8.382   8.186   0.625  0.0586  0.1946  0.0058
15762W        W34616  17.365  17.404  12.868 -0.0385  0.2194  0.2014
15763W        W34617   1.498  16.943   3.785  0.0911  0.3531 -0.2684
15764W        W34618  14.118   7.646  13.000 -0.2908 -0.1454 -0.0311
15765W        W34619  17.640  12.501  11.270 -0.0419  0.0621 -0.1195
15766W        W34620  13.331  17.924  12.261  0.1845  0.2469  0.0975
15767W        W34621  15.755  10.105  11.567  0.2278  0.2607  0.2148
15768W        W34622   1.188  16.707   1.960  0.0571  0.2032 -0.0021
15769W        W34623   4.621   5.834  15.543  0.2229  0.2316  0.1326
15770W        W34624   1.531   8.815   0.195 -0.4610  0.0237 -0.3994
15771W        W34625   6.190   2.870  11.776  0.0887 -0.1729 -0.1047
15772W        W34626  15.711   8.733  11.744  0.1651  0.0562  0.0243
15773W        W34627  12.096   6.380  15.363  0.0563 -0.1471  0.0749
15774W        W34628  10.733   4.818   2.343 -0.2610 -0.0674 -0.0216
15775W        W34629   8.800   0.249  16.110  0.1167  0.1998  0.0720
15776W        W34630  16.300   5.553   3.601 -0.2848  0.3219  0.1070
15777W        W34631   1.642   3.160   3.044  0.0507 -0.2334  0.0392
15778W        W34632  11.083  16.152  14.030  0.2660 -0.0361 -0.1812
15779W        W34633   8.120   6.422  15.663 -0.0341 -0.2508 -0.1047
15780W        W34634  16.022   8.917  14.755  0.1108 -0.3074  0.3300
15781W        W34635   8.717   3.886  14.106  0.0972  0.0743  0.1440
15782W        W34636   0.732  14.106   3.724  0.1506 -0.0786 -0.1651
15783W        W34637   9.383  15.320   1.406  0.0315 -0.0946 -0.4112
15784W        W34638  12.063  13.759   2.376 -0.0511  0.0593  0.2973
15785W        W34639  14.756   0.247   2.822  0.1230  0.0823  0.2287
15786W        W34640  11.506  11.231  10.865  0.1880  0.0145 -0.1119
15787W        W34641   6.297  13.655   1.536  0.0776  0.1623 -0.0285
15788W        W34642  12.710  10.934  13.642  0.0599 -0.1707  0.0196
15789W        W34643  13.343   7.515   3.131 -0.3133 -0.0961  0.0009
15790W        W34644   3.663   8.229  16.195  0.1990 -0.3123  0.1477
15791W        W34645  15.281  12.919   0.773  0.4395  0.1262  0.1220
15792W        W34646   1.138   1.924   1.095  0.1479  0.2791 -0.0135
15793W        W34647  12.391  17.812   4.694  0.0419  0.2650  0.2411
15794W        W34648  12.018  12.653  12.216 -0.1307 -0.3429 -0.0668
15795W        W34649  12.649   8.853   3.817 -0.0545 -0.1394 -0.1990
15796W        W34650  16.503  16.973   0.932  0.1037 -0.0056 -0.1810
15797W        W34651   3.836   9.387   5.654 -0.1733 -0.0882  0.0366
15798W        W34652   7.184  14.976  12.510  0.0322  0.2201 -0.2585
15799W        W34653  15.126   7.020   1.904 -0.1057  0.2377  0.1321
15800W        W34654  16.276  14.924  15.610 -0.0768 -0.0396  0.0858
15801W        W34655  17.230   7.109  13.900 -0.0588 -0.0226 -0.1005
15802W        W34656   0.369  11.641   1.182 -0.0429 -0.0530 -0.1715
15803W        W34657  12.361  13.861   1.534  0.0833 -0.2424 -0.1522
15804W        W34658  14.541  11.175   3.427  0.1068  0.2834 -0.2564
15805W        W34659  14.990  15.926  15.945  0.1144 -0.1886 -0.1561
15806W        W34660   8.922   3.741   1.291 -0.1414  0.1501  0.1020
15807W        W34661   8.324   6.935   4.699 -0.1970  0.2180 -0.0833
15808W        W34662   9.521  14.847   1.160  0.1147  0.3490  0.1605
15809W        W34663  11.104   6.540  12.046 -0.3223 -0.0318  0.0718
15810W        W34664  15.790   0.275   3.539  0.0734  0.0777 -0.1543
15811W        W34665   5.012   0.449  11.465  0.0558 -0.0258 -0.3081
15812W        W34666   6.778   3.467  11.405 -0.0039 -0.2626  0.0315
15813W        W34667  12.514   8.286  11.688  0.1531  0.0214  0.0166
15814W        W34668  17.045   9.525   1.560  0.0110 -0.2728  0.1065
15815W        W34669   6.476   9.071  14.254 -0.1023 -0.1296 -0.1242
15816W        W34670   6.978  16.038  13.449  0.1588  0.2287  0.1003
15817W        W34671   7.911  12.415  12.646 -0.3613  0.1721  0.1786
15818W        W34672   7.876   0.330   1.508 -0.0887 -0.0579 -0.1672
15819W        W34673   1.570   0.167  14.719 -0.2534 -0.0363 -0.1276
15820W        W34674   9.100   5.295   3.784  0.1050  0.1877 -0.0916
15821W        W34675  17.991   9.322   5.514 -0.0617 -0.2481 -0.1426
15822W        W34676  16.441  15.811   3.668 -0.0041  0.1575 -0.0183
15823W        W34677  11.393   1.042  13.698  0.3133 -0.2155 -0.3352
15824W        W34678  15.421  16.968   4.692 -0.0370  0.0829 -0.1525
15825W        W34679  13.264  17.757   2.250  0.1719 -0.1600 -0.1127
15826W        W34680  17.515  17.386  13.808 -0.1178 -0.1563  0.1235
15827W        W34681  17.394   7.817  11.884 -0.0961 -0.3582 -0.0343
15828W        W34682   8.098  12.238   1.137  0.0851  0.1353  0.0170
15829W        W34683   0.592  10.878  13.069  0.0984 -0.0341 -0.1767
15830W        W34684   3.282  12.537  12.271  0.1436 -0.2150  0.3590
15831W        W34685  13.665   1.889   2.095 -0.0006 -0.4632 -0.0882
15832W        W34686  14.607   8.860  15.897 -0.2078  0.0160 -0.0267
15833W        W34687  16.575  16.116   4.110 -0.1471  0.0228  0.0682
15834W        W34688   4.324   7.832   1.074  0.2006 -0.1847 -0.0575
15835W        W34689  11.357   3.607  13.750  0.0844 -0.0555  0.0717
15836W        W34690   7.012  15.995  14.866 -0.1002 -0.0822 -0.1336
15837W        W34691   6.612   1.046   1.041 -0.2854 -0.2031 -0.1192
15838W        W34692   6.393   2.327   0.430  0.0978  0.0178 -0.0613
15839W        W34693  12.608  11.436   0.547  0.0677  0.2639 -0.1250
15840W        W34694   1.285  16.121   4.125 -0.3490  0.0356  0.1204
15841W        W34695   4.810   4.152   4.064 -0.0680 -0.0970 -0.0588
15842W        W34696  15.455   6.378  11.747  0.1145  0.1727 -0.1454
15843W        W34697   3.066  12.477  14.091  0.0653 -0.0568  0.0744
15844W        W34698   7.237  10.206   4.560 -0.1302 -0.1633 -0.2842
15845W        W34699  13.221   6.136   3.025 -0.2617 -0.0649 -0.0297
15846W        W34700  13.016   6.346  13.686  0.0131 -0.0357 -0.2138
15847W        W34701  12.390   8.809  12.503 -0.1473 -0.3926 -0.3293
15848W        W34702   9.327   2.194   0.085  0.2437  0.0507  0.1765
15849W        W34703   5.641   3.517  16.165  0.0844 -0.1509 -0.4155
15850W        W34704   2.693  15.581  12.681 -0.0245 -0.0029 -0.0009
15851W        W34705   1.537   2.748   2.699  0.3089  0.1900 -0.0615
15852W        W34706   6.179  10.756  13.038 -0.3009  0.2587 -0.0421
15853W        W34707  11.903  11.486   4.313  0.0170 -0.0078 -0.0042
15854W        W34708   5.952  11.996  11.686  0.1369 -0.1389  0.3265
15855W        W34709   4.272  14.679   0.688 -0.0909  0.2591  0.2013
15856W        W34710   6.722   5.929  13.152  0.0253  0.0259 -0.0001
15857W        W34711   2.713  14.333  13.761 -0.4976  0.1112  0.1954
15858W        W34712   6.776  15.582   2.361 -0.1292 -0.0786 -0.2562
15859W        W34713  13.007   1.405  15.816  0.2808 -0.0677  0.1085
15860W        W34714  13.066   5.542  15.277 -0.5778 -0.1491 -0.2433
15861W        W34715  11.835  17.563  15.853 -0.0359 -0.1431  0.0945
15862W        W34716   4.007  14.031   1.997 -0.3291 -0.0471  0.0460
15863W        W34717  14.844   8.024   5.603  0.1808  0.1701  0.0001
15864W        W34718   1.997  15.624   5.184  0.1554  0.2659  0.1759
15865W        W34719  12.287   7.509   3.964 -0.1666 -0.3683 -0.0950
15866W        W34720   6.063   2.458   3.961 -0.0730 -0.0793  0.1922
15867W        W34721  17.371   9.979  11.680  0.0181  0.0786 -0.3109
15868W        W34722   6.146  15.437   1.202  0.2118  0.1807  0.0428
15869W        W34723   2.616   8.890   3.412  0.1152  0.0719  0.3193
15870W        W34724  14.642   6.484  11.304  0.1664 -0.1544 -0.2523
15871W        W34725   9.611  11.086   2.123  0.1189  0.1429  0.0897
15872W        W34726  15.416   5.855   3.199 -0.0976 -0.0683 -0.1113
15873W        W34727   6.967  11.646   0.844  0.1308 -0.3202  0.3712
15874W        W34728   9.792   7.645   1.619 -0.1392  0.2610 -0.2403
15875W        W34729  15.797   4.710   4.596  0.4500  0.1552  0.0458
15876W        W34730   6.598  13.622  10.687  0.2233 -0.0813 -0.0290
15877W        W34731   2.940   2.880  14.113 -0.1107 -0.1543 -0.0285
15878W        W34732   4.074  17.737   1.161  0.0689  0.3531 -0.0162
15879W        W34733  16.639  12.959  12.150 -0.1303 -0.1781  0.0217
15880W        W34734  13.489  15.020   0.115 -0.4321  0.2315  0.0986
15881W        W34735   4.938  14.756  13.593  0.1784  0.1732  0.2164
15882W        W34736   9.092   5.452  12.899  0.0280 -0.0178  0.0880
15883W        W34737   7.332  16.179  15.221 -0.0619 -0.1378  0.1593
15884W        W34738   7.780   3.632  16.207  0.1162  0.1902  0.0300
15885W        W34739  17.975  15.862  14.091  0.2202 -0.3101 -0.0610
15886W        W34740  12.328  17.711  15.739 -0.0099  0.0278  0.1797
15887W        W34741   5.574   9.959  15.132 -0.0827 -0.1591  0.1277
15888W        W34742  12.431  10.944   2.280  0.5175  0.2649 -0.2084
15889W        W34743   1.790  10.782   4.643 -0.1627 -0.0899 -0.0786
15890W        W34744  10.326   8.923  14.155  0.1976  0.0822  0.1613
15891W        W34745  10.270  11.433   2.980  0.2591  0.2420 -0.0818
15892W        W34746  17.007  11.180   3.721  0.0528 -0.1951 -0.0453
15893W        W34747  10.214   1.681   2.445  0.3892 -0.1643 -0.1919
15894W        W34748   8.402  10.865  14.171  0.1331 -0.0572  0.2090
15895W        W34749   8.010  13.768  12.440 -0.3441  0.0125 -0.3885
15896W        W34750   6.688   7.638   4.649 -0.2058 -0.1186  0.1128
15897W        W34751   5.995   1.984  14.376 -0.2195 -0.1609 -0.1087
15898W        W34752  14.518  16.315   5.006 -0.1538  0.0168  0.3041
15899W        W34753  15.761  17.366   4.684 -0.0239 -0.0089  0.0539
15900W        W34754  12.005   5.733   4.307 -0.1086  0.1850 -0.2780
15901W        W34755   2.821   7.228  13.610  0.0248 -0.1648  0.2050
15902W        W34756  13.147   7.437   4.581  0.2261  0.1292 -0.0083
15903W        W34757  14.751  10.984  14.350  0.2020 -0.1935  0.1311
15904W        W34758   1.506   5.442  15.592  0.1924  0.0001 -0.2086
15905W        W34759  17.758  15.916  12.479  0.3506  0.0464  0.0782
15906W        W34760  16.145   2.904  12.606  0.5655  0.1541 -0.2164
15907W        W34761  15.788  15.062   0.265  0.4684  0.0132 -0.0312
15908W        W34762   7.936   4.203   3.888 -0.0358  0.2031  0.2590
15909W        W34763   4.400   4.836  15.330 -0.1026  0.0314  0.2198
15910W        W34764   7.877  11.412   4.472 -0.1590 -0.0985 -0.2316
15911W        W34765  10.325  12.923  15.428 -0.0986  0.0678 -0.4514
15912W        W34766   2.704   9.140  12.580  0.3028  0.4476  0.2128
15913W        W34767  10.461  11.575  12.284 -0.0914 -0.0350  0.2538
15914W        W34768  13.368   1.658  13.567 -0.2111  0.0449  0.1114
15915W        W34769  10.830   3.341  13.563 -0.0622 -0.1234  0.3150
15916W        W34770   9.218   6.685   1.926 -0.3869 -0.0436 -0.0448
15917W        W34771   4.051  15.059   4.035 -0.2505  0.0831  0.2451
15918W        W34772   0.584   1.255  13.739 -0.0644 -0.1974  0.0998
15919W        W34773   6.564   0.149   4.617  0.0618 -0.0840 -0.2537
15920W        W34774  12.134   0.185  11.689  0.1935 -0.0583  0.4514
15921W        W34775   5.115  10.002   2.941 -0.0856  0.1776 -0.0694
15922W        W34776  15.903  17.139   2.275 -0.1656 -0.1100  0.1843
15923W        W34777   2.920   9.507   1.946 -0.1235  0.1175  0.3084
15924W        W34778   4.932   2.694   4.591  0.0710 -0.2023 -0.1159
15925W        W34779  16.744   1.810   3.025 -0.0240  0.3237 -0.1923
15926W        W34780   5.456  17.018   3.758 -0.0786  0.0378 -0.0506
15927W        W34781  16.757   4.022   2.382 -0.2075 -0.0203  0.0162
15928W        W34782   7.409  12.476  11.379 -0.2372  0.3206  0.0615
15929W        W34783  16.368   8.520   0.276 -0.1187  0.0021  0.1714
15930W        W34784  13.075  10.599  13.735  0.2303  0.0185  0.0863
15931W        W34785   1.889  14.686  14.752  0.0192 -0.2375  0.1789
15932W        W34786   8.864  13.501  15.368  0.0604  0.1527 -0.1932
15933W        W34787  16.344  17.867   2.704  0.1111  0.0559  0.0663
15934W        W34788  13.722  13.599  14.527  0.3239 -0.2381  0.0339
15935W        W34789  10.258  17.011  11.616  0.0928 -0.1077 -0.1638
15936W        W34790   6.579  12.835  15.708  0.0201  0.0744 -0.1373
15937W        W34791  16.469   5.871  12.663  0.1023  0.2473  0.2294
15938W        W34792  16.053   8.601  13.103 -0.2297  0.0126  0.2561
15939W        W34793  14.010   8.117  14.777  0.0427 -0.0860 -0.0564
15940W        W34794  10.429  10.749   0.890  0.0414  0.2592 -0.0950
15941W        W34795  17.705   9.996  14.877 -0.0498 -0.3277  0.0407
15942W        W34796  17.277   3.464   1.230  0.0443 -0.1729  0.0044
15943W        W34797   1.222  11.926   2.040  0.0058 -0.1395  0.0741
15944W        W34798   7.775  14.474  14.292 -0.1391 -0.0440 -0.2382
15945W        W34799   6.228   6.937  12.353  0.1784 -0.1166 -0.0185
15946W        W34800   2.671  14.119  16.091  0.3557 -0.0728  0.1356
15947W        W34801   8.633  10.386   2.850 -0.5039 -0.0377  0.2132
15948W        W34802   7.720   0.872   0.398 -0.2131 -0.1997  0.0525
15949W        W34803   1.389   6.726   3.238  0.2617 -0.0878  0.2623
15950W        W34804   5.279  10.350  12.300 -0.1764 -0.0237  0.2552
15951W        W34805   6.495  15.182  11.934 -0.1058  0.1483 -0.1089
15952W        W34806  15.909   4.552  12.852  0.1081  0.1448 -0.2075
15953W        W34807   1.685  15.979   2.099 -0.0902 -0.2710 -0.0488
15954W        W34808   1.335  13.530   2.589 -0.0338  0.0197 -0.2666
15955W        W34809   2.701   1.146   3.141 -0.0537  0.1097 -0.0664
15956W        W34810  10.848  13.237   3.452 -0.1781  0.2770 -0.0161
15957W        W34811  12.362   4.743   2.328 -0.1903  0.0115 -0.1113
15958W        W34812  12.564  12.645   4.974 -0.0326 -0.0587  0.0965
15959W        W34813   7.666   5.897   1.519  0.0527 -0.1326  0.2066
15960W        W34814  14.939  16.716  14.562  0.0362  0.2485 -0.1972
15961W        W34815   0.736  11.292   1.536  0.0941 -0.0120  0.0945
15962W        W34816  12.431  13.903   2.722  0.1246  0.0422  0.0517
15963W        W34817   1.826  12.050  11.332 -0.0851  0.4295 -0.0196
15964W        W34818   1.751   0.033  13.408  0.2343 -0.1304  0.1873
15965W        W34819  17.069  13.608   3.511 -0.1664 -0.0945  0.1392
15966W        W34820   8.143  13.443  12.837 -0.1525 -0.3187 -0.1131
15967W        W34821   1.451   7.234   2.024 -0.1942 -0.1178 -0.1932
15968W        W34822   7.492   3.601   4.899  0.0824  0.1066  0.2553
15969W        W34823   1.192   1.180   4.581  0.0652 -0.0935  0.1005
15970W        W34824  12.355   3.458  13.905 -0.1280 -0.4201  0.3114
15971W        W34825   7.482   3.012   3.968 -0.3406 -0.0554 -0.3093
15972W        W34826  11.743  13.098  12.863 -0.0424 -0.2038  0.0921
15973W        W34827   0.056   7.393  11.078  0.1806  0.1089  0.0329
15974W        W34828  17.531   2.030   3.058 -0.0186  0.0565 -0.0460
15975W        W34829   4.023  16.903   2.362 -0.0332  0.1808 -0.0489
15976W        W34830   0.613   4.183   2.074 -0.1079  0.0894 -0.0367
15977W        W34831   6.316   5.712   1.029 -0.0478  0.1713  0.1815
15978W        W34832   5.798  17.974  16.181 -0.1040  0.1405 -0.0599
15979W        W34833  14.197   6.815  13.659  0.2310  0.0877  0.0008
15980W        W34834   9.447   9.027  16.009 -0.2521 -0.1543  0.0312
15981W        W34835   2.801  17.792  15.169 -0.0588 -0.0179  0.1034
15982W        W34836  15.266  13.013   1.291 -0.0691 -0.1516  0.1919
15983W        W34837  16.034   4.518  13.413 -0.0122 -0.0691  0.1168
15984W        W34838  10.991   9.431  12.053  0.3166 -0.2507 -0.2301
15985W        W34839   2.449   5.021  14.635 -0.2915  0.1106 -0.1003
15986W        W34840  12.477  14.871   3.095  0.2256 -0.2951  0.0397
15987W        W34841   1.959  11.614  11.138  0.0966  0.1909  0.0040
15988W        W34842  12.289  15.906   0.983 -0.2212 -0.1270  0.1908
15989W        W34843   3.277  11.722   3.788  0.2707  0.0235  0.2298
15990W        W34844  13.690   6.938  16.173  0.1076  0.2048 -0.0377
15991W        W34845  13.096   3.624   2.004  0.1241  0.0191  0.0434
15992W        W34846   1.085   8.701  16.131  0.2228 -0.0143 -0.1864
15993W        W34847  15.533  17.254   5.161  0.0070  0.0256 -0.0670
15994W        W34848   5.236  11.281  14.843  0.0786 -0.0373  0.2560
15995W        W34849  15.478   9.883  15.685 -0.0013  0.0398 -0.0146
15996W        W34850  12.814   8.469   0.517 -0.3596 -0.3615 -0.1048
15997W        W34851   5.202   8.367  13.810 -0.2217  0.1567 -0.3603
15998W        W34852  17.099   9.828  12.193  0.0872 -0.7140 -0.0911
15999W        W34853  10.821  16.874  13.080 -0.0541 -0.0378 -0.1041
16000W        W34854   1.575  11.989  13.756 -0.0984  0.3710  0.4192
16001W        W34855  13.940   1.510  11.707 -0.1020  0.1187  0.0655
16002W        W34856  15.605  14.324   0.987  0.1466  0.0847 -0.1955
16003W        W34857  12.231  11.695   3.996 -0.1059  0.2337 -0.1373
16004W        W34858   4.658  13.054  14.913  0.0291  0.2472  0.0967
16005W        W34859   4.780  12.974  12.273 -0.2736 -0.2562 -0.0301
16006W        W34860   9.147   7.009  14.196  0.2107  0.4018 -0.1426
16007W        W34861   4.235   7.415   0.104  0.1964  0.0340  0.2094
16008W        W34862   1.155   5.597   1.570  0.3117 -0.1365 -0.0840
16009W        W34863  13.401  12.815  15.027 -0.0947 -0.0025  0.2022
16010W        W34864   4.055  10.585   2.645 -0.0359 -0.1963 -0.1156
16011W        W34865   7.403  12.287  12.979  0.0041 -0.0264 -0.1229
16012W        W34866   1.594  15.181   1.066  0.3524 -0.0922  0.1520
16013W        W34867   2.273   4.159   2.589 -0.2979 -0.0160  0.0950
16014W        W34868  15.779   0.944   1.309  0.3229  0.2363  0.0600
16015W        W34869  10.167   5.646   2.411 -0.0634 -0.2763  0.0586
16016W        W34870  12.962   8.328  13.910  0.1358  0.0891 -0.1870
16017W        W34871  17.368   8.193  12.817 -0.3005  0.1186 -0.2035
16018W        W34872  10.253   6.381   3.874  0.0026 -0.1679 -0.4439
16019W        W34873  16.558   3.290   3.738  0.0117 -0.2955  0.0376
16020W        W34874  17.214   8.570   1.062 -0.0309  0.4091 -0.4448
16021W        W34875   7.515  17.650  15.517 -0.0326 -0.1244 -0.1270
16022W        W34876   0.706  10.476  14.745  0.1230  0.0508 -0.0716
16023W        W34877   4.791   8.942  15.504  0.0993  0.2231  0.0167
16024W        W34878  17.351  17.084  12.350 -0.2412 -0.1067  0.1212
16025W        W34879   2.313  15.454   3.168  0.1816 -0.1943 -0.0073
16026W        W34880  15.973  12.869  14.416 -0.1257 -0.2263 -0.2495
16027W        W34881   6.340   3.780  13.859  0.0161  0.1561  0.4346
16028W        W34882  17.520  16.058   5.553 -0.1429  0.2833  0.1020
16029W        W34883   5.443  12.622   2.401 -0.0113 -0.1108 -0.2472
16030W        W34884  10.273   9.149  11.422  0.1412 -0.0898 -0.1733
16031W        W34885   1.067  14.078   4.782  0.0071  0.1089  0.1392
16032W        W34886  17.276  10.222   2.331 -0.0855 -0.0762  0.0680
16033W        W34887  11.066   2.721  12.614  0.0838 -0.2647 -0.2873
16034W        W34888  16.050   7.888  12.358 -0.0831 -0.2830  0.4727
16035W        W34889  12.081   4.986   4.011 -0.1551  0.2114  0.0555
16036W        W34890   0.442   9.403  14.273  0.1110 -0.3398 -0.1385
16037W        W34891  13.332   4.083   3.123  0.1242 -0.0339  0.0991
16038W        W34892  16.694   5.679   1.291 -0.0690 -0.0350  0.0443
16039W        W34893   2.947  12.694  15.057 -0.0368 -0.1449 -0.0503
16040W        W34894  17.061  12.417  12.829  0.0302  0.1771  0.3133
16041W        W34895   1.756  12.339  12.191  0.3131  0.1108  0.1049
16042W        W34896  15.152  12.299   5.884  0.3887 -0.0154 -0.1923
16043W        W34897  11.294  17.533   4.781  0.0271  0.0413 -0.2073
16044W        W34898   2.066   2.113   0.886 -0.1566 -0.2736  0.1420
16045W        W34899   7.535   4.622  13.655 -0.0816  0.1417 -0.2488
16046W        W34900  16.412   9.199  15.118 -0.2658  0.0884 -0.2600
16047W        W34901   0.664   8.735  12.727  0.1491 -0.2984 -0.1955
16048W        W34902   4.447   9.613  14.579  0.0300  0.0684  0.1336
16049W        W34903  14.916   0.609   2.454 -0.0609 -0.0890 -0.1874
16050W        W34904  15.717   1.180  14.734  0.0517  0.1280  0.1823
16051W        W34905   6.330   9.813  15.007  0.1520 -0.0518 -0.2778
16052W        W34906   3.666  10.917  14.643  0.0900  0.0191 -0.0239
16053W        W34907   3.119  13.822   2.400  0.5015 -0.0536  0.2529
16054W        W34908  13.259  17.079  12.281 -0.0285 -0.1915  0.2602
16055W        W34909  14.369  10.555  15.890  0.0669  0.2799  0.0569
16056W        W34910  17.627   2.389  12.714  0.2160  0.1929  0.2428
16057W        W34911  13.149   6.610  14.102 -0.1874  0.1288 -0.2416
16058W        W34912  12.415   8.210  13.861  0.2311 -0.0539 -0.2674
16059W        W34913   8.383   2.148  12.567  0.2433  0.2343  0.2719
16060W        W34914   9.660  10.400   6.093 -0.0370  0.2356  0.1348
16061W        W34915   8.904  12.001   5.369  0.2072 -0.2523 -0.0016
16062W        W34916  16.610   4.958   4.180 -0.1662 -0.2273 -0.0598
16063W        W34917   3.294   0.908   2.566  0.0681 -0.1615 -0.1930
16064W        W34918  17.901  14.927  12.390  0.0693  0.1061 -0.0539
16065W        W34919   3.612  16.381   4.751  0.1668 -0.4436  0.0969
16066W        W34920   1.305  16.247   2.330  0.0541  0.0034  0.2617
16067W        W34921  10.319  12.612   3.663 -0.0281  0.0352 -0.0773
16068W        W34922  14.533  11.176   2.916  0.0997 -0.1799 -0.1259
16069W        W34923   9.123   8.793  14.207  0.0555 -0.0007 -0.2334
16070W        W34924   3.381   5.401  13.262 -0.1813 -0.1259 -0.1016
16071W        W34925   8.543  10.993   3.937  0.2226  0.1118  0.1838
16072W        W34926  10.827   2.774   3.071  0.2002  0.0864  0.3517
16073W        W34927   3.725   2.909   0.441  0.5367  0.1253 -0.1233
16074W        W34928   4.645  16.966   3.257 -0.0856  0.1711  0.0079
16075W        W34929   5.462   3.871   1.658 -0.1493  0.2910  0.4249
16076W        W34930   1.188   9.043   1.226 -0.4605 -0.2492 -0.2179
16077W        W34931  12.737  15.707  14.723  0.2603 -0.0361 -0.4031
16078W        W34932  16.896  17.795  13.856 -0.3334  0.0620  0.0297
16079W        W34933   2.938  16.976   4.590  0.1995 -0.1759 -0.2934
16080W        W34934  14.510   0.798   1.570 -0.0531  0.1407  0.1969
16081W        W34935   9.599  16.786  12.919  0.0195  0.1556 -0.0499
16082W        W34936   0.989   5.606  14.890 -0.2729 -0.0570  0.1294
16083W        W34937   3.458  13.774  15.650  0.1863 -0.3392  0.0742
16084W        W34938  11.252  13.225   4.303 -0.1926 -0.0301 -0.2319
16085W        W34939   5.642   7.845   2.109  0.0299 -0.0667  0.4348
16086W        W34940   5.945   4.651   2.482 -0.0078  0.1136 -0.1487
16087W        W34941   4.998   9.318  13.638  0.3879 -0.0127  0.1446
16088W        W34942   4.461  17.242   4.042 -0.1378  0.2731  0.0918
16089W        W34943  11.705   6.601   1.009 -0.3100  0.1613 -0.2097
16090W        W34944   5.191   1.727   4.745 -0.2816 -0.1510 -0.1302
16091W        W34945   7.332   2.125   1.447  0.0606 -0.0565  0.1797
16092W        W34946  11.314   4.584  14.539  0.0389  0.0986 -0.3088
16093W        W34947  12.098   2.181  15.358 -0.0248  0.0514 -0.0192
16094W        W34948  13.802   0.179  12.522 -0.0982  0.0245  0.1688
16095W        W34949   8.043   8.024  11.256 -0.0340 -0.1028 -0.2528
16096W        W34950   9.186  16.566  13.667 -0.2526  0.0665  0.3202
16097W        W34951  17.843   5.800  10.876 -0.0504 -0.1837 -0.1684
16098W        W34952   4.254   3.165  12.736 -0.0597  0.0371  0.0908
16099W        W34953  10.658  15.151  12.682  0.0375  0.1108  0.1054
16100W        W34954   3.256  17.840  14.877 -0.4356 -0.2244 -0.1426
16101W        W34955  10.278   6.412  12.409  0.1436  0.0804 -0.0364
16102W        W34956  10.765   5.664   3.190  0.1155  0.2326 -0.1165
16103W        W34957   2.075   1.579   1.791 -0.0339 -0.2196  0.3057
16104W        W34958   0.264   6.673  12.814 -0.1708  0.2424 -0.1009
16105W        W34959   7.873   1.637   2.686  0.0118  0.2626  0.0185
16106W        W34960  10.830   8.779   4.722 -0.1972  0.1318  0.0219
16107W        W34961   5.222   8.650   3.215 -0.1105 -0.1948 -0.0155
16108W        W34962   1.929   3.019   4.488 -0.2197 -0.0908  0.2331
16109W        W34963   7.301  16.498   1.119 -0.2394 -0.5877  0.1169
16110W        W34964  11.354  10.537  11.437 -0.1162  0.0949 -0.0246
16111W        W34965   5.530  12.310  12.974 -0.1010 -0.1524 -0.3390
16112W        W34966   5.338  11.136  14.334  0.2116 -0.2257  0.1279
16113W        W34967   7.343   4.906   4.897  0.2017 -0.0072  0.0444
16114W        W34968   4.637   9.591  15.417 -0.2562  0.0139 -0.1404
16115W        W34969  14.017   9.763   2.009 -0.1290 -0.0807  0.0933
16116W        W34970   2.822  10.542   0.559  0.0024 -0.2649  0.0560
16117W        W34971   0.821   2.373   2.919  0.0807  0.2275 -0.0846
16118W        W34972   6.653   6.316  11.913  0.0328  0.1196  0.1188
16119W        W34973  14.603  14.459  13.498  0.2350 -0.2023  0.1224
16120W        W34974  13.163   0.852  15.667 -0.0482 -0.3392 -0.1434
16121W        W34975   5.337  14.803   1.623 -0.1363 -0.0984 -0.1928
16122W        W34976   4.197   8.227  11.711 -0.0427  0.2128 -0.1447
16123W        W34977   5.174   5.583   4.616  0.1830  0.2639 -0.2493
16124W        W34978   8.516   2.241   2.843  0.2363 -0.1782  0.0473
16125W        W34979   2.868  17.722   2.387  0.3085  0.0614  0.2239
16126W        W34980   4.616  14.095   2.640  0.1388  0.5491  0.3957
16127W        W34981  17.587   1.122  13.873 -0.1769 -0.0888 -0.0547
16128W        W34982  17.306  11.553   0.554  0.1819 -0.1250 -0.0072
16129W        W34983   5.684   7.335  15.165  0.0856  0.0817  0.0118
16130W        W34984  15.820   8.092  13.568 -0.2545  0.1444  0.2884
16131W        W34985  16.452   3.026   0.201  0.1346  0.1344 -0.1003
16132W        W34986  16.386   3.665   4.735 -0.1643  0.2132 -0.2292
16133W        W34987   5.671  13.487   2.199 -0.2082  0.0476  0.1222
16134W        W34988  17.095  16.414  12.569 -0.1553  0.0173 -0.1555
16135W        W34989  16.099  18.040  12.351 -0.2599 -0.1882 -0.3610
16136W        W34990   4.285  11.994   2.934 -0.1280  0.1935 -0.0502
16137W        W34991   7.282  10.026  15.947  0.3117  0.0502 -0.0965
16138W        W34992   0.419   3.528   4.629  0.1659  0.2759 -0.1226
16139W        W34993  12.428  10.715  14.690  0.3666 -0.0903 -0.1040
16140W        W34994   9.424  17.834   4.341  0.2021 -0.1897 -0.1585
16141W        W34995   7.676   1.129  15.241 -0.0276 -0.2597 -0.1942
16142W        W34996   8.119   5.761   3.847 -0.2655 -0.1250  0.1489
16143W        W34997  11.327   3.066   4.724  0.0404 -0.1412  0.0619
16144W        W34998   9.601  11.515   0.720 -0.2937 -0.3403  0.1224
16145W        W34999   0.084   9.983   2.203  0.0421  0.1917  0.2788
16146W        W35000  11.210  13.171   1.289  0.1380  0.0996  0.2160
16147W        W35001  13.066   6.545   3.929  0.1278  0.3841 -0.1515
16148W        W35002   1.487   6.700   3.734 -0.0686  0.2054  0.1445
16149W        W35003   7.243  10.607   2.922 -0.0255  0.1305 -0.3117
16150W        W35004  12.827  14.277   2.792  0.0277 -0.0308 -0.1427
16151W        W35005   2.203  11.333  16.076 -0.0942 -0.0536 -0.0935
16152W        W35006   5.061  17.211   4.498  0.2099 -0.1065 -0.0451
16153W        W35007  12.551   8.299   0.991 -0.1349 -0.1390 -0.1115
16154W        W35008   2.751  14.796   4.776 -0.1339  0.1852  0.1269
16155W        W35009  15.785   9.903   1.421 -0.0374  0.2107  0.3568
16156W        W35010  17.655   3.141  15.173  0.0383  0.0636  0.1308
16157W        W35011   5.840   3.126   3.366  0.0253 -0.4107  0.3375
16158W        W35012  16.808   5.796   2.656  0.1181  0.1909 -0.0733
16159W        W35013   6.260  17.047  15.413  0.2553  0.1593  0.0353
16160W        W35014   9.944  11.190   4.404  0.1094  0.1607 -0.1023
16161W        W35015  16.706  16.230   2.581  0.1768 -0.1719 -0.0856
16162W        W35016  10.656  10.121   3.649 -0.1702 -0.0239  0.0616
16163W        W35017   0.827   2.824   1.167 -0.1487  0.1837 -0.1863
16164W        W35018  17.244   9.543   3.413  0.1457 -0.0663  0.1581
16165W        W35019  16.453   4.815  12.754 -0.1880 -0.0652 -0.0050
16166W        W35020   4.287   0.805  13.751 -0.1379  0.0108 -0.1648
16167W        W35021   3.790  16.638  15.980 -0.2351  0.0501  0.1679
16168W        W35022   2.236   9.414  11.928  0.1051  0.1021 -0.1211
16169W        W35023   1.067   7.416   0.540 -0.2620 -0.0372  0.0419
16170W        W35024   6.962   7.088  13.712 -0.0085 -0.0128  0.1456
16171W        W35025  10.661   7.533   4.436  0.0468 -0.2486  0.0364
16172W        W35026  12.235  14.736  13.161  0.1752 -0.3108  0.1850
16173W        W35027   9.463  15.972   3.864  0.0009 -0.0880  0.0068
16174W        W35028  11.573   4.448   0.068 -0.2631 -0.2115 -0.0276
16175W        W35029  15.494  16.202  14.272 -0.1002  0.1089  0.0698
16176W        W35030  14.399   0.196   2.501 -0.1512 -0.3072 -0.0156
16177W        W35031   0.689  14.204  11.683  0.1797  0.1258 -0.0488
16178W        W35032   8.449   5.752  14.864  0.3905  0.0680  0.0742
16179W        W35033   4.743   4.395  16.084  0.0645 -0.1469 -0.1920
16180W        W35034   7.234  11.690  16.015 -0.0630 -0.3204 -0.1379
16181W        W35035   7.825   0.569  10.966 -0.0734 -0.0902  0.2307
16182W        W35036  11.602  16.400   2.987  0.2622 -0.1824  0.2730
16183W        W35037  14.805   0.469  15.589 -0.3479 -0.1869  0.1682
16184W        W35038   2.801  11.973   5.099 -0.1092  0.0767  0.0959
16185W        W35039  12.135   5.931   1.209 -0.0001  0.2643  0.3113
16186W        W35040   2.297  15.351  12.998 -0.0491 -0.0922 -0.0137
16187W        W35041   2.510  15.367  14.581 -0.0029 -0.1300  0.1477
16188W        W35042   7.257  14.647  14.382 -0.0180  0.0938 -0.1204
16189W        W35043  13.192   0.287  14.779 -0.0704  0.0044 -0.1864
16190W        W35044  15.543   4.927  14.607  0.0439  0.0561  0.2380
16191W        W35045  10.023  12.511  14.843  0.0303  0.0249 -0.0076
16192W        W35046   3.904   8.874   5.617 -0.3781  0.2173 -0.1702
16193W        W35047   7.172   9.606   1.025 -0.1335 -0.0098  0.0357
16194W        W35048   6.016  13.146   3.929 -0.2309 -0.2299  0.0667
16195W        W35049   5.429  10.646  15.628  0.1781 -0.3071 -0.0964
16196W        W35050   0.888   7.173   4.095  0.3337  0.0736  0.0574
16197W        W35051   8.000   4.859  13.657  0.0333 -0.0559  0.0133
16198W        W35052   2.556   1.212  12.053  0.0500  0.0765 -0.3731
16199W        W35053   1.052  17.592  15.539 -0.1439  0.0764 -0.3247
16200W        W35054   5.086   3.175  11.834  0.1309  0.0407  0.0093
16201W        W35055  15.698   2.053   3.097  0.1383  0.1741  0.0995
16202W        W35056   2.737   3.328   3.826  0.2980 -0.0553 -0.1914
16203W        W35057   0.863   7.980   3.066  0.0297 -0.2239  0.0298
16204W        W35058   9.422  14.717   0.329  0.1083  0.1479 -0.0726
16205W        W35059  13.226   2.522  14.314 -0.1444  0.1193  0.4198
16206W        W35060   3.239  17.842  15.562 -0.1272  0.1611 -0.0233
16207W        W35061   1.741  11.896   4.688 -0.1974 -0.0352 -0.2119
16208W        W35062  17.865  16.699  15.349 -0.1099 -0.0879 -0.1670
16209W        W35063   9.099  10.735   0.792  0.0431 -0.1534  0.1515
16210W        W35064   7.777  12.116  14.473  0.0086 -0.3832 -0.2206
16211W        W35065  12.479   9.722   0.097 -0.0652  0.0802  0.0548
16212W        W35066   2.317   2.389   3.078 -0.0087  0.1008 -0.2079
16213W        W35067   0.659   8.302   4.246 -0.0366 -0.1655 -0.0372
16214W        W35068   2.844  11.500   4.101  0.1282  0.0050  0.0703
16215W        W35069   6.878   2.912   3.040  0.2601  0.0535  0.1529
16216W        W35070  16.740  14.749  15.974  0.1796 -0.0001 -0.0062
16217W        W35071   0.206   8.767   2.650  0.0098  0.0621  0.1280
16218W        W35072  16.139  15.785  11.789 -0.2711  0.0392 -0.0552
16219W        W35073   1.914  16.784   3.517 -0.0563 -0.0344  0.0566
16220W        W35074   0.108   6.290  15.848  0.2257  0.0448  0.1103
16221W        W35075  16.014   7.580  13.852  0.0238  0.0068  0.0963
16222W        W35076   0.964  17.594  16.057 -0.0252 -0.0733 -0.1965
16223W        W35077   5.680  14.877   2.932  0.2719 -0.2553 -0.0197
16224W        W35078   1.501  17.324   1.438 -0.1324 -0.0861 -0.2074
16225W        W35079  12.450  10.819   1.665  0.1272 -0.2894 -0.2124
16226W        W35080   6.016   1.015  11.751 -0.2649 -0.0697 -0.3013
16227W        W35081   4.014  12.552   1.111  0.2036  0.0194  0.0554
16228W        W35082   6.124   5.487   0.614 -0.0206 -0.2487  0.1182
16229W        W35083   7.974   7.782  13.991 -0.0023 -0.1152  0.0342
16230W        W35084  13.580  14.851  13.231 -0.0579 -0.0793 -0.0431
16231W        W35085  13.035   9.080   1.353  0.1511 -0.0206  0.0098
16232W        W35086  10.781  17.549   0.221 -0.0278 -0.0634  0.0612
16233W        W35087   5.624  17.797  12.226 -0.1039  0.0117 -0.0103
16234W        W35088   3.242  16.142   0.590  0.3081 -0.2208  0.0657
16235W        W35089   6.851  10.742   0.721  0.1070  0.1143  0.1259
16236W        W35090  12.845  13.531  14.778 -0.1151 -0.2575 -0.0210
16237W        W35091   6.966   5.775   2.766 -0.0416  0.2567  0.1401
16238W        W35092   4.036  13.091   0.979 -0.0714 -0.0071  0.3003
16239W        W35093  14.461   3.928  12.426 -0.1129 -0.0460  0.0593
16240W        W35094  14.559  17.385  11.788  0.1559  0.0876  0.2129
16241W        W35095   0.350  13.919  11.468  0.2186 -0.2096 -0.0287
16242W        W35096   7.032   4.384  13.656  0.0127 -0.2637  0.1341
16243W        W35097  12.440  13.219  14.013  0.2108  0.4656  0.2027
16244W        W35098  15.813  13.422   1.489  0.0347 -0.0729  0.0592
16245W        W35099   1.078   2.807  15.665  0.1762  0.0347  0.0956
16246W        W35100   5.835   2.058   2.824 -0.1887 -0.0774  0.2477
16247W        W35101   6.898   4.780   2.655 -0.0812 -0.2158  0.0508
16248W        W35102  14.493  16.165   1.209  0.0747  0.0588 -0.0741
16249W        W35103  16.323   6.894   5.704  0.0825 -0.1308  0.2080
16250W        W35104   1.843  12.508  15.190 -0.1860  0.0216  0.2924
16251W        W35105   3.063  10.732  14.211 -0.0001  0.1728 -0.0894
16252W        W35106   3.671  16.574   0.701 -0.1708 -0.0149 -0.0974
16253W        W35107  13.255   1.784  14.550  0.0469  0.1114  0.0591
16254W        W35108   1.383  11.640   2.862 -0.1692  0.0308 -0.2119
16255W        W35109  14.011   5.790   3.232 -0.0718  0.2257 -0.1082
16256W        W35110  13.317   1.455   2.277 -0.0200  0.0239 -0.3935
16257W        W35111   2.410  14.316  14.309 -0.2729  0.1329 -0.0059
16258W        W35112   8.157   2.927  16.016  0.1550  0.0214  0.2150
16259W        W35113  11.259   9.128  14.063 -0.1033  0.1341 -0.2595
16260W        W35114   9.891   0.617  15.223 -0.1263  0.1549  0.0516
16261W        W35115   9.554   7.136   0.809  0.0061  0.1450 -0.1604
16262W        W35116   5.770   6.927   2.520 -0.1438  0.2697 -0.0658
16263W        W35117   9.181   5.601  12.396 -0.0653 -0.1342 -0.0596
16264W        W35118   6.960  17.481   0.359 -0.0337 -0.1193 -0.1972
16265W        W35119  16.440  10.105  13.995  0.3869 -0.1456 -0.0065
16266W        W35120  11.833   9.744   1.448  0.0338  0.1153 -0.2288
16267W        W35121  12.364   5.791  14.192  0.0438  0.0118 -0.1150
16268W        W35122   8.650   7.535  15.270  0.0094  0.0351 -0.1532
16269W        W35123   5.204   8.015   1.945 -0.1851 -0.0090 -0.0037
16270W        W35124  15.621   6.287  13.662 -0.2147  0.0219 -0.0670
16271W        W35125   9.350  16.443   0.205 -0.0409 -0.2375  0.0758
16272W        W35126  15.322  13.278   1.695 -0.2752 -0.1191  0.1456
16273W        W35127  10.717  13.885  14.959 -0.0525 -0.0136 -0.0988
16274W        W35128  16.349   1.556   2.794  0.0135  0.0998 -0.0432
16275W        W35129   3.929  15.711  14.038  0.4803 -0.1161  0.1288
16276W        W35130   0.667  13.738  14.110 -0.0966  0.0196 -0.0612
16277W        W35131   8.230   6.692   0.622 -0.3921 -0.1993  0.0482
16278W        W35132   0.508   7.320  11.954  0.3269  0.0788  0.1284
16279W        W35133   2.093   5.194  12.323  0.0152 -0.2213 -0.1227
16280W        W35134  11.900   2.139  14.493  0.0278  0.3140  0.1867
16281W        W35135  12.625   4.054   4.208  0.0637  0.1971  0.1127
16282W        W35136   2.723   9.904  14.178 -0.0592 -0.2488 -0.0087
16283W        W35137  16.514  16.552   0.500  0.1445  0.0843  0.0771
16284W        W35138   5.063  15.325  15.628 -0.1124  0.4208  0.0591
16285W        W35139   7.294   5.189  12.627 -0.0154  0.2132 -0.0799
16286W        W35140  17.218  13.187  15.054 -0.0740  0.0252 -0.1884
16287W        W35141   4.122  12.751  13.025 -0.0954 -0.2655 -0.3988
16288W        W35142   6.456  14.041  11.749 -0.3784  0.0738  0.0554
16289W        W35143   1.157   3.013  14.173  0.0873  0.0201 -0.0032
16290W        W35144  13.391  11.327   4.430 -0.0464 -0.1917 -0.4373
16291W        W35145  15.206  13.830   0.345 -0.0823  0.1599 -0.3263
16292W        W35146  11.175  13.829  12.660  0.3218  0.3545 -0.1700
16293W        W35147  16.658  16.876   4.729 -0.3936 -0.0235 -0.1554
16294W        W35148   8.505   4.975   3.528 -0.0314 -0.1142  0.1929
16295W        W35149   8.821  16.526  11.562 -0.0392  0.1773  0.0946
16296W        W35150   0.205  15.020   2.209 -0.1441 -0.0838 -0.0403
16297W        W35151  13.164   0.276  15.678 -0.0093  0.0356 -0.0338
16298W        W35152   5.985  10.187  14.968 -0.0095 -0.2032  0.0109
16299W        W35153  10.441   6.248  11.454 -0.0103 -0.0072  0.0426
16300W        W35154  11.508  10.727  14.719 -0.0171 -0.0223 -0.0338
16301W        W35155   4.254  11.881   0.058  0.4034 -0.1416 -0.0269
16302W        W35156   2.513   8.179  10.475  0.0794 -0.1987  0.3844
16303W        W35157   1.335  11.704  14.085 -0.1440 -0.0769 -0.2610
16304W        W35158   9.860   4.919  14.876  0.1336  0.1642 -0.0264
16305W        W35159   1.372  10.114  12.405  0.0619  0.0798  0.1983
16306W        W35160  15.153  14.706   1.068 -0.3533  0.2061  0.1261
16307W        W35161   2.195   4.518   2.980  0.1097 -0.3123 -0.0519
16308W        W35162   8.847   4.116   2.232 -0.0217  0.0538  0.4453
16309W        W35163  13.862   3.906   2.394  0.2390 -0.0968 -0.1242
16310W        W35164   8.981   6.896   5.278  0.0918 -0.4225 -0.0056
16311W        W35165  13.367  14.168  11.153  0.0205 -0.4266  0.0607
16312W        W35166   4.570   7.370  13.816  0.2549  0.0654 -0.2993
16313W        W35167   0.399   2.973  12.233 -0.1686 -0.2141 -0.0617
16314W        W35168   8.187  16.846  13.086  0.2405 -0.1488  0.2615
16315W        W35169  10.498  18.014   2.406 -0.0930 -0.0390 -0.1957
16316W        W35170  10.748   8.643  15.255 -0.0010  0.0212  0.0717
16317W        W35171   8.545  12.705  13.468 -0.1728  0.0145 -0.2033
16318W        W35172  14.213   8.496   1.473 -0.2017  0.0493 -0.2309
16319W        W35173  10.637   5.419   2.693  0.1237 -0.2948 -0.0542
16320W        W35174   0.273  15.647   0.925  0.0717  0.2004 -0.1521
16321W        W35175  14.024   1.152  13.162 -0.3544 -0.0821  0.0505
16322W        W35176  17.689  17.931   0.549 -0.1417  0.0552 -0.2798
16323W        W35177   5.346   3.834  15.889  0.0493  0.0964  0.0113
16324W        W35178   2.743  16.098   4.838 -0.0931  0.0011 -0.1086
16325W        W35179   5.588   5.663   0.384 -0.0360 -0.1289 -0.1218
16326W        W35180  16.381  10.520   2.870  0.2157  0.1179 -0.0959
16327W        W35181   2.714  15.050  11.825 -0.2110 -0.3602  0.1831
16328W        W35182  15.535  13.306   3.097 -0.0770 -0.0103 -0.1026
16329W        W35183   4.699  13.588   3.880 -0.3820  0.0188  0.0287
16330W        W35184   9.642  15.317  11.909 -0.0043  0.1158 -0.0073
16331W        W35185   4.036   1.374   3.466  0.1379  0.2922  0.2446
16332W        W35186   0.484  10.467   3.637  0.0458  0.0591 -0.2356
16333W        W35187  16.300   9.509  16.165 -0.4273  0.0641  0.0440
16334W        W35188  13.248  14.189  14.066 -0.0125  0.2627  0.1979
16335W        W35189  11.496   9.950  15.520  0.1055 -0.2064  0.1587
16336W        W35190  13.502   8.238   3.141  0.0883  0.1341 -0.0358
16337W        W35191   8.613   2.113  14.594  0.0986  0.0876 -0.2522
16338W        W35192  10.968  14.750   2.306  0.0291  0.2835  0.1309
16339W        W35193   6.581   6.283  14.585  0.2878  0.1041  0.0380
16340W        W35194   3.036   4.657  13.831 -0.0545  0.0668  0.2244
16341W        W35195  17.790   1.809  16.118 -0.0178  0.0925 -0.0444
16342W        W35196   7.574  12.637  11.811 -0.3709  0.3399 -0.2730
16343W        W35197  15.641   2.834   4.266 -0.2065 -0.3532 -0.0116
16344W        W35198   0.579   3.740   2.844 -0.2627  0.0183 -0.2787
16345W        W35199   6.378  17.514  14.722 -0.3972  0.1535 -0.2991
16346W        W35200   9.807  12.348   1.822 -0.0162  0.3848  0.1504
16347W        W35201   7.955   4.300  11.660  0.1557 -0.2953 -0.2072
16348W        W35202   2.352   3.108  13.302  0.0307 -0.1359 -0.0445
16349W        W35203   1.000  16.799   1.059  0.2734 -0.1402 -0.0755
16350W        W35204   9.533   3.580  12.382  0.0142 -0.1824 -0.0171
16351W        W35205   8.834   7.371  14.025  0.1199  0.1937 -0.0673
16352W        W35206  14.037  12.921  12.691  0.3165  0.2937 -0.0141
16353W        W35207   1.657   7.366  13.830 -0.0870  0.1194  0.0473
16354W        W35208  10.610  14.176   0.875  0.0362  0.0596  0.1000
16355W        W35209   3.065   8.314  12.777  0.1433 -0.0070  0.2945
16356W        W35210   2.195   5.008   3.064  0.0147  0.0493 -0.1097
16357W        W35211   3.550  14.162  11.633  0.1916 -0.0003  0.2383
16358W        W35212   1.454  11.012  14.999  0.1307 -0.2770 -0.0516
16359W        W35213  14.109  14.806   0.309  0.3750 -0.1682  0.0225
16360W        W35214   6.766  14.730  15.639 -0.0555  0.0853 -0.0975
16361W        W35215  16.653  11.631   3.699 -0.0396  0.1666 -0.3392
16362W        W35216  11.943  13.083   1.824 -0.0391  0.1169 -0.2050
16363W        W35217  16.680  15.899  14.687 -0.0028 -0.1381  0.1730
16364W        W35218  12.801  17.590  12.841 -0.0938 -0.0869  0.1665
16365W        W35219   2.124   3.464  15.985  0.1629 -0.4554 -0.0057
16366W        W35220  14.505   7.432   4.340  0.5197  0.1997 -0.1865
16367W        W35221  14.162  10.064  12.320 -0.1747  0.2364  0.0235
16368W        W35222  11.974   2.837   0.657  0.0380  0.2191  0.0612
16369W        W35223  10.330   5.565  13.585 -0.1293 -0.1917 -0.0395
16370W        W35224  10.207   5.470   1.403 -0.1187  0.0147  0.1864
16371W        W35225   7.267  10.172   2.020  0.0389 -0.0010 -0.3595
16372W        W35226   7.807  13.018   1.164  0.0483  0.0981 -0.0539
16373W        W35227  17.418   9.369  14.702 -0.0050 -0.0148 -0.0302
16374W        W35228   2.125  14.648   3.662  0.0107  0.2920  0.2347
16375W        W35229   5.902   1.480  11.914 -0.2677 -0.4676  0.2817
16376W        W35230  14.458   2.464   1.122  0.3698  0.1282 -0.2231
16377W        W35231   4.311  15.900   2.006  0.2189  0.1388 -0.3265
16378W        W35232   8.104   1.248  12.514 -0.1442 -0.0702  0.2517
16379W        W35233   9.972  14.897   6.266  0.0222  0.0349  0.1824
16380W        W35234   4.054   4.452   1.046 -0.0257  0.1977  0.1200
16381W        W35235   4.411   3.359   0.846 -0.0560  0.1587 -0.0327
16382W        W35236   0.090   2.137  15.934 -0.0750 -0.2553 -0.0327
16383W        W35237   8.003  13.382   3.652 -0.2007 -0.1770 -0.0462
16384W        W35238   9.193   3.567  14.856  0.1245  0.0342 -0.0163
16385W        W35239  12.685  17.634  13.873 -0.1402  0.2655  0.2181
16386W        W35240   7.693   3.092  13.935  0.5168 -0.0319 -0.0481
16387W        W35241   3.436  11.069  13.402  0.0061 -0.0186 -0.2885
16388W        W35242  12.530   9.297  12.890 -0.0732  0.4260  0.0474
16389W        W35243   6.880  13.458  14.022 -0.1421 -0.1521  0.0335
16390W        W35244  17.624  14.284  12.040 -0.0603  0.2005  0.1818
16391W        W35245   3.710  14.810  11.199 -0.3263  0.1733 -0.0540
16392W        W35246  12.471   1.238  15.574 -0.1669 -0.3406 -0.0719
16393W        W35247   1.019   1.411   5.010 -0.1639 -0.3022 -0.0874
16394W        W35248   1.605  15.157   2.435 -0.0821 -0.1450 -0.0469
16395W        W35249   8.575   8.462  13.557  0.3032 -0.1567 -0.0847
16396W        W35250   0.564   7.863  15.655 -0.0492 -0.3573 -0.1960
16397W        W35251  14.771   8.027   3.392  0.0089  0.1391 -0.0127
16398W        W35252   8.965  11.874   2.029  0.2806  0.0073  0.2778
16399W        W35253   4.128   7.235  12.986 -0.0625  0.1352  0.1419
16400W        W35254   8.355  17.566  15.219 -0.1177  0.0926  0.1223
16401W        W35255  15.880   6.940  14.115 -0.0601  0.0325  0.2672
16402W        W35256  14.674  11.385  13.412 -0.1288  0.1906 -0.0745
16403W        W35257  12.111  15.983   0.207  0.3954 -0.0501  0.1184
16404W        W35258   3.001   7.724  11.388  0.0609 -0.1094  0.1980
16405W        W35259   5.257  12.302   2.743 -0.1796 -0.2270 -0.2060
16406W        W35260   7.673   5.126  14.050 -0.1223 -0.1941 -0.2475
16407W        W35261   4.888   0.059   1.162 -0.0666  0.0679  0.1045
16408W        W35262  16.017   5.103   0.879 -0.0557  0.1674  0.1447
16409W        W35263  14.147  15.361   1.706 -0.1515  0.0915 -0.2262
16410W        W35264  15.065   6.251  15.604 -0.0830 -0.0374  0.0694
16411W        W35265  16.572   0.605   2.399  0.0305  0.1914 -0.2641
16412W        W35266  16.288  12.348  13.709  0.0137  0.1232  0.1321
16413W        W35267   9.550   4.261   4.480  0.1269 -0.0491 -0.1216
16414W        W35268  17.997   0.566   1.536  0.1269  0.1512  0.3470
16415W        W35269   1.189   4.378  15.385  0.0302  0.1210 -0.0603
16416W        W35270  14.517   3.010  14.931 -0.0653 -0.1742  0.1894
16417W        W35271  14.373  12.505   1.261  0.1291 -0.2647  0.1601
16418W        W35272  16.421  12.970   5.849  0.1531 -0.0849 -0.2519
16419W        W35273  16.466  14.581   4.317  0.1789 -0.0614  0.0327
16420W        W35274   9.018  10.696  11.893 -0.0234 -0.0274  0.0069
16421W        W35275   6.178   8.179   4.609 -0.0358  0.0230 -0.0356
16422W        W35276   4.276   9.198  15.643  0.0395  0.3508 -0.1093
16423W        W35277  14.907   0.455  16.136  0.2959 -0.0758  0.2168
16424W        W35278   7.220  15.017   1.129 -0.0192 -0.2035  0.1564
16425W        W35279  10.989  10.096   4.831  0.2232  0.0092  0.1936
16426W        W35280  11.381  10.451   0.464  0.0650  0.1838  0.0476
16427W        W35281  13.726   2.124   0.059  0.2824 -0.0666 -0.3025
16428W        W35282   4.301  16.609   2.021 -0.1469 -0.0492 -0.1103
16429W        W35283   7.259   1.104   2.144 -0.0394  0.2574  0.0814
16430W        W35284   2.891  16.646   2.333  0.0991  0.2230 -0.2005
16431W        W35285   7.244   7.035   2.648  0.0991 -0.1148  0.1487
16432W        W35286   1.275  16.193  13.847  0.0066 -0.3024  0.3948
16433W        W35287   2.787  14.632   2.938 -0.1340  0.0750 -0.2815
16434W        W35288   9.367   3.755   3.819  0.1054  0.3943  0.4747
16435W        W35289   4.056   1.599  14.289 -0.0812 -0.0451  0.1377
16436W        W35290   9.343   5.277  12.054 -0.1914  0.0360  0.0557
16437W        W35291   4.962  13.332  11.521 -0.1659  0.0980  0.1632
16438W        W35292   6.916   6.364  13.244  0.1218 -0.0724  0.1669
16439W        W35293  17.086   5.868  13.206  0.5838  0.1199  0.0620
16440W        W35294  11.898   6.899   4.223 -0.0811  0.1185  0.0420
16441W        W35295   3.119   0.039  13.538  0.0100  0.1409  0.0575
16442W        W35296  16.996   1.237  15.526  0.3131  0.0727 -0.1115
16443W        W35297  12.078  14.091  14.754 -0.2202 -0.1456 -0.0834
16444W        W35298   4.404   2.921  16.041 -0.1418 -0.1256  0.0754
16445W        W35299  15.663   4.354  14.799 -0.0693  0.1211  0.1395
16446W        W35300   2.427   3.481  12.986  0.2283 -0.0248  0.1450
16447W        W35301   9.927   6.783   1.065 -0.2180 -0.0077  0.0516
16448W        W35302   6.279   1.169  15.355 -0.1546 -0.3847  0.0201
16449W        W35303   6.463   4.001   2.413 -0.0410 -0.0929 -0.3550
16450W        W35304   1.262   8.958   3.445  0.1797  0.0620  0.3809
16451W        W35305  10.815   0.099   2.923 -0.0913  0.0928 -0.2277
16452W        W35306   0.316   6.118   3.564  0.1142  0.4549 -0.0721
16453W        W35307   8.995  15.217   2.964  0.0323 -0.0526 -0.0743
16454W        W35308  14.334  12.917   0.325 -0.0437 -0.0781 -0.1620
16455W        W35309   6.863  12.599   3.221 -0.2346  0.0950  0.0119
16456W        W35310   0.559   1.015   0.293 -0.1371  0.0744 -0.1373
16457W        W35311   6.362   1.275  13.780 -0.2261 -0.0526  0.1474
16458W        W35312   7.113  12.061   1.879  0.4626  0.0087  0.0369
16459W        W35313  13.895  13.823   0.397  0.1443 -0.0016 -0.0410
16460W        W35314   3.079   6.774  12.915  0.1215  0.4635  0.1316
16461W        W35315   3.840   5.539  13.143  0.0280  0.0812 -0.0336
16462W        W35316   8.301  17.188  14.485  0.0310  0.1900 -0.3475
16463W        W35317  16.213   3.750  11.679 -0.1741 -0.1260 -0.1048
16464W        W35318   0.521  15.449  10.948 -0.2057 -0.2334 -0.2756
16465W        W35319  12.899  10.803   3.091 -0.0728  0.2519 -0.1039
16466W        W35320  10.958  12.313   1.968 -0.2674 -0.1164  0.0365
16467W        W35321  17.576  14.712  13.861 -0.2278  0.0808  0.2188
16468W        W35322  16.770   5.343  14.836 -0.0125  0.0660  0.0291
16469W        W35323   2.140  10.719  13.161 -0.0067 -0.0824  0.1456
16470W        W35324   9.806   4.683   3.420 -0.0624  0.0071  0.1168
16471W        W35325   1.791   0.639  12.368 -0.0453 -0.1420  0.0324
16472W        W35326   0.990  12.395   4.796 -0.1580  0.1480  0.0912
16473W        W35327   1.959  13.410  12.832  0.1166 -0.3316  0.1154
16474W        W35328   2.068  16.289   4.128  0.0753  0.2330  0.1008
16475W        W35329   0.551  17.214  15.377 -0.2266 -0.4444  0.0803
16476W        W35330  12.654   2.124   0.129 -0.0570 -0.0006  0.0146
16477W        W35331   3.827  17.480  13.785 -0.1862  0.0782 -0.0752
16478W        W35332   6.316  11.531   1.374 -0.0892  0.2035 -0.2538
16479W        W35333  15.588   5.216  11.766 -0.2627  0.2629 -0.0331
16480W        W35334   8.525  12.675   0.601  0.0481  0.1388 -0.1045
16481W        W35335   6.779   1.331   2.282 -0.2535 -0.1447 -0.1459
16482W        W35336  14.551   3.989   4.420  0.1444  0.1633 -0.1047
16483W        W35337   7.276   9.363  14.634 -0.2558 -0.1509  0.2278
16484W        W35338  10.359   9.486   4.293 -0.3192  0.2623 -0.2236
16485W        W35339   1.163   9.419  12.846  0.4104 -0.1727  0.1355
16486W        W35340   8.874  13.745   3.568  0.0337 -0.1418  0.2803
16487W        W35341   3.158  16.237   2.374  0.0258 -0.0212  0.0012
16488W        W35342  14.863  11.418  14.969 -0.1366  0.0357  0.3393
16489W        W35343   4.892   1.495  13.498 -0.1350  0.2081 -0.0142
16490W        W35344  16.916  10.710   4.478  0.0169 -0.0856 -0.2191
16491W        W35345   8.061   2.643   2.832  0.1405  0.1507 -0.0802
16492W        W35346  11.165  13.763  14.119  0.0581 -0.2735  0.2643
16493W        W35347   1.346  17.651  13.437 -0.0988 -0.0087 -0.2804
16494W        W35348  12.006  17.284   4.276 -0.2044  0.3069  0.0431
16495W        W35349   6.203   6.051  12.804  0.2201  0.1683 -0.0103
16496W        W35350   6.060  16.987  11.269 -0.0056 -0.0587  0.0270
16497W        W35351   8.345   0.400  13.637 -0.1962 -0.1968 -0.1166
16498W        W35352   9.736  16.665  11.804  0.1807 -0.2983  0.1003
16499W        W35353  17.228   0.368  12.995 -0.1065 -0.0924 -0.1321
16500W        W35354   4.568  15.119   2.068 -0.0459  0.0118  0.2179
16501W        W35355   0.707   7.321  13.064 -0.0348 -0.0763 -0.0924
16502W        W35356   8.030   6.772  13.880  0.0619  0.2989 -0.1958
16503W        W35357   6.593   7.267   2.992  0.0600 -0.2289  0.4365
16504W        W35358   6.988   2.247   4.380  0.0180 -0.1467 -0.1988
16505W        W35359  13.069   8.471  13.205 -0.0868  0.0721  0.2286
16506W        W35360   9.962   3.619  13.235  0.0799  0.1457 -0.0499
16507W        W35361  10.951   0.946   4.362  0.0190  0.2203 -0.0932
16508W        W35362   0.175   0.819  12.790 -0.2744  0.1434  0.0474
16509W        W35363   0.229  16.081  11.682 -0.1908 -0.0924  0.0546
16510W        W35364  17.662  16.937   4.765  0.1984 -0.0007 -0.0723
16511W        W35365  16.507  18.000  14.918  0.1310 -0.0130  0.0787
16512W        W35366   4.578   6.474  14.826  0.0332 -0.1472  0.1500
16513W        W35367   8.371   4.405  12.083  0.1543 -0.1310  0.1212
16514W        W35368   8.245  16.054   1.578 -0.0042  0.2251  0.2503
16515W        W35369  17.340   8.694  12.852 -0.2304  0.0286 -0.2397
16516W        W35370   4.072  12.099   3.385 -0.0047 -0.2002 -0.2228
16517W        W35371   7.860   4.732   0.942 -0.1107 -0.0390 -0.0302
16518W        W35372   0.931   1.164   3.188 -0.0217  0.2314 -0.0152
16519W        W35373  13.621  14.701   2.475 -0.0685 -0.0369  0.0508
16520W        W35374   6.559   8.629  12.975  0.0695  0.0866  0.1662
16521W        W35375   4.416   7.948   3.285 -0.2175  0.1887  0.0113
16522W        W35376   5.951  12.847   2.324  0.4731  0.0598 -0.0040
16523W        W35377   7.951  13.642   0.742  0.0872  0.2004  0.0356
16524W        W35378  13.176   7.527  12.478  0.0535  0.2359  0.2385
16525W        W35379   3.454  14.321  14.956  0.0511  0.0215 -0.1721
16526W        W35380  16.859   6.972  13.058  0.0716 -0.0178  0.2222
16527W        W35381   9.962   4.247  11.441 -0.1077  0.1063 -0.1130
16528W        W35382  16.632   4.790  14.617  0.0870  0.0565  0.1913
16529W        W35383  16.972  15.497  15.542 -0.0368 -0.0016 -0.0921
16530W        W35384   3.327   1.929  11.023 -0.2937  0.0489  0.0473
16531W        W35385   4.193   1.868   2.313 -0.0830 -0.0601  0.2768
16532W        W35386   8.486   9.469   0.741 -0.2696 -0.0277 -0.1352
16533W        W35387   4.890  16.894  15.732 -0.3431  0.1504  0.3417
16534W        W35388  15.808   5.780  13.320 -0.1257  0.0078  0.0361
16535W        W35389  12.281   2.717   1.519  0.2676  0.1062 -0.1774
16536W        W35390  17.422   5.086  14.177 -0.1039  0.0756 -0.3256
16537W        W35391   2.072   9.880  12.926 -0.1960  0.1675  0.1701
16538W        W35392   2.896  10.741   0.066 -0.1682 -0.0076 -0.0799
16539W        W35393  15.737   1.010   2.331  0.0289 -0.1515 -0.0914
16540W        W35394   9.238   7.692   2.636  0.1231 -0.0778  0.3739
16541W        W35395   6.619   0.780   1.408 -0.0479 -0.1034 -0.1503
16542W        W35396   8.225  11.443  16.017  0.0567  0.0448  0.0078
16543W        W35397   8.742   3.261  14.136 -0.1451  0.0103  0.1693
16544W        W35398  10.434  14.783  11.591 -0.0784 -0.1949  0.2005
16545W        W35399   6.792   0.159  14.656 -0.2507  0.1460  0.2608
16546W        W35400   7.582   0.667  14.989 -0.2241  0.0428  0.2735
16547W        W35401   9.373  10.136  11.196  0.2507 -0.0031 -0.1054
16548W        W35402  11.148  10.323   1.876  0.0811  0.1156  0.0158
16549W        W35403   7.557   3.042   0.486  0.0926 -0.0122 -0.1570
16550W        W35404  11.477   3.046   1.337  0.0961 -0.2194 -0.2208
16551W        W35405  16.627   6.086  11.353  0.0640  0.0946  0.0982
16552W        W35406   2.633   7.698  15.332 -0.1062  0.4222 -0.1240
16553W        W35407  12.816   4.605   2.544  0.0597  0.0816  0.3550
16554W        W35408   9.306  11.503   2.080 -0.1900  0.0078  0.2376
16555W        W35409  16.822   4.863  16.187 -0.0941  0.0556 -0.0978
16556W        W35410   6.626   3.695   3.813  0.0956  0.0302  0.2735
16557W        W35411  12.711  17.268   0.701 -0.0066  0.0487  0.0503
16558W        W35412  11.371   2.843  13.571  0.0918 -0.0254  0.2321
16559W        W35413   8.857  14.819   2.660 -0.2592 -0.0140 -0.3485
16560W        W35414   6.549   8.929  15.077 -0.0625  0.0804 -0.2957
16561W        W35415   9.200  18.000  11.441 -0.2099 -0.0905 -0.1268
16562W        W35416   0.280   8.516   0.355 -0.1410  0.3024 -0.6232
16563W        W35417   6.166  18.014   3.772  0.1748  0.0088 -0.3241
16564W        W35418  17.484  11.403   0.063 -0.1008 -0.0606  0.0305
16565W        W35419   3.551  12.027  13.382 -0.2175 -0.0055  0.0377
16566W        W35420   9.562  10.443   0.772  0.1164 -0.0538 -0.1462
16567W        W35421  13.459   3.335   3.532  0.2563 -0.0059  0.0118
16568W        W35422  12.836  11.754   1.444 -0.3747  0.2221  0.1927
16569W        W35423   1.132  14.066   1.052  0.3735 -0.1287  0.2920
16570W        W35424  10.588   2.619   4.009  0.2189 -0.0907 -0.0949
16571W        W35425   6.777  11.324   2.674  0.1958  0.0602  0.0632
16572W        W35426   2.118  14.661   2.044 -0.2678 -0.0253 -0.1020
16573W        W35427   5.808   2.470   3.066  0.0916  0.0114  0.0320
16574W        W35428  14.189  16.671  14.391  0.1680  0.1834  0.1658
16575W        W35429  12.367  17.345   5.286  0.0418  0.1587  0.3131
16576W        W35430  11.200   2.657  15.218 -0.3061 -0.0734 -0.2028
16577W        W35431   4.569  15.982   2.792  0.1112  0.0900 -0.1154
16578W        W35432   3.444  14.835   3.418 -0.2490  0.3234  0.0117
16579W        W35433  14.137  12.027   3.054  0.5073  0.1187  0.1802
16580W        W35434   9.888  15.093   1.911  0.0650  0.1172 -0.0573
16581W        W35435   6.383  13.830  13.356  0.0723  0.0770 -0.2172
16582W        W35436   6.230  12.791   0.850  0.2725  0.2033 -0.0419
16583W        W35437  10.578   4.500  12.197  0.0484  0.0772  0.0395
16584W        W35438   2.417   3.900  15.840 -0.0538 -0.1902  0.3854
16585W        W35439   7.298  17.192  15.720  0.1016  0.2335  0.6315
16586W        W35440   7.523  10.218  13.718 -0.0665  0.2028  0.0885
16587W        W35441  15.341   5.520  12.350  0.1284 -0.0611 -0.0655
16588W        W35442   1.158   9.563   0.540 -0.1644  0.0268  0.2072
16589W        W35443   7.225  14.588  15.299 -0.1676  0.1953 -0.0347
16590W        W35444   5.121  11.329   2.788  0.0670  0.0536  0.0653
16591W        W35445  11.886  11.627  10.851 -0.1828  0.1526  0.0171
16592W        W35446   6.955   5.283  14.679 -0.1877  0.3289  0.1106
16593W        W35447   0.410  14.778  11.069 -0.2269  0.1208  0.0428
16594W        W35448  13.105   7.566  14.057  0.0124 -0.1396 -0.0012
16595W        W35449  17.254  16.062   2.667 -0.1228 -0.0460 -0.0752
16596W        W35450   4.137   7.526   3.439  0.0415  0.1733 -0.0600
16597W        W35451   8.176   2.491   1.409  0.3004  0.0960  0.0897
16598W        W35452  11.899   0.616  14.850  0.1726 -0.1189  0.0373
16599W        W35453  13.577   9.678  12.701 -0.0456 -0.0862 -0.1155
16600W        W35454  14.865  13.059  12.290  0.2461 -0.0896  0.1949
16601W        W35455   7.926   6.735   0.243  0.2504  0.4058  0.3309
16602W        W35456   8.198  14.977  10.517  0.0813 -0.0250 -0.2961
16603W        W35457  17.844  15.404  12.570  0.0027  0.3056  0.0011
16604W        W35458   7.428  17.222  14.276 -0.1780 -0.0821 -0.0238
16605W        W35459   4.401   1.502   3.790 -0.0560 -0.1053 -0.1028
16606W        W35460   2.510  14.333   0.744  0.0171  0.1359 -0.1507
16607W        W35461   7.430   6.844  12.565 -0.0834  0.1954  0.2647
16608W        W35462  13.159   6.492  14.627 -0.0987 -0.1144 -0.2171
16609W        W35463  15.706   8.420   4.112  0.1424  0.0411 -0.1901
16610W        W35464   1.407  12.337  15.513 -0.2920  0.0657  0.1616
16611W        W35465  15.031  12.955   2.447 -0.1760  0.3194 -0.1818
16612W        W35466  18.036  15.512  13.613  0.0982 -0.1652 -0.1586
16613W        W35467   8.072   3.891  13.168  0.0928 -0.0187  0.3878
16614W        W35468   9.942   9.425  14.729 -0.0044  0.1683 -0.0225
16615W        W35469   0.700  14.185   3.213  0.0435  0.0942  0.2088
16616W        W35470   4.128  14.796  11.973  0.0092 -0.2206 -0.0584
16617W        W35471   3.526   4.275  15.933 -0.0216  0.2706  0.2492
16618W        W35472   6.432  15.461  13.684  0.0621 -0.2381  0.0880
16619W        W35473  13.116   9.672   3.889 -0.0007 -0.1350 -0.1769
16620W        W35474  15.613  11.164  13.762 -0.1092 -0.2349  0.0225
16621W        W35475   4.066   1.898  13.861  0.4480 -0.3595 -0.0195
16622W        W35476   7.154   7.033   1.621 -0.1342 -0.0086  0.2751
16623W        W35477  10.500   5.267  11.864  0.0244 -0.0009 -0.1611
16624W        W35478  12.970   6.231   2.245 -0.0674 -0.2633 -0.0387
16625W        W35479   1.995   8.031  13.408  0.0575  0.0326  0.2292
16626W        W35480  10.155  13.510  14.823 -0.0992  0.1306  0.0154
16627W        W35481  17.317   2.449  15.545  0.2281  0.1211 -0.2165
16628W        W35482  14.879  14.992   2.925  0.1344  0.3088  0.2125
16629W        W35483   3.731  12.009  13.895  0.0868  0.0750 -0.2235
16630W        W35484  13.541   3.961  12.635 -0.1640  0.0376  0.2109
16631W        W35485  11.297  15.439  12.698  0.1781 -0.3099 -0.0697
16632W        W35486   8.166  16.739  14.195 -0.0769  0.0184 -0.0339
16633W        W35487  12.831   6.913   0.845  0.0779  0.2053  0.3582
16634W        W35488   3.144   4.583  15.787 -0.0786  0.0124 -0.1630
16635W        W35489   2.299  15.500  15.030  0.0277 -0.2262  0.0366
16636W        W35490   4.782   1.944  13.276 -0.0186 -0.0282  0.0692
16637W        W35491  15.823   3.885   2.250 -0.0198  0.2581 -0.1852
16638W        W35492  16.638   0.258  14.262  0.3095 -0.0888  0.0380
16639W        W35493  12.491   1.285  13.992  0.2153 -0.1830 -0.0392
16640W        W35494   8.631   1.726  15.994 -0.0468 -0.4222 -0.0049
16641W        W35495  16.967  17.004  12.752  0.0762 -0.3167 -0.0410
16642W        W35496   9.025   5.063   3.311  0.2907 -0.0393 -0.1709
16643W        W35497  18.019  10.842  11.524  0.0636  0.1217 -0.0778
16644W        W35498   0.187   8.655  11.327  0.3187 -0.1929 -0.2819
16645W        W35499   8.558  13.917  15.922  0.0376 -0.0816 -0.0726
16646W        W35500   2.479   4.158   2.002 -0.1612 -0.3512 -0.0147
16647W        W35501  11.481   3.782  13.042  0.0086  0.3610 -0.3025
16648W        W35502   0.240  14.746  12.656 -0.0690 -0.0286  0.0014
16649W        W35503   8.102   0.222  15.978 -0.2301  0.1309  0.0411
16650W        W35504  13.282  12.239   0.255  0.2718  0.0653 -0.1512
16651W        W35505   5.268  14.043   3.900  0.1507  0.2467 -0.0257
16652W        W35506  13.301  12.375   3.689  0.0116  0.0064  0.2821
16653W        W35507  10.726   5.826   0.680 -0.1840  0.1093 -0.1033
16654W        W35508   6.699   7.728   5.634 -0.0880 -0.3107  0.0875
16655W        W35509  10.140   7.963   2.044 -0.0032  0.0387  0.2370
16656W        W35510   8.589   8.215  11.155  0.3651 -0.0617 -0.0998
16657W        W35511   7.539   7.882  12.406  0.2659 -0.0947 -0.1936
16658W        W35512   4.337  13.350   3.562 -0.0699 -0.0563  0.1646
16659W        W35513   4.923   7.098   4.349 -0.0026  0.1044  0.2401
16660W        W35514   0.518   2.737   3.799  0.0400  0.4310 -0.1911
16661W        W35515   7.045   7.801  12.514  0.2986  0.0016  0.0184
16662W        W35516   5.621   1.784   2.325 -0.0063 -0.0934 -0.0507
16663W        W35517   4.586   0.661   3.899 -0.1667  0.1204  0.1593
16664W        W35518   0.515  11.461   4.209  0.3929 -0.1602 -0.1095
16665W        W35519  13.514   6.340  13.809 -0.1948 -0.0192  0.1157
16666W        W35520   0.146  11.731   0.452  0.0251  0.0713 -0.1230
16667W        W35521   8.084  10.150   4.259 -0.1011  0.0541 -0.1009
16668W        W35522   1.807  10.436   0.445  0.0729 -0.1911 -0.0245
16669W        W35523   0.346   8.058   0.226  0.2426  0.4072  0.1678
16670W        W35524  13.977   1.834   4.768  0.2004  0.0416  0.2407
16671W        W35525   6.247   4.406   3.784  0.0225 -0.1403  0.1035
16672W        W35526  11.608  11.066   3.116  0.0471 -0.1896  0.1884
16673W        W35527  15.437   3.961  15.113  0.0406  0.2096 -0.0973
16674W        W35528   3.219   5.193  15.120  0.3052  0.1744  0.1558
16675W        W35529   1.008   3.784   1.036 -0.0295  0.0799 -0.3190
16676W        W35530  14.454  16.947  14.710 -0.1318 -0.3718 -0.2583
16677W        W35531  17.467   9.729   2.963 -0.0143  0.0575 -0.1516
16678W        W35532   7.848  15.303   3.400 -0.0728 -0.0602  0.2618
16679W        W35533   0.338  10.736  14.303  0.1184 -0.1033  0.2276
16680W        W35534   0.561   0.314  16.110 -0.1149  0.1347  0.0915
16681W        W35535   6.610  16.813   4.612  0.0672  0.2043  0.1464
16682W        W35536  10.506   3.525   3.714 -0.2540 -0.1332 -0.3441
16683W        W35537   8.606  13.526   3.044 -0.0167  0.2416  0.2616
16684W        W35538   2.178   6.250  14.898  0.0351  0.2883  0.0756
16685W        W35539  15.387  16.368  15.814  0.2853  0.0136 -0.3527
16686W        W35540   8.877  13.364   1.097  0.0634 -0.1323 -0.0691
16687W        W35541   0.371  17.992  14.377  0.1435  0.2670 -0.0417
16688W        W35542   7.801  14.042  12.826  0.3336  0.0705  0.1254
16689W        W35543  12.207  11.628   2.939  0.0013  0.1452 -0.1206
16690W        W35544   4.580  16.532   3.577  0.1104 -0.0473  0.0616
16691W        W35545   3.280   1.968   4.669  0.0477 -0.0948  0.0779
16692W        W35546  15.040  16.328  14.080 -0.0368 -0.0419  0.3085
16693W        W35547  17.526   0.200  13.323 -0.0083  0.1140 -0.0660
16694W        W35548  17.404   8.354   0.089  0.1233 -0.0998  0.1096
16695W        W35549  12.779  15.998  13.617 -0.3564  0.0141 -0.1780
16696W        W35550  13.382   5.794   1.177 -0.1805 -0.0256 -0.2422
16697W        W35551   7.812   2.797   4.379 -0.1171  0.3133 -0.1501
16698W        W35552   0.801  15.711   0.867 -0.2579 -0.0087 -0.0114
16699W        W35553  12.085   7.326  14.051 -0.0492  0.0596  0.1973
16700W        W35554   7.887   6.071  13.564  0.2324  0.0868 -0.2546
16701W        W35555   9.674  12.689  10.627 -0.1223 -0.0041 -0.0037
16702W        W35556   5.188   6.191   1.581  0.1545 -0.1287 -0.1861
16703W        W35557   3.935   7.068   1.396 -0.1553  0.1062 -0.1097
16704W        W35558  15.647  16.734   1.259 -0.0241 -0.3221 -0.1405
16705W        W35559   2.246   2.226   0.263 -0.2959  0.0265  0.0778
16706W        W35560   1.453   4.792   2.621  0.3133  0.1873 -0.1296
16707W        W35561  13.621  12.320   4.141  0.1857  0.2279  0.1164
16708W        W35562   0.666   4.849  13.396 -0.1719 -0.1814  0.1390
16709W        W35563   2.690   0.926   1.814 -0.1607  0.0020 -0.0211
16710W        W35564   5.740  16.309  14.223 -0.5247  0.2432 -0.0264
16711W        W35565  13.221   8.791  11.328 -0.1550  0.0223  0.0917
16712W        W35566   8.426   1.314  14.759 -0.3620  0.1566  0.3522
16713W        W35567  14.047   9.823   2.568 -0.1913 -0.3851  0.1976
16714W        W35568   3.936   8.212   1.531 -0.0658  0.3895  0.2145
16715W        W35569  10.944   3.370   4.500  0.0085  0.0892  0.1563
16716W        W35570  14.160  11.399  11.109  0.3454  0.0955 -0.0037
16717W        W35571   5.661   8.903   1.902  0.1549  0.0659 -0.1874
16718W        W35572   7.302   4.537  12.265 -0.1169  0.1250 -0.6054
16719W        W35573   2.104  14.999   4.077 -0.3122 -0.0340  0.2424
16720W        W35574   9.487  10.236   1.439  0.0185  0.2424 -0.0769
16721W        W35575   1.159  16.711  12.305 -0.3389  0.1743  0.2663
16722W        W35576  11.172   8.554  15.575  0.0024  0.3670 -0.3566
16723W        W35577  17.753   0.221   3.267  0.2206 -0.1438  0.1049
16724W        W35578  15.469  10.859   3.326 -0.1816 -0.2362 -0.0447
16725W        W35579   9.682  12.294   3.391 -0.0437  0.0118  0.0065
16726W        W35580  15.894  10.615   3.054 -0.1263 -0.1001 -0.0179
16727W        W35581  14.473  13.370   1.211 -0.0340  0.1385 -0.0739
16728W        W35582   5.121  12.830  14.595 -0.0708  0.0026  0.0430
16729W        W35583   2.879  11.567   2.889 -0.1051 -0.2822 -0.0163
16730W        W35584  14.744   9.123   3.984  0.1661  0.1125  0.1266
16731W        W35585   4.528   0.891  15.624  0.0884  0.2501  0.1944
16732W        W35586   7.944   2.838   2.159  0.1287  0.0643 -0.1481
16733W        W35587   9.788  14.670   0.773  0.2167 -0.1101  0.0778
16734W        W35588   6.862  17.808   2.981 -0.0617 -0.0908  0.1123
16735W        W35589   7.168   0.018  13.139  0.2410  0.0382 -0.0340
16736W        W35590  12.730  14.562  13.196  0.1248  0.1470  0.0470
16737W        W35591   2.457   3.705   1.153  0.0156 -0.0343  0.1235
16738W        W35592   0.376  11.598   2.378 -0.1612  0.0010  0.0337
16739W        W35593   4.804   8.556   2.909  0.0402  0.3217 -0.2598
16740W        W35594   3.497  16.620  13.966 -0.0105  0.1033  0.1268
16741W        W35595   6.920  10.385   5.887 -0.3237  0.2799  0.1813
16742W        W35596   1.636   2.530  14.144  0.0683 -0.2380 -0.1332
16743W        W35597   8.170   0.011   6.135 -0.2176  0.3021  0.0071
16744W        W35598   5.232  12.685   3.861 -0.1482  0.0684 -0.1398
16745W        W35599  12.563  16.860  14.441  0.0458  0.2798  0.2403
16746W        W35600  14.720   6.084  11.693 -0.0829  0.0023 -0.1346
16747W        W35601  15.379   6.266   2.180 -0.1424 -0.4986  0.1310
16748W        W35602  14.855  15.251  14.332  0.0950 -0.0648 -0.3554
16749W        W35603  16.377   4.754   0.690  0.0683 -0.0323  0.0303
16750W        W35604  13.369   7.380  13.575 -0.1306 -0.1101 -0.0530
16751W        W35605  15.121  16.391  12.424 -0.0897 -0.0946 -0.0437
16752W        W35606   8.226   2.310   0.480  0.0463  0.2020  0.1723
16753W        W35607  12.584  14.798   0.212 -0.1805 -0.1896  0.0351
16754W        W35608  17.869  10.614  14.076 -0.0068 -0.0785 -0.4796
16755W        W35609  17.798   3.221   2.343  0.1523  0.0724  0.1920
16756W        W35610   8.599  15.463  13.643  0.0681 -0.1680  0.0442
16757W        W35611   2.823   5.226  15.999 -0.0582 -0.3095  0.2283
16758W        W35612   4.076   0.335  13.898 -0.0295 -0.0600  0.2010
16759W        W35613  14.423  14.546   5.184  0.2989  0.1165 -0.2010
16760W        W35614  16.464  16.639  10.282 -0.2628 -0.0585  0.0696
16761W        W35615   9.300   6.207  13.641  0.1961 -0.3103  0.1890
16762W        W35616   1.936   1.633  13.844 -0.0552 -0.0646  0.0593
16763W        W35617   1.888   8.259  12.475 -0.2736  0.2918  0.3422
16764W        W35618  15.025  12.242  13.436  0.0385  0.1568  0.1246
16765W        W35619  12.751   9.472   2.117 -0.0833 -0.0723 -0.0549
16766W        W35620   7.828   4.099   2.501  0.0086 -0.0724  0.3766
16767W        W35621  15.706  11.114   2.025 -0.3849 -0.0120  0.0432
16768W        W35622   9.237  13.962   1.873 -0.1879 -0.2904 -0.0872
16769W        W35623   6.655   4.474   2.155 -0.1119 -0.2694  0.1293
16770W        W35624   2.885  17.848  11.481  0.0363 -0.0485 -0.0193
16771W        W35625   2.797   3.783   1.897 -0.0315  0.1903  0.1226
16772W        W35626  11.127  12.667   2.515  0.2803  0.0063  0.3082
16773W        W35627   3.044   8.327   3.547  0.2774 -0.1952 -0.2001
16774W        W35628  15.286  11.701   3.749 -0.1823 -0.0179  0.4088
16775W        W35629   0.989   9.216  14.486 -0.1008  0.0609  0.2111
16776W        W35630  14.888   9.227  13.654 -0.0935 -0.2029  0.1979
16777W        W35631   6.606   0.551  14.320 -0.1509 -0.2594  0.2128
16778W        W35632   4.951  15.231  12.369  0.3496  0.1088  0.1210
16779W        W35633  14.550   3.194   2.489 -0.0517 -0.1512  0.1060
16780W        W35634   8.502   7.749   2.903 -0.2419  0.2639 -0.1053
16781W        W35635  16.513  14.881   0.917 -0.1239  0.3137  0.0439
16782W        W35636  17.399  14.354  13.493  0.2247 -0.1369 -0.2614
16783W        W35637   6.541   3.668  11.754  0.1519 -0.1207  0.0774
16784W        W35638   1.224  12.662  12.091 -0.2778  0.0820  0.1048
16785W        W35639  16.929   7.610  14.476  0.0564 -0.0473  0.1560
16786W        W35640   8.597  13.132  11.756  0.3087  0.0047 -0.1261
16787W        W35641   6.492  17.804  11.926  0.0285 -0.1118 -0.3517
16788W        W35642   0.375   6.749   2.885 -0.2603 -0.1744 -0.1297
16789W        W35643  11.154   1.224  15.714  0.0084  0.1980  0.1083
16790W        W35644  11.887   4.030  14.214 -0.1472 -0.0306  0.2157
16791W        W35645   8.239   7.587   5.475  0.2123  0.1111 -0.0218
16792W        W35646   4.713  12.644   3.660  0.2951  0.3212  0.1889
16793W        W35647  14.949  13.325   0.909 -0.1389  0.0971 -0.4128
16794W        W35648   2.349   8.842  13.393 -0.1638 -0.0298  0.1994
16795W        W35649   3.301   1.872  10.502  0.4667 -0.1908 -0.0218
16796W        W35650   7.708  14.625   1.710 -0.1639 -0.1608  0.0300
16797W        W35651   9.610  14.386   3.970 -0.0291  0.0934  0.0217
16798W        W35652  10.743   4.823  15.732 -0.1300 -0.2041 -0.1561
16799W        W35653  16.499   1.936  13.267 -0.0025 -0.0944 -0.3530
16800W        W35654   1.451  13.733  16.191 -0.0845  0.0433 -0.4813
16801W        W35655   1.007  15.653   3.331 -0.1500 -0.0620 -0.0186
16802W        W35656   5.334   2.771   2.185  0.3530  0.1044 -0.3311
16803W        W35657  11.141  12.272   3.584  0.0249 -0.2258 -0.1043
16804W        W35658   7.953  17.706   2.358 -0.2450 -0.4082 -0.1381
16805W        W35659   6.910  17.858  12.280 -0.4024  0.0764 -0.0608
16806W        W35660  13.077   4.479   3.683  0.0267  0.0352  0.0123
16807W        W35661  13.063   4.274   1.180 -0.0593  0.2473 -0.2476
16808W        W35662   6.789   4.550   3.809 -0.1272  0.1894 -0.1814
16809W        W35663   0.383  16.722   2.442  0.2315 -0.0438  0.0664
16810W        W35664  16.543  12.964  12.633 -0.0630 -0.0004 -0.4656
16811W        W35665   8.157   4.226   1.109 -0.0719 -0.2104  0.0088
16812W        W35666  14.868   2.148   1.260  0.3003 -0.1730 -0.0157
16813W        W35667   7.101  17.712   3.418 -0.0628 -0.1483 -0.1008
16814W        W35668  15.249  13.333  12.089  0.0053 -0.1242  0.0434
16815W        W35669   1.850  17.324   1.056 -0.2364 -0.1866  0.0541
16816W        W35670   7.841   7.193  14.203  0.2493 -0.1614  0.0121
16817W        W35671   0.870  17.684  12.386 -0.3612  0.1350 -0.0677
16818W        W35672  14.641  11.978   4.747  0.0886  0.1193  0.3601
16819W        W35673  12.752   3.683  12.649  0.0377 -0.0834  0.3218
16820W        W35674   4.081   6.996  12.116  0.3191 -0.1073  0.3078
16821W        W35675   9.356  17.079  13.274  0.0347 -0.0772  0.0540
16822W        W35676   1.605   9.173  13.954  0.0818  0.1342 -0.0784
16823W        W35677  13.917  17.031   1.150  0.0902 -0.0381 -0.3453
16824W        W35678  14.904  16.477  15.032 -0.4250  0.1715 -0.0286
16825W        W35679  12.622   5.725   4.382 -0.1298 -0.3094  0.1894
16826W        W35680  12.258   9.290  12.441  0.2057  0.0048  0.1991
16827W        W35681   4.880  10.465   2.757  0.1794  0.5954  0.1943
16828W        W35682  14.157  13.034  14.009 -0.3222  0.2365 -0.1397
16829W        W35683   4.888  13.521   5.671  0.0618  0.1805 -0.0703
16830W        W35684  13.886  10.719   4.464 -0.1261  0.2746  0.1361
16831W        W35685  10.991   1.068  14.795  0.1367 -0.1557  0.2039
16832W        W35686  17.606  15.358  15.927 -0.0196  0.1674  0.0389
16833W        W35687  15.335   1.876  15.885 -0.0170  0.2665  0.1188
16834W        W35688   6.182   2.284  12.943 -0.4386  0.2187 -0.1236
16835W        W35689   1.857  13.713   3.106 -0.2410 -0.0775  0.3061
16836W        W35690   4.805  11.300  11.202  0.0063 -0.0918 -0.3237
16837W        W35691  11.149   0.920  12.144  0.1528  0.0325  0.0669
16838W        W35692   1.297   2.813   2.292 -0.0264 -0.2252  0.1467
16839W        W35693   3.384   3.156   2.367 -0.2570 -0.1335  0.2535
16840W        W35694  17.603   7.035  13.463  0.1552 -0.3513 -0.0588
16841W        W35695   9.606   8.074  12.730  0.0289  0.2426 -0.0413
16842W        W35696  17.179   9.726  15.961 -0.2576 -0.0043 -0.3624
16843W        W35697   6.289   3.680   2.819 -0.2509 -0.2173  0.2474
16844W        W35698  15.008   7.365   4.531  0.0746  0.0644 -0.0258
16845W        W35699  14.623  17.677   4.419 -0.2434 -0.2568  0.1613
16846W        W35700  11.372   2.508   2.917  0.0140 -0.1493 -0.2166
16847W        W35701  17.069   2.159  13.056  0.1450  0.0972  0.1096
16848W        W35702   3.071  10.535   3.060 -0.0587  0.1449  0.0087
16849W        W35703   7.026  13.316  14.931  0.2004  0.1584 -0.1698
16850W        W35704  17.660  16.568   1.833 -0.0761  0.1139  0.2229
16851W        W35705   0.949   7.245   5.289  0.2259  0.0454 -0.4291
16852W        W35706  16.637  17.643   1.342 -0.0378  0.0826 -0.1008
16853W        W35707  13.966   2.532  15.913 -0.2049  0.1074  0.2660
16854W        W35708  14.657  15.368   1.642 -0.1586  0.0958 -0.3030
16855W        W35709   8.047  10.757   2.329  0.1438  0.1021 -0.1289
16856W        W35710   8.231  12.795   0.984 -0.4011 -0.1466  0.0725
16857W        W35711   3.378   8.093  11.550  0.1209  0.1895  0.1735
16858W        W35712   0.173   2.275   2.323  0.2701 -0.1254  0.1387
16859W        W35713   9.418   0.674  13.446 -0.2790 -0.2145  0.0455
16860W        W35714   3.708  10.395   1.135  0.1306  0.0275  0.1449
16861W        W35715   1.718  14.573   3.395 -0.0444 -0.4236 -0.0632
16862W        W35716  10.199  17.972  15.307 -0.0237 -0.2614  0.3310
16863W        W35717   8.300  16.518   5.372 -0.1248 -0.1263  0.1107
16864W        W35718   4.818  16.674  12.052  0.1400  0.0284  0.1719
16865W        W35719  12.010  15.594  14.309  0.3140 -0.1309 -0.2164
16866W        W35720  16.126  12.503   5.016 -0.1833 -0.0072 -0.0769
16867W        W35721   0.397   5.282  11.833 -0.0029  0.0289  0.0617
16868W        W35722  14.313   9.451   2.934 -0.1828 -0.0404  0.3505
16869W        W35723   0.316   3.424  14.212 -0.0925  0.2109  0.1868
16870W        W35724   3.952  17.149  15.934 -0.2012 -0.2148 -0.1098
16871W        W35725  14.913   2.035  11.647  0.0934 -0.2570  0.0546
16872W        W35726   3.608   8.658  13.147 -0.1171 -0.0323 -0.4154
16873W        W35727   1.724   2.771  14.975 -0.4398 -0.2259 -0.0171
16874W        W35728   3.617  16.821  15.518 -0.1472 -0.0541  0.0733
16875W        W35729  12.206  15.970  15.411  0.0634  0.0611  0.0860
16876W        W35730  15.451   8.859   3.395 -0.1522 -0.0394 -0.1793
16877W        W35731  11.133   6.666  16.163  0.1808 -0.0678 -0.2920
16878W        W35732   9.550  12.336  13.716 -0.2494  0.3619 -0.0675
16879W        W35733  13.309  14.057  15.861 -0.1297 -0.0499  0.1427
16880W        W35734   3.659   7.269   0.599  0.1518  0.0087 -0.1480
16881W        W35735   9.131   4.405  14.112  0.2139  0.1726 -0.0344
16882W        W35736  17.309   0.742  12.142  0.0568  0.0480  0.0280
16883W        W35737  12.014   9.309  14.767  0.0169 -0.1187 -0.0305
16884W        W35738  10.629   9.290  13.505  0.0328  0.1559  0.1363
16885W        W35739   0.231   1.633  16.071  0.0655 -0.0508 -0.0227
16886W        W35740   0.647  13.970  13.274 -0.0021  0.3281 -0.0810
16887W        W35741  16.034   8.089  14.027  0.1720 -0.2189 -0.1527
16888W        W35742  11.066  10.555   3.791  0.0882  0.0518  0.2323
16889W        W35743  14.563   6.229  15.574 -0.0027  0.0803 -0.0275
16890W        W35744  10.400   0.422   1.484  0.1027  0.2238 -0.1780
16891W        W35745  14.981   2.188   0.387  0.0279  0.1609  0.0918
16892W        W35746  11.115   6.967  14.597 -0.1035  0.0572 -0.0338
16893W        W35747   4.325   2.136  13.524  0.1639  0.3527 -0.0861
16894W        W35748   9.572  13.796   2.787  0.0551 -0.2494 -0.0040
16895W        W35749   0.629  16.962  11.977  0.4874  0.2304 -0.2272
16896W        W35750  12.058  14.858   1.617  0.2950  0.3547  0.0553
16897W        W35751  12.547   3.282  16.125 -0.2409 -0.3191 -0.0268
16898W        W35752   4.897   6.720   2.757  0.2325  0.0734  0.2686
16899W        W35753   8.156   4.558   4.253  0.0648 -0.0772 -0.0185
16900W        W35754   7.024  15.059  15.272 -0.1203  0.0104  0.1498
16901W        W35755   9.572  10.486  12.929  0.1930 -0.0416  0.0210
16902W        W35756  10.725   2.481   2.348  0.0629  0.2806 -0.0077
16903W        W35757   7.874  11.327  11.851 -0.2445 -0.0228 -0.1213
16904W        W35758  12.591   8.142  15.207 -0.1401  0.1637 -0.0489
16905W        W35759  10.663   1.625   4.009 -0.0048 -0.0095  0.1942
16906W        W35760   8.241   2.523  13.327  0.1269 -0.0229  0.0745
16907W        W35761  14.219   4.680  13.638 -0.4466 -0.0046 -0.0335
16908W        W35762  12.903   9.985  11.984 -0.2513  0.1032 -0.0775
16909W        W35763   5.693   3.758  11.615  0.1569 -0.4087  0.1646
16910W        W35764  13.504  16.980   2.509  0.0656  0.0871  0.0128
16911W        W35765   9.563   3.938   0.117 -0.3497 -0.1299 -0.1027
16912W        W35766  16.804   6.528   0.933 -0.1260 -0.2796  0.0839
16913W        W35767   6.693  14.525  14.620  0.0708 -0.1648  0.3860
16914W        W35768   1.761   8.932   3.434 -0.0890  0.2426  0.3212
16915W        W35769   7.398   7.468   0.150 -0.0143  0.0755 -0.2026
16916W        W35770   5.007  15.967   3.071 -0.0766  0.1722 -0.0690
16917W        W35771  15.769  14.236  14.373 -0.0559  0.1953  0.0386
16918W        W35772  16.809   8.609  11.447 -0.0639  0.1244 -0.0510
16919W        W35773   7.809  13.395   2.089  0.5129 -0.1121 -0.0559
16920W        W35774   8.991   1.526   1.234  0.0822 -0.0798  0.1293
16921W        W35775  11.166   0.721  12.604  0.1549 -0.0864  0.2965
16922W        W35776  10.744  17.724   1.129  0.0584  0.0570  0.1117
16923W        W35777  15.810   6.647  16.194  0.1917  0.0303 -0.1171
16924W        W35778  16.379   9.423  12.023  0.2103 -0.1160 -0.2142
16925W        W35779   8.936   9.380  14.693 -0.0881 -0.1084  0.1113
16926W        W35780  12.124   8.744   2.138  0.1412 -0.1061 -0.0093
16927W        W35781   6.020   8.753  14.176  0.1103 -0.0091  0.1099
16928W        W35782  13.551   6.328   1.203 -0.3254 -0.0156 -0.1745
16929W        W35783  13.132   7.480   3.600  0.3112 -0.0873  0.0171
16930W        W35784  17.693   9.321   4.752  0.0309  0.2163  0.2604
16931W        W35785  17.506  15.244   1.799 -0.0647 -0.0569 -0.0300
16932W        W35786  13.355   8.693  14.516  0.0536 -0.1204  0.4038
16933W        W35787  10.274  17.779   4.444  0.2067  0.1396 -0.0332
16934W        W35788   8.717   2.425   3.732  0.0684 -0.0494  0.1307
16935W        W35789   9.315  14.685   2.792 -0.2232  0.0791  0.2640
16936W        W35790  15.168   4.614  14.456 -0.0967 -0.3360  0.2475
16937W        W35791   8.116   1.381   2.213  0.3037  0.1134 -0.0228
16938W        W35792  17.668   4.907  13.037  0.1490  0.2046 -0.1342
16939W        W35793   2.976  13.081   2.974  0.2194 -0.1944 -0.1598
16940W        W35794   7.539   2.599  12.922  0.1897  0.2122 -0.0091
16941W        W35795  15.670  14.231  12.990  0.1815  0.2157 -0.1648
16942W        W35796  11.582   9.660   2.299 -0.1180  0.0454  0.2027
16943W        W35797   3.235   9.558  15.966  0.2976  0.2406  0.0132
16944W        W35798  12.440   2.087  14.336  0.0727  0.2675  0.2275
16945W        W35799   0.486  16.847  14.945  0.0471  0.0438  0.1216
16946W        W35800  14.281  13.691  14.721  0.0904  0.0665 -0.0277
16947W        W35801   7.724  10.861  15.149 -0.0357  0.0758 -0.4415
16948W        W35802  12.370  15.168   2.592 -0.0680  0.2823  0.0323
16949W        W35803   5.563  10.857   4.450  0.2053  0.2401 -0.0854
16950W        W35804  13.157   5.084   0.288  0.1532 -0.2048  0.0140
16951W        W35805  17.804   9.189  10.928 -0.0464 -0.1196  0.1902
16952W        W35806  17.691   3.212   1.064 -0.2149  0.0765 -0.1210
16953W        W35807  10.354   3.981  11.593  0.1893 -0.2667  0.0874
16954W        W35808   3.890  15.097  15.396  0.0336  0.4564  0.3144
16955W        W35809   1.856   4.429  12.447 -0.2264  0.0047 -0.4361
16956W        W35810   9.040   7.467   3.188  0.1569 -0.1449  0.2467
16957W        W35811   1.938  13.939  12.692  0.0414 -0.1145  0.1047
16958W        W35812   8.127  10.420  15.705 -0.2046  0.1755  0.2339
16959W        W35813   3.672  10.903   0.855  0.0246  0.0519  0.1228
16960W        W35814   0.464   6.888  14.224 -0.1187 -0.0339 -0.0896
16961W        W35815  12.185  10.626  10.812 -0.2472  0.1144 -0.2270
16962W        W35816   3.769   8.356  11.459  0.2405 -0.3111  0.0227
16963W        W35817   3.208   4.317   2.592 -0.1025  0.0335 -0.1950
16964W        W35818   3.614   5.850   1.493  0.3265  0.2820 -0.1312
16965W        W35819   9.110   3.689  12.841  0.0578  0.1550  0.2373
16966W        W35820   9.526  17.996   0.567  0.0226  0.0854 -0.0689
16967W        W35821   6.907   5.257  11.961  0.0586  0.1860 -0.0534
16968W        W35822  16.611   3.477  14.146 -0.1199  0.2372 -0.0724
16969W        W35823  14.249   3.977  11.889  0.0849 -0.1100 -0.0365
16970W        W35824   9.172  15.694   1.189 -0.0191  0.0386 -0.1738
16971W        W35825   9.054  17.423   3.009  0.1569  0.3642 -0.1475
16972W        W35826   3.093  17.923   2.022  0.2440  0.0627 -0.0685
16973W        W35827   6.464  17.732  15.239  0.1395 -0.2314  0.0532
16974W        W35828  14.350   3.933   1.987  0.0264 -0.3799  0.2065
16975W        W35829  17.435  11.577  11.789  0.0778  0.3200  0.0966
16976W        W35830   8.812  11.257   0.301  0.2173 -0.0100  0.0330
16977W        W35831   2.460  18.008  12.669 -0.1860 -0.2738 -0.0915
16978W        W35832   6.161   0.431  13.696 -0.0239  0.2040 -0.2945
16979W        W35833   6.936   5.219  13.758  0.1846  0.3254 -0.1501
16980W        W35834   7.306   0.019   1.339 -0.1420 -0.0774  0.0098
16981W        W35835   6.834   9.719  14.893 -0.1718 -0.1037  0.0120
16982W        W35836   0.750   1.876  15.955 -0.0925  0.2726 -0.1109
16983W        W35837  15.011   7.992   1.541 -0.0689  0.0894 -0.1504
16984W        W35838  11.577  13.366  14.263  0.0209 -0.0097 -0.2982
16985W        W35839  17.650  16.399   4.003  0.2054 -0.0625 -0.3959
16986W        W35840   6.809   8.108   0.323 -0.2632 -0.1447  0.4375
16987W        W35841   5.591  12.410  11.844  0.0587 -0.2105 -0.0527
16988W        W35842  17.376  14.135   5.064  0.3534  0.0052 -0.1321
16989W        W35843   6.555  11.812  15.224  0.2427 -0.2115  0.0947
16990W        W35844   0.637   7.358   2.337 -0.3789 -0.1042 -0.0120
16991W        W35845   8.803   0.448  15.636 -0.0433  0.1311  0.2122
16992W        W35846  13.189   0.846   0.868  0.1584 -0.2077  0.1174
16993W        W35847   0.727   7.922  15.137  0.4180  0.1781 -0.3022
16994W        W35848  16.951  11.561   4.654 -0.0248 -0.0472  0.3097
16995W        W35849  16.969   7.946   4.617  0.3636  0.0727 -0.1469
16996W        W35850  13.437   1.220  14.426  0.0037 -0.0312 -0.0475
16997W        W35851   1.524   6.241  12.236  0.2081  0.1651 -0.2189
16998W        W35852  10.388  16.367  12.430  0.0303  0.0500  0.1746
16999W        W35853  13.196   6.008  16.106  0.0996  0.0534 -0.0605
17000W        W35854   4.009  16.521  13.984 -0.2058  0.0409  0.1237
17001W        W35855   6.209   3.467  12.501  0.0493 -0.0222  0.3440
17002W        W35856   9.105   7.303   1.107 -0.1893 -0.1513 -0.0803
17003W        W35857   2.643   6.186  16.083 -0.1740  0.2652  0.0041
17004W        W35858  11.368   6.125   1.206 -0.1401  0.2117  0.1798
17005W        W35859  10.276  17.416  11.924  0.1424 -0.1586 -0.0555
17006W        W35860   5.669   8.490  15.640 -0.0951  0.1475  0.2327
17007W        W35861  16.031   3.825   0.241  0.1921  0.1030  0.0541
17008W        W35862   0.472  13.565  14.589  0.2046 -0.1485 -0.0782
17009W        W35863   3.836  14.072   3.573 -0.1162 -0.1210 -0.1149
17010W        W35864   4.025  12.355   4.387 -0.1647  0.1202  0.4272
17011W        W35865  15.473  10.882  15.298  0.0589  0.3265 -0.1618
17012W        W35866  16.857   4.607  13.584  0.0519 -0.2305  0.3785
17013W        W35867   1.706   5.424  14.864 -0.1362  0.0986 -0.0026
17014W        W35868   7.000   2.864  12.801  0.2514 -0.2605  0.3094
17015W        W35869   0.142  11.313   0.822  0.3924  0.4825 -0.1907
17016W        W35870  12.599  14.112   3.830  0.2178 -0.1406 -0.0109
17017W        W35871   2.954   1.700   3.060  0.2274  0.1298  0.2672
17018W        W35872  10.479  10.294  10.457 -0.0342  0.2223  0.4817
17019W        W35873  17.699  17.802   2.601  0.1937  0.0781 -0.1031
17020W        W35874   5.131   2.361  14.036  0.1768 -0.1658  0.3840
17021W        W35875  17.419   4.820   4.036 -0.2847 -0.2282  0.0596
17022W        W35876  16.136  11.394  13.779 -0.0432 -0.1333  0.0372
17023W        W35877  15.976   7.207  13.543  0.0010 -0.3112  0.2244
17024W        W35878  16.438   0.065  15.435  0.2624 -0.0858  0.0242
17025W        W35879   6.689   2.135   3.491  0.0001 -0.3142 -0.1707
17026W        W35880   7.138   2.581  12.063 -0.0443  0.1395  0.0849
17027W        W35881  14.414   9.528   3.987  0.1809  0.1406 -0.0602
17028W        W35882   9.023   8.023   1.664 -0.0027 -0.0147 -0.1177
17029W        W35883   6.235   6.422  15.006  0.1976 -0.2564 -0.1586
17030W        W35884  16.088  16.404  11.711 -0.5299 -0.3531  0.1387
17031W        W35885   6.241   0.750   3.323  0.1426 -0.0681  0.0206
17032W        W35886   1.472  17.435   2.345 -0.1759  0.2929 -0.1085
17033W        W35887  12.422  13.901  11.559 -0.0287 -0.1630  0.0289
17034W        W35888   3.984   2.671  14.436 -0.2923  0.0713 -0.4233
17035W        W35889  16.647   0.937   1.955 -0.1017 -0.1418 -0.1865
17036W        W35890   0.729   7.951  14.535  0.0638  0.0201  0.0677
17037W        W35891  15.923  12.229   4.162 -0.3563  0.3351  0.1457
17038W        W35892  10.123  12.594   4.269 -0.0209 -0.0662 -0.2352
17039W        W35893   5.805   2.177   4.299  0.0371  0.0865 -0.1013
17040W        W35894  14.172   7.526  14.546 -0.1158  0.0279 -0.0709
17041W        W35895   4.566   4.574   4.917  0.0053 -0.3380 -0.0223
17042W        W35896   7.941  11.459  13.590 -0.3718 -0.2093  0.1474
17043W        W35897   8.475  13.627   0.647  0.0312 -0.0341  0.1127
17044W        W35898  10.643  12.168   5.823 -0.0602  0.1024 -0.1810
17045W        W35899  17.384  14.472   0.492 -0.1804 -0.1161  0.0989
17046W        W35900  17.793  13.395   3.020 -0.1131  0.1367 -0.1520
17047W        W35901   4.271   8.583  12.014 -0.2731  0.2749 -0.0845
17048W        W35902   0.475   9.087   4.601 -0.2526 -0.0064  0.1374
17049W        W35903   4.801   0.096   4.607 -0.0716 -0.1230 -0.0729
17050W        W35904  14.237   3.958   2.726 -0.2423 -0.1307  0.0232
17051W        W35905   2.502   5.191   0.176 -0.0675  0.1828 -0.1495
17052W        W35906   8.954  17.814   2.683  0.0013  0.1138 -0.0074
17053W        W35907  11.745  16.693   4.982 -0.2069 -0.1823 -0.0452
17054W        W35908  11.148  10.426  12.121  0.4081  0.0397 -0.2901
17055W        W35909   4.670   1.128  12.168  0.0367 -0.1043  0.0187
17056W        W35910   7.609   9.987   3.685  0.1234  0.2737 -0.0307
17057W        W35911   5.194   1.258  13.099 -0.1616 -0.2894 -0.1877
17058W        W35912  13.229  17.719   3.228 -0.0397 -0.2346  0.0772
17059W        W35913  12.241   8.898  16.025  0.2525 -0.0825  0.3965
17060W        W35914   3.067   0.762   3.098 -0.0537 -0.0718 -0.4091
17061W        W35915   6.718  11.847  12.258 -0.0007 -0.2347  0.0810
17062W        W35916  12.876  13.527  13.985  0.0075  0.4333 -0.0070
17063W        W35917   3.224   8.501   0.012 -0.1756 -0.2198 -0.2062
17064W        W35918   3.975  11.211   4.737 -0.3680  0.1477  0.0443
17065W        W35919  11.862   5.953  15.660 -0.0087 -0.3027  0.2101
17066W        W35920   4.553  12.412   0.026  0.0623 -0.1042 -0.0907
17067W        W35921   5.629  15.188  13.725 -0.0827  0.1813 -0.0715
17068W        W35922   2.750   1.705   2.399 -0.0472 -0.1863  0.2550
17069W        W35923   6.539  15.951  13.076 -0.5312 -0.0075  0.2387
17070W        W35924   0.395  10.845   1.648 -0.0113 -0.1571 -0.0603
17071W        W35925  12.120  12.613  12.830 -0.3070  0.2263  0.1092
17072W        W35926  16.829  10.944   0.102  0.1020  0.0028 -0.2504
17073W        W35927   0.883  16.014  14.129  0.0504 -0.0001  0.0067
17074W        W35928  18.008   3.888  12.175 -0.0551  0.1506 -0.0993
17075W        W35929   4.879   1.954   5.089 -0.2059 -0.0200  0.0245
17076W        W35930  12.474  16.439  14.027  0.0416  0.0877 -0.0365
17077W        W35931   1.846   6.679  14.976  0.1248 -0.1548 -0.0002
17078W        W35932  16.710  17.387   4.499 -0.0671 -0.1014 -0.0152
17079W        W35933   0.653  10.011  13.908 -0.0688 -0.0551  0.2734
17080W        W35934  10.587   3.689  13.210 -0.1885  0.0757  0.0908
17081W        W35935  10.449   5.832  12.979  0.2241  0.0060  0.0992
17082W        W35936  13.273   2.783  11.355 -0.1913 -0.1372  0.1853
17083W        W35937  13.094   2.595   0.162 -0.0817 -0.0314 -0.2842
17084W        W35938   9.990  15.208  12.814 -0.0297  0.0842  0.0259
17085W        W35939   9.224   3.359   3.144  0.0047 -0.0380 -0.0536
17086W        W35940  17.425  11.759  14.898  0.1096  0.0675 -0.1218
17087W        W35941   8.194   5.774  15.835  0.0070 -0.1252 -0.0282
17088W        W35942   3.053  14.852   1.440  0.2132  0.1343 -0.1479
17089W        W35943   3.093   9.289   3.471  0.1091 -0.1184 -0.1178
17090W        W35944   1.624  13.037  15.080 -0.0941 -0.3616 -0.0398
17091W        W35945   2.822   0.977   3.975 -0.1819 -0.2019  0.0808
17092W        W35946   2.099   9.349  11.066 -0.0531 -0.0062 -0.1654
17093W        W35947   3.145  15.690  15.951  0.1081  0.1035  0.1700
17094W        W35948  11.351   0.861   3.910 -0.0354 -0.0207 -0.0548
17095W        W35949   5.909  17.340  13.335 -0.0117  0.0238 -0.3392
17096W        W35950   3.277  12.573   4.756 -0.0039 -0.0314  0.1534
17097W        W35951   3.602  15.619   4.280 -0.3366 -0.0029 -0.2070
17098W        W35952   1.595  12.965  14.331 -0.2308 -0.1998 -0.0161
17099W        W35953  12.423  17.513   2.017  0.1406 -0.1226  0.1583
17100W        W35954  11.899   9.324   4.191 -0.1068 -0.0563  0.2222
17101W        W35955   1.739   0.715   2.680  0.2227  0.4907 -0.0566
17102W        W35956  14.824   3.146  12.463  0.2898  0.1155  0.1983
17103W        W35957   3.560   6.218  12.452 -0.0221  0.1376  0.2168
17104W        W35958   3.472   0.520  14.213  0.3353 -0.1113  0.0453
17105W        W35959   0.514   4.497  15.604 -0.2090 -0.1805  0.2546
17106W        W35960   9.888   1.633  15.312 -0.0428 -0.1039  0.1179
17107W        W35961  17.300  17.187  14.371  0.0725  0.1663  0.1547
17108W        W35962   2.615  16.353  14.415 -0.0458  0.0714 -0.2172
17109W        W35963   3.687  14.643  11.680  0.3809 -0.2242  0.1347
17110W        W35964  15.276   8.027   1.003  0.3020 -0.1577  0.2124
17111W        W35965  16.698  13.520   1.495  0.0920  0.0514 -0.0070
17112W        W35966   6.120   8.241   1.489  0.2913 -0.0121  0.3076
17113W        W35967   6.150  10.449   0.221 -0.0103 -0.1668  0.0455
17114W        W35968  10.750   7.630  13.085  0.0875  0.0613  0.0299
17115W        W35969   9.260   1.624   3.240 -0.0387  0.1492 -0.2785
17116W        W35970  16.024  11.041   1.319  0.0807 -0.4682  0.0335
17117W        W35971   5.716  14.563  12.254 -0.0870 -0.1434 -0.1723
17118W        W35972  15.205   4.417  14.966  0.0104 -0.2065 -0.1003
17119W        W35973  10.888  15.463   1.040 -0.1417 -0.0550 -0.2644
17120W        W35974  10.471   1.127  14.703 -0.1651  0.1140  0.1833
17121W        W35975  17.359   1.178   2.033 -0.0849  0.0462 -0.2634
17122W        W35976  16.485  10.008   2.946 -0.0532 -0.1551 -0.0984
17123W        W35977   4.868  13.704   2.395  0.0634  0.0763 -0.1015
17124W        W35978   5.427   9.837  10.590  0.2191  0.0024  0.0209
17125W        W35979  17.118   2.884  11.652  0.1112 -0.1017 -0.0150
17126W        W35980  10.744   1.916  14.206  0.0532  0.0424 -0.0115
17127W        W35981   9.769   9.911   3.476  0.0966  0.0850  0.1410
17128W        W35982   8.626   4.608   4.499 -0.1708 -0.1138  0.2200
17129W        W35983  13.340   3.398   4.448 -0.0824 -0.3037 -0.3554
17130W        W35984   3.980  17.127  15.307 -0.0256 -0.0825 -0.3234
17131W        W35985  15.824   6.298   3.069  0.0231  0.2796  0.0243
17132W        W35986  12.472   9.542  11.863  0.0077  0.0423  0.1233
17133W        W35987   1.580   7.605  10.379  0.0289 -0.0911 -0.0502
17134W        W35988  11.683   1.093  15.047  0.1902 -0.0405 -0.1361
17135W        W35989  17.295  10.758  12.861  0.2995 -0.0572  0.3019
17136W        W35990   7.888   3.310  15.761 -0.2449  0.0629  0.1766
17137W        W35991  12.620  13.938  16.180  0.2801  0.2551 -0.1382
17138W        W35992  10.320  11.751  15.511 -0.0585  0.4043 -0.0947
17139W        W35993  14.927   6.608   0.696 -0.0925 -0.0211  0.0348
17140W        W35994   2.403   5.436  11.536 -0.1594 -0.0485 -0.0890
17141W        W35995  17.808  17.172  13.081  0.0561 -0.1254 -0.2557
17142W        W35996   0.449  10.065   4.070  0.1550  0.1952  0.1386
17143W        W35997   7.637   7.254  12.293 -0.2615  0.0142  0.0081
17144W        W35998   0.240   3.523   4.114 -0.5153  0.0909 -0.0241
17145W        W35999  17.492   6.530  14.883 -0.2460  0.1748  0.1346
17146W        W36000  15.120  12.530   2.119 -0.0464 -0.1551 -0.1091
17147W        W36001   4.413   2.612   3.741 -0.2032  0.0457 -0.0131
17148W        W36002  16.723  16.235   4.862 -0.0335 -0.2225  0.1117
17149W        W36003  15.898  16.774  15.712 -0.3367  0.0479  0.1030
17150W        W36004  16.456  17.045   0.084 -0.1798  0.1915  0.1542
17151W        W36005  14.958   2.971  15.254  0.0128  0.0134  0.2001
17152W        W36006   1.915   0.389  15.028  0.3581 -0.4015  0.2862
17153W        W36007   1.047  13.173  14.238  0.0991  0.0299  0.3429
17154W        W36008  12.630  15.556   2.360 -0.1292 -0.0287 -0.3462
17155W        W36009   4.420   3.459  14.477  0.0570 -0.1579  0.0319
17156W        W36010   9.577   2.233  13.576 -0.2119  0.1199  0.3350
17157W        W36011  12.428  17.168  15.770  0.1017  0.1378 -0.0104
17158W        W36012  14.988  16.249   3.457 -0.2309  0.0884 -0.0952
17159W        W36013   0.809  16.184   2.533  0.0334 -0.2144 -0.2497
17160W        W36014  15.025  17.123   0.957  0.1020  0.1848 -0.1129
17161W        W36015   7.956  17.957  12.131 -0.2724  0.1004  0.1159
17162W        W36016  15.075  14.606   4.580  0.0969 -0.1280 -0.2165
17163W        W36017   2.238   6.040  12.817 -0.3379  0.2991 -0.2009
17164W        W36018   4.096  16.672  15.588 -0.1497 -0.1131  0.0035
17165W        W36019  17.592   9.634   3.895 -0.0699  0.3947  0.1375
17166W        W36020   6.794  17.330   3.335  0.1047  0.2392 -0.0068
17167W        W36021   1.881   3.783  14.082  0.0698  0.1919 -0.0713
17168W        W36022   3.337   9.716   2.211 -0.2447  0.0937  0.1391
17169W        W36023  11.556  11.774  12.237  0.2970  0.3020  0.2507
17170W        W36024  10.610   5.287   1.614 -0.0616 -0.3473 -0.4169
17171W        W36025   0.147   6.307   1.464  0.0153  0.2282  0.2414
17172W        W36026   8.571   2.370   4.811 -0.3718  0.2372 -0.0254
17173W        W36027   0.574   5.932  12.554  0.1956 -0.0432  0.1649
17174W        W36028   2.685   5.639   4.223 -0.1434  0.0943  0.2556
17175W        W36029   7.820  13.386   4.358 -0.2352 -0.1397 -0.0585
17176W        W36030  10.015   7.275  14.931 -0.0651 -0.2471  0.0399
17177W        W36031  10.585  14.093   4.859 -0.0145 -0.2118  0.2155
17178W        W36032   7.477  14.410   4.465 -0.0048 -0.1613 -0.0177
17179W        W36033  17.827  15.817  15.829  0.0905 -0.0175  0.1674
17180W        W36034   0.376  12.747  10.498 -0.1344  0.2759  0.0558
17181W        W36035   7.637   2.900  12.003  0.0816  0.3894 -0.1199
17182W        W36036   9.435  16.290  12.942  0.2147 -0.0937 -0.0040
17183W        W36037   6.337  15.524   2.983 -0.0446 -0.2476  0.0628
17184W        W36038   3.358  15.233   0.539 -0.4217 -0.0559  0.1206
17185W        W36039  11.927  13.906   4.317  0.0093 -0.3217 -0.1252
17186W        W36040  15.695   9.467  15.510  0.2493 -0.0077 -0.0325
17187W        W36041   5.856  12.394  11.406 -0.2389 -0.0798 -0.0749
17188W        W36042  17.020   9.805  13.241 -0.0851  0.1310  0.0222
17189W        W36043  10.699   1.937  13.380 -0.1890  0.0673  0.1724
17190W        W36044   1.932  16.281  13.314 -0.0878  0.0925  0.0235
17191W        W36045   1.253  16.552   4.677 -0.1648 -0.0967 -0.1885
17192W        W36046   5.619  13.494  12.189 -0.1253  0.2877  0.1180
17193W        W36047  13.985  10.493  14.077  0.2117  0.1232 -0.2853
17194W        W36048   1.389   9.795  14.673  0.1935 -0.1706  0.2026
17195W        W36049  10.347   6.112   2.406 -0.1149  0.2511  0.1313
17196W        W36050   3.936  13.180   4.336 -0.0342  0.4467 -0.0425
17197W        W36051   0.942  12.930   2.382  0.2630 -0.0404  0.2396
17198W        W36052  12.534  12.036   5.251 -0.1697 -0.2612 -0.3569
17199W        W36053  10.762  13.096  12.760 -0.1019 -0.0196  0.0610
17200W        W36054   6.571   4.757  12.128  0.1208 -0.0451 -0.1059
17201W        W36055   2.685  12.004  11.862 -0.1418 -0.1415 -0.0950
17202W        W36056   2.332   6.138  14.090 -0.2219 -0.1347 -0.1798
17203W        W36057  10.219  10.725   2.476 -0.2165  0.0854  0.1299
17204W        W36058   1.316   4.476  12.283 -0.2071 -0.1763  0.0065
17205W        W36059  17.270   3.343   4.181 -0.0331  0.1911  0.4613
17206W        W36060   4.298   6.720  11.278  0.0482 -0.0249  0.2124
17207W        W36061  16.180   3.030  14.657 -0.0111  0.0022  0.0537
17208W        W36062  11.422  13.854   1.242 -0.1565  0.1593  0.0003
17209W        W36063   2.637   2.637  14.425  0.2621 -0.1828 -0.1664
17210W        W36064   5.172  14.888   0.225  0.1603 -0.1124 -0.2307
17211W        W36065   2.518   1.401   1.991  0.0084  0.0748  0.2071
17212W        W36066   6.084  10.871   2.437 -0.1294 -0.0650  0.2025
17213W        W36067  12.277   9.040  11.961 -0.0478  0.1509  0.0089
17214W        W36068   7.338  14.064  15.275 -0.0721 -0.3089 -0.2249
17215W        W36069   6.677   1.821  15.847  0.1422 -0.2131  0.1422
17216W        W36070  17.092   4.104  11.548  0.0287  0.2289  0.3393
17217W        W36071  13.412  11.904   1.952 -0.2355  0.0265 -0.2432
17218W        W36072   3.522   0.463   3.766 -0.0681 -0.2328 -0.0807
17219W        W36073  10.333  14.284   4.326  0.3345  0.2036 -0.0244
17220W        W36074   0.138   6.005  14.589  0.3668  0.0701 -0.1247
17221W        W36075  17.244   5.727  11.454  0.0790  0.1376  0.0145
17222W        W36076   1.758   3.739   0.082  0.0860 -0.1982  0.1996
17223W        W36077   9.252   2.669  16.086 -0.0883  0.0655 -0.1422
17224W        W36078   7.088   5.211   1.064 -0.1035  0.2080 -0.2148
17225W        W36079   6.628   6.415   5.698  0.0977  0.2020 -0.1676
17226W        W36080   8.173   2.959   1.646 -0.1112 -0.0543  0.0849
17227W        W36081  15.258   4.798   1.228  0.2704  0.1235  0.0051
17228W        W36082   9.945  12.276  15.651 -0.0585  0.0309 -0.1815
17229W        W36083   3.912   7.002  11.645  0.0155 -0.2212  0.0195
17230W        W36084   7.755   8.021  12.952 -0.1164 -0.0603  0.2739
17231W        W36085   0.292   9.194  11.036 -0.2497  0.1060 -0.0890
17232W        W36086   5.868   0.099   0.630 -0.0242  0.0389  0.2772
17233W        W36087  15.792   2.196  12.195  0.0294 -0.0335  0.0650
17234W        W36088  11.864   5.007  13.296  0.0995  0.0968  0.5834
17235W        W36089   7.957   2.582  13.846  0.0243  0.0895 -0.3023
17236W        W36090  14.983  11.320  15.918 -0.1731  0.0033 -0.1053
17237W        W36091   3.008   8.327  14.730 -0.0116 -0.0714  0.1447
17238W        W36092   7.590  17.349  13.528 -0.1663  0.0920 -0.0666
17239W        W36093   8.301   4.834   2.678 -0.1732  0.2959  0.0961
17240W        W36094   5.233  12.329  14.945  0.1017 -0.0844 -0.0342
17241W        W36095  17.526  14.610  12.535  0.0876 -0.3352  0.1538
17242W        W36096  13.369   5.544  11.445 -0.1060  0.0954 -0.1253
17243W        W36097   1.688  10.315  12.033 -0.1982  0.0296  0.1030
17244W        W36098   3.766   1.987   2.113 -0.2463  0.2005 -0.3121
17245W        W36099   0.318  13.303  15.615  0.0442 -0.0446 -0.0626
17246W        W36100  10.680   9.812  13.945 -0.2516  0.2023 -0.0990
17247W        W36101   2.325   8.719  12.722 -0.0216  0.0792  0.0427
17248W        W36102   0.230   9.746  12.823 -0.0217  0.4620  0.6254
17249W        W36103  16.467  15.622  12.557 -0.3414  0.0325  0.2478
17250W        W36104  17.465  11.091   3.868  0.0216  0.0801  0.0018
17251W        W36105   2.594   0.164  13.578  0.0327  0.0778  0.1084
17252W        W36106  14.725  17.934  11.600  0.0127  0.0582 -0.5053
17253W        W36107  15.703   8.120  10.608 -0.0421 -0.1934  0.1909
17254W        W36108  12.952  15.606  13.346 -0.0166 -0.0645  0.0632
17255W        W36109  17.490   5.573   3.930 -0.1414 -0.1760 -0.3093
17256W        W36110   4.017   4.363  15.288 -0.1590  0.1777 -0.0233
17257W        W36111  15.155   9.521  14.476 -0.0896  0.0178 -0.1720
17258W        W36112   7.594   2.257  14.473 -0.1402 -0.0998  0.0535
17259W        W36113  14.709   7.133  15.592 -0.0167  0.1128 -0.0318
17260W        W36114   1.198  14.206   3.339 -0.1102 -0.1830  0.1519
17261W        W36115   5.093   3.047  14.763  0.3945 -0.3261  0.0459
17262W        W36116   0.942  16.186   1.211  0.1373 -0.1383  0.3839
17263W        W36117  10.965  14.156   3.198  0.3985  0.5045  0.4177
17264W        W36118  17.610  16.391   2.782  0.0541 -0.1876  0.0672
17265W        W36119   6.975   6.489   1.902  0.1321 -0.3221 -0.0308
17266W        W36120   4.614   6.888  14.184  0.1642  0.0273 -0.0396
17267W        W36121  12.292  11.788   1.305  0.2375  0.0564  0.1395
17268W        W36122  15.134  16.618   2.921  0.0329 -0.0440  0.0070
17269W        W36123  13.025  17.455   0.365  0.0114  0.1116  0.1381
17270W        W36124   0.417   2.697   2.440  0.0346 -0.3740  0.1397
17271W        W36125  18.011   5.500  14.397  0.2853  0.3090 -0.2095
17272W        W36126   9.055  14.880   1.856 -0.0043 -0.0098  0.0926
17273W        W36127  16.272   7.164  14.986  0.0696 -0.1197  0.0371
17274W        W36128  15.724  17.813   3.408 -0.1174 -0.1247  0.3153
17275W        W36129   6.811  17.618   1.208 -0.3266  0.1554 -0.2041
17276W        W36130   6.459   4.026  10.853  0.3409  0.0647 -0.1784
17277W        W36131   5.519  12.001  12.086 -0.0369  0.0412 -0.1705
17278W        W36132  11.135  15.212   2.043  0.1485 -0.0884 -0.0329
17279W        W36133   6.817  12.312   1.536  0.0457 -0.0944 -0.1407
17280W        W36134   5.421   2.184  15.486  0.1136 -0.1464 -0.1572
17281W        W36135   8.418   9.777   4.344  0.0313  0.0507 -0.0207
17282W        W36136   5.669  12.385   0.019 -0.1208 -0.1291 -0.0598
17283W        W36137   1.130  11.855  10.869  0.5358  0.0377  0.1230
17284W        W36138  17.910   6.561  13.059  0.2459  0.1810 -0.2643
17285W        W36139  15.357   5.174   2.094 -0.5177  0.1754 -0.1417
17286W        W36140   5.886  17.737   4.897 -0.0097  0.2317 -0.0835
17287W        W36141  15.922   7.698   3.164 -0.0260 -0.1099 -0.2051
17288W        W36142   1.765   1.660   0.858  0.0430  0.0736 -0.2293
17289W        W36143  13.453   7.651   0.565  0.0736  0.0887 -0.3146
17290W        W36144  17.509   6.299   4.183 -0.3223 -0.1923 -0.0210
17291W        W36145  10.293   2.173   2.255  0.1002 -0.1360 -0.1139
17292W        W36146   5.486   2.088   0.023 -0.0542 -0.3734  0.3040
17293W        W36147   7.289  15.363  11.474  0.1597 -0.2669  0.0344
17294W        W36148   8.784   5.472   1.473  0.2998 -0.0249  0.0687
17295W        W36149   7.216  10.291  14.615  0.0865  0.1478  0.1186
17296W        W36150   1.645  14.694   0.742  0.1231 -0.1439 -0.2331
17297W        W36151   6.510  13.595   4.647 -0.3066 -0.0261  0.1067
17298W        W36152   8.213  13.464   2.740  0.0524 -0.0971  0.2613
17299W        W36153   8.567   7.435  11.931  0.0475  0.1183 -0.0251
17300W        W36154   3.875   9.846  11.428 -0.1496  0.1265  0.2952
17301W        W36155  14.200   7.230  13.324 -0.2370 -0.1532 -0.2244
17302W        W36156   0.384   5.381  12.366 -0.0216 -0.1179 -0.1424
17303W        W36157   5.230   6.233  12.156  0.1136 -0.1878 -0.3695
17304W        W36158  16.824  12.063   4.565 -0.0987  0.0614  0.1530
17305W        W36159  14.578   6.973   4.155 -0.0756 -0.1775  0.2331
17306W        W36160   3.042   2.568   2.374  0.1806 -0.3643  0.0520
17307W        W36161  13.466   2.679  16.005  0.0767 -0.2522 -0.0219
17308W        W36162   9.140   0.368  13.799 -0.2537 -0.1554  0.2191
17309W        W36163   7.693   3.910   1.620  0.0088 -0.0881  0.3636
17310W        W36164  11.235   6.932   2.946 -0.0728 -0.1558 -0.0291
17311W        W36165  11.954   7.224  13.482  0.0256  0.0774 -0.1668
17312W        W36166   7.911   6.040  15.447  0.0135  0.3260  0.0379
17313W        W36167   6.241  10.929  11.582  0.0465 -0.3271 -0.2182
17314W        W36168  13.766  13.208   0.445 -0.2426 -0.3608 -0.1552
17315W        W36169   8.569  17.229  12.645 -0.1841  0.0762 -0.0368
17316W        W36170  11.667  16.676   4.267  0.1329 -0.2946 -0.0269
17317W        W36171   7.794   4.762   2.821 -0.1459  0.1393  0.0505
17318W        W36172  17.948  12.885   3.410  0.1825 -0.1422 -0.0714
17319W        W36173  12.735   5.181  15.092 -0.3441 -0.0439  0.0443
17320W        W36174   1.301  10.004   0.209 -0.2064 -0.0194  0.0493
17321W        W36175  10.470  10.220   1.745  0.0063  0.1447  0.0756
17322W        W36176  11.588  10.774  16.100 -0.0207 -0.0572 -0.1776
17323W        W36177  15.636   8.541  13.439 -0.2569 -0.0401  0.1971
17324W        W36178   4.477   0.632  14.206 -0.1639 -0.3959 -0.1388
17325W        W36179  17.633   6.263  11.686 -0.0774 -0.0638  0.0790
17326W        W36180   9.530  11.371  12.248  0.1666  0.1965  0.0855
17327W        W36181  16.201   6.136   2.658 -0.0943  0.3525  0.0168
17328W        W36182   1.191   9.878  13.857 -0.1206  0.0351  0.1721
17329W        W36183  15.287   3.134  14.893  0.2825  0.4160  0.1163
17330W        W36184  15.752   3.223  12.610  0.2582 -0.1166 -0.0790
17331W        W36185   4.897  12.623  13.557 -0.3725 -0.2780  0.2161
17332W        W36186  14.078   5.125  11.755  0.1654  0.0358  0.0062
17333W        W36187   7.248   9.041   2.884 -0.1289  0.2774 -0.2196
17334W        W36188  16.378  11.486   0.066  0.3587 -0.0229  0.1223
17335W        W36189   9.038  14.531   5.968  0.1002  0.0661  0.1086
17336W        W36190   8.302   4.060   4.218 -0.1830  0.2269 -0.0843
17337W        W36191  10.107   9.312  13.356  0.0245  0.1563  0.0603
17338W        W36192  12.652   7.578   3.484 -0.0392 -0.0049  0.1083
17339W        W36193   6.990   2.736  14.942  0.1338 -0.0847  0.3887
17340W        W36194   6.793  17.735  14.869  0.0125  0.4615  0.1353
17341W        W36195  12.015  10.352   3.540  0.2885 -0.2136  0.2387
17342W        W36196  12.813   1.818   4.058  0.3342 -0.5208  0.2040
17343W        W36197  16.387  12.202  14.277  0.0466  0.1915  0.1932
17344W        W36198   5.227  11.066   4.078 -0.2515  0.0956  0.1998
17345W        W36199   5.033   6.126  14.240  0.0843  0.4411  0.2850
17346W        W36200  14.452  16.895  11.872 -0.0163  0.2201  0.1098
17347W        W36201   7.860   5.119   4.162 -0.0640 -0.0616 -0.1955
17348W        W36202   2.879  10.971  12.108  0.3821 -0.0454 -0.0679
17349W        W36203   1.473  15.361  14.221  0.0319 -0.1207 -0.0512
17350W        W36204   3.299  14.766  14.321  0.1542 -0.3046 -0.0370
17351W        W36205   7.438   2.673   3.558  0.2435 -0.4692 -0.0055
17352W        W36206   2.536   8.728   4.303  0.0286  0.0205  0.3424
17353W        W36207  10.115  14.165   2.028  0.1676  0.0567 -0.1807
17354W        W36208  13.460  11.341   1.866  0.1897  0.0020  0.1417
17355W        W36209  16.994   9.256  16.198 -0.1251  0.1528  0.2962
17356W        W36210  12.533   5.836  13.068  0.3061  0.0722 -0.3967
17357W        W36211   1.455   5.230  11.168  0.0697  0.2347  0.0943
17358W        W36212   6.754  16.868   0.158  0.0247 -0.2496 -0.3620
17359W        W36213   3.668  17.227   2.575  0.0491  0.1213 -0.0371
17360W        W36214   2.787  11.837   0.898  0.0223 -0.0682  0.2255
17361W        W36215   7.965   6.976   0.932  0.0736  0.2116 -0.1237
17362W        W36216   5.383   5.849  15.846  0.5798  0.2619  0.2124
17363W        W36217   8.579  15.311  12.250  0.0873  0.0375 -0.1774
17364W        W36218   3.709   7.305  13.699 -0.1013 -0.1152  0.2012
17365W        W36219  10.770  10.890  13.470  0.0327 -0.1319 -0.0125
17366W        W36220   7.775  15.398  13.752  0.1510 -0.0558 -0.2304
17367W        W36221   0.809   6.045   3.647  0.0071  0.1111  0.2357
17368W        W36222   3.240   1.234   3.113  0.1071  0.2629  0.1642
17369W        W36223   1.958   5.928   1.524  0.0657 -0.1505 -0.1677
17370W        W36224   7.671   1.036  12.771 -0.0238  0.2016 -0.2335
17371W        W36225  12.393   8.617  14.193 -0.1885  0.2532  0.1868
17372W        W36226   9.260   7.447   3.680  0.1125 -0.0506 -0.2482
17373W        W36227   2.219   9.396  13.454 -0.2161  0.1322 -0.0378
17374W        W36228  10.019   6.774  10.357 -0.1230  0.2280 -0.0559
17375W        W36229   4.862   2.442  13.502 -0.0804  0.2036 -0.3452
17376W        W36230   7.989   1.491  11.445 -0.1134  0.1711 -0.2810
17377W        W36231   1.009   0.796   2.414 -0.1077  0.1134 -0.4557
17378W        W36232  15.790  15.803  15.269  0.0609 -0.0536  0.4222
17379W        W36233   2.291  16.943  13.778 -0.1772 -0.0570 -0.0717
17380W        W36234  17.654   7.504  15.040 -0.2372 -0.2696  0.2724
17381W        W36235   7.248   2.633   4.233 -0.1186  0.1409 -0.4055
17382W        W36236   3.194  15.345   2.569 -0.0885  0.0511  0.0907
17383W        W36237   2.527   9.087   4.717 -0.3110 -0.0002  0.3124
17384W        W36238   0.507  17.663  15.663  0.1754  0.0234 -0.0415
17385W        W36239   8.882  12.626  13.044 -0.1194  0.0607 -0.0889
17386W        W36240  12.151  10.158  13.044 -0.0021 -0.1055  0.2533
17387W        W36241  12.765  13.167  11.342  0.0488 -0.0050 -0.1250
17388W        W36242   7.462   5.139  15.496  0.1335 -0.0850  0.3873
17389W        W36243  13.377  16.858   0.913 -0.1936  0.0058 -0.0625
17390W        W36244   8.545   7.888  13.762 -0.2020  0.1745  0.0507
17391W        W36245   6.160   8.810  14.702 -0.0325 -0.1544  0.2822
17392W        W36246   4.293   9.719   0.696  0.1579 -0.1261 -0.0836
17393W        W36247   5.199  14.126   4.603  0.0137 -0.0833  0.3218
17394W        W36248  12.346  15.509   0.047  0.3152  0.0330 -0.3601
17395W        W36249  10.178   1.374   1.340 -0.0923 -0.2197  0.1269
17396W        W36250  14.301  17.186  15.536  0.1248 -0.2233  0.1649
17397W        W36251   8.918   2.672  13.277 -0.0662 -0.0351  0.2514
17398W        W36252  15.461   7.704  15.122 -0.1491  0.1352 -0.0252
17399W        W36253   2.670   7.023  13.102  0.0795 -0.1439 -0.0533
17400W        W36254   1.266  16.544   3.558  0.3152  0.1670  0.0755
17401W        W36255   2.253  16.880   4.458  0.0706  0.0415 -0.2452
17402W        W36256  11.762  11.708   4.728 -0.1071  0.0633  0.0904
17403W        W36257  15.353   5.362   4.399 -0.0702  0.1720  0.0109
17404W        W36258  12.438  10.963  12.705  0.0132 -0.1529 -0.0131
17405W        W36259   2.311   9.591   3.726 -0.1992  0.2704  0.0660
17406W        W36260  15.647   7.294  16.182 -0.0141 -0.3514 -0.1654
17407W        W36261   0.067   4.763   3.700 -0.0398  0.0531  0.0544
17408W        W36262   2.415   7.768   3.433  0.2932  0.0447  0.1411
17409W        W36263  12.943  14.647  15.464  0.0236 -0.3363 -0.1581
17410W        W36264   7.754   1.388   4.968 -0.2700 -0.2066  0.0518
17411W        W36265  11.635  13.396   1.511  0.1372 -0.0915  0.1417
17412W        W36266  17.552   1.819   1.864  0.1320 -0.0737  0.0644
17413W        W36267   4.987   3.571  12.162  0.1141  0.2050 -0.0094
17414W        W36268   9.920  17.110   0.304  0.0871 -0.0675 -0.0573
17415W        W36269  11.176  14.849  14.130 -0.0078 -0.0981 -0.2592
17416W        W36270   4.377   2.726   1.760 -0.0997  0.0391 -0.0768
17417W        W36271   5.971   1.400  10.844  0.0687  0.1075 -0.0581
17418W        W36272  13.643   4.754  13.522  0.1230  0.2623 -0.0832
17419W        W36273  10.591   6.895   3.707  0.0695 -0.1750 -0.2681
17420W        W36274   7.347  12.589   4.826  0.0017 -0.1261  0.0180
17421W        W36275   4.490  13.952  15.729  0.1371 -0.2792 -0.0118
17422W        W36276   9.142  12.778   5.225  0.0402  0.0769  0.2755
17423W        W36277   4.219  15.631  13.572 -0.1122  0.3919 -0.1243
17424W        W36278  14.654  15.074   0.389 -0.0860  0.2537  0.0564
17425W        W36279   5.508  15.050  14.765 -0.0227 -0.1987 -0.0124
17426W        W36280  14.714  16.989  15.810  0.0398  0.1333  0.2615
17427W        W36281  13.481   5.093   4.241 -0.4881  0.2841  0.0333
17428W        W36282   0.722   0.378   1.720 -0.1342  0.1271  0.3572
17429W        W36283  13.154  17.299  16.065 -0.1708 -0.2416  0.1631
17430W        W36284   9.221  12.719   2.522 -0.2686 -0.0000 -0.0621
17431W        W36285  16.243   7.904   3.522 -0.2686  0.1815  0.2321
17432W        W36286   5.439  16.230   3.317 -0.1815 -0.2359  0.2437
17433W        W36287  12.444  17.441  12.014  0.0884  0.2104  0.2031
17434W        W36288  17.486  17.992  14.655  0.1921  0.0948 -0.1154
17435W        W36289   1.572   2.785   0.294  0.1064  0.1135 -0.0810
17436W        W36290   5.684  13.508   0.031  0.4139 -0.2644  0.1114
17437W        W36291   1.045  17.054   1.575 -0.0823  0.0325  0.1650
17438W        W36292  15.287   6.928  16.174  0.0625  0.2706 -0.4831
17439W        W36293   9.059  15.239  10.726 -0.3505  0.0171  0.0769
17440W        W36294   7.962  13.100   2.491 -0.0823  0.2548 -0.2304
17441W        W36295   2.921  16.692  13.071  0.1793 -0.0774  0.0675
17442W        W36296   6.423   8.694   3.874  0.3258 -0.0284 -0.3212
17443W        W36297   4.118   5.509   1.572  0.1917  0.3265 -0.1248
17444W        W36298   2.738  15.413   2.862 -0.2016 -0.0374  0.0639
17445W        W36299   1.586   9.704  11.963 -0.1520  0.0276  0.1302
17446W        W36300  13.439   2.092  13.300 -0.1618  0.2462  0.0688
17447W        W36301  15.365  10.252   1.503  0.0467 -0.2587  0.1138
17448W        W36302   2.006  12.709   1.571 -0.1398 -0.1830  0.0381
17449W        W36303  14.635   2.871   1.969  0.0260 -0.0773 -0.0467
17450W        W36304   0.469  13.493  13.140 -0.2214 -0.1375  0.0729
17451W        W36305  14.439   1.075  14.905 -0.1483 -0.0297 -0.0951
17452W        W36306  12.289  12.998  12.562 -0.0069  0.1675  0.0944
17453W        W36307  13.404   6.003   3.799  0.2069  0.2794 -0.2928
17454W        W36308  11.690  15.300   4.156 -0.1157 -0.0354 -0.2277
17455W        W36309  17.476  13.148  13.015 -0.0530  0.1103  0.0183
17456W        W36310   9.808   1.675  13.299 -0.2794 -0.0130 -0.1732
17457W        W36311   1.988   4.652  15.505  0.0832 -0.1016 -0.1959
17458W        W36312   7.231   5.626  13.871  0.1618  0.2187 -0.0158
17459W        W36313   0.616   8.418  15.091 -0.0070 -0.1776  0.2033
17460W        W36314   5.318  16.063  12.845  0.2373  0.0679 -0.1406
17461W        W36315  10.128   2.545  14.642 -0.0677  0.2775  0.1749
17462W        W36316  11.821   6.231   1.444  0.2475  0.1642  0.0930
17463W        W36317   6.574  10.356  12.787 -0.0100 -0.0022 -0.2962
17464W        W36318   1.056   7.075   0.956  0.4349 -0.5081  0.1055
17465W        W36319   2.843   4.421   0.459  0.1399 -0.0573 -0.2285
17466W        W36320  14.500   4.764   4.227 -0.0264 -0.6895 -0.2515
17467W        W36321   9.252   4.574  12.683  0.2549 -0.0878  0.1225
17468W        W36322  14.583  11.246  15.357 -0.2192 -0.0838 -0.2371
17469W        W36323   6.433   8.244  15.585  0.1306  0.1669  0.1047
17470W        W36324   1.988   7.202  16.133  0.1092 -0.0539  0.2156
17471W        W36325  15.056   1.783   0.700  0.0859 -0.0961  0.0099
17472W        W36326   5.818   0.086  13.812  0.0685  0.0543 -0.1898
17473W        W36327   6.299  17.699   1.290  0.0855  0.1783 -0.0805
17474W        W36328  11.356   3.436   2.161 -0.4077 -0.2200 -0.1061
17475W        W36329  14.944  15.070   1.276  0.1682 -0.0963 -0.1347
17476W        W36330  11.876   0.171   0.807  0.1709 -0.0605 -0.2257
17477W        W36331   0.102  17.904   2.246  0.1174 -0.3207 -0.1212
17478W        W36332   5.928  11.045   5.962 -0.2513  0.1291 -0.0980
17479W        W36333   9.977   6.045  12.588  0.1768 -0.2575  0.2275
17480W        W36334  15.026   7.548   0.821 -0.0778 -0.1910  0.0950
17481W        W36335  11.620   6.656   0.027 -0.1987 -0.1065  0.2545
17482W        W36336   2.911   3.002  15.563  0.0506  0.3746 -0.3288
17483W        W36337  14.977  17.121   0.118 -0.3289  0.2123  0.0742
17484W        W36338   4.802  11.677   4.272  0.2043 -0.0793  0.1117
17485W        W36339  17.961  14.857  14.194 -0.3165 -0.0715  0.0305
17486W        W36340  12.411   7.394   0.829  0.3686 -0.0198  0.2147
17487W        W36341  12.676   0.738   2.408  0.5195  0.2471  0.2064
17488W        W36342   1.954   7.408   2.096  0.0303 -0.0113  0.0087
17489W        W36343   9.880   2.487   2.093 -0.4245  0.2089 -0.2072
17490W        W36344  11.910   8.650  11.859  0.1390  0.0095  0.3072
17491W        W36345  16.427   2.336  15.095  0.0326  0.0662 -0.0848
17492W        W36346   7.410   1.130   1.616  0.1097  0.1051 -0.0637
17493W        W36347  11.523  11.088   4.807  0.1581 -0.1117  0.0895
17494W        W36348   1.959  13.034   4.693  0.3115  0.1822 -0.1238
17495W        W36349   1.238   2.406  12.082  0.0283 -0.0372 -0.0653
17496W        W36350  11.522   8.204  15.875 -0.0491 -0.0462 -0.0214
17497W        W36351   0.745   8.573  13.864  0.5487  0.0575 -0.1599
17498W        W36352   9.071   3.327   3.628 -0.3353  0.1071  0.3083
17499W        W36353   6.590   9.975  14.157 -0.0928 -0.0596 -0.0301
17500W        W36354  15.113  15.093  15.295  0.0602 -0.0695  0.0734
17501W        W36355  17.536   9.718   1.280  0.4513 -0.1688  0.0554
17502W        W36356  10.966   8.491   2.987  0.2273  0.2363  0.0168
17503W        W36357   8.167  15.810  14.911  0.0957 -0.1978  0.2211
17504W        W36358   1.682  14.241  14.759 -0.1271  0.0198  0.3207
17505W        W36359   0.061  10.897  12.944 -0.1638  0.0313  0.1738
17506W        W36360   1.251  15.007   0.679 -0.1189  0.1708  0.2933
17507W        W36361  14.586   7.721  14.052  0.0005  0.2601 -0.1144
17508W        W36362   6.987  16.744  15.907 -0.1064  0.1095 -0.2701
17509W        W36363  16.274  11.906  15.988  0.0299 -0.1348  0.0652
17510W        W36364   9.505   8.798   2.392 -0.0263 -0.0825  0.2787
17511W        W36365   4.750   0.269  11.853  0.1780 -0.1040 -0.0798
17512W        W36366   1.575  17.277  13.599  0.0064 -0.0448  0.1338
17513W        W36367  10.320  10.659   1.402 -0.3262  0.2865 -0.1714
17514W        W36368  13.407   0.919   3.052 -0.1120  0.1980  0.1736
17515W        W36369   2.512   7.816  11.568  0.2062  0.1342  0.2226
17516W        W36370  12.917   0.581  12.683 -0.0301  0.1983  0.0872
17517W        W36371  14.360  18.020  16.028  0.0907 -0.1323 -0.0015
17518W        W36372  15.625  12.560   2.083  0.1046 -0.1799  0.2277
17519W        W36373   1.044  14.282  13.137  0.1556 -0.1341  0.1430
17520W        W36374   0.096   7.247  14.841 -0.1983 -0.0888  0.1411
17521W        W36375   2.083   2.396  14.794 -0.2789  0.0940 -0.0363
17522W        W36376   3.115  17.743   0.416 -0.0647  0.1241 -0.2658
17523W        W36377  10.354   0.185   4.288  0.1643 -0.1194  0.1556
17524W        W36378   7.799  13.738   1.670  0.0895  0.2522 -0.3843
17525W        W36379  15.533  12.595   0.191  0.2149  0.2168  0.2810
17526W        W36380  15.742   3.206   3.661 -0.1725 -0.1448 -0.1569
17527W        W36381   6.452   0.179   1.442  0.2904  0.1645  0.2283
17528W        W36382   1.451   4.131  12.660  0.0613  0.0259  0.3768
17529W        W36383  10.927   4.601  10.792  0.1295 -0.0125 -0.2005
17530W        W36384   6.298  14.832  15.426  0.0022  0.1492  0.2965
17531W        W36385   6.962  15.651  13.030 -0.0858  0.0920 -0.0558
17532W        W36386  16.138   9.709   2.522 -0.1818  0.0620 -0.0811
17533W        W36387  13.462   2.068   3.554 -0.0631  0.2300  0.1240
17534W        W36388  14.873   6.618   0.221  0.0762 -0.0716 -0.3943
17535W        W36389  16.499  16.091  11.584  0.1058  0.0891 -0.3489
17536W        W36390   6.413   2.983  12.542  0.0739 -0.0736 -0.0173
17537W        W36391   7.838  14.183  13.470  0.1455 -0.2483 -0.1619
17538W        W36392   7.064  12.625  15.378  0.0341 -0.0180 -0.3454
17539W        W36393  12.752  16.499   0.662 -0.1888  0.0467 -0.2119
17540W        W36394   8.833   3.726   3.826  0.0771 -0.0774  0.1412
17541W        W36395   8.530  16.699   3.679  0.1492  0.0693 -0.0713
17542W        W36396  11.822  10.708  11.803 -0.2559  0.1404 -0.0631
17543W        W36397   8.677  11.820   4.674  0.0041 -0.2167  0.3923
17544W        W36398  16.537  12.278   3.626  0.0043  0.0796 -0.1476
17545W        W36399  15.432  15.769   2.692 -0.1561 -0.0918 -0.4036
17546W        W36400  17.696   2.342   2.138 -0.0370 -0.1029 -0.1000
17547W        W36401  11.006  12.407  15.009 -0.6617 -0.1050  0.0837
17548W        W36402  10.875  16.831   2.093 -0.1691  0.2601 -0.1021
17549W        W36403  11.383   2.833  11.196  0.0806 -0.2220  0.0614
17550W        W36404  13.810   7.279   4.385  0.0822 -0.2096 -0.1062
17551W        W36405  10.191   5.572  11.664  0.1898  0.1944  0.3168
17552W        W36406   1.478   1.908   0.512 -0.0153 -0.0212 -0.0727
17553W        W36407  15.755   5.639  15.478 -0.3379 -0.0527 -0.0615
17554W        W36408   8.863   3.177   0.483 -0.0375 -0.3734  0.1950
17555W        W36409  16.921  13.971   4.216  0.0775 -0.2168 -0.1268
17556W        W36410   0.600   6.537  15.013  0.2591 -0.1993 -0.2647
17557W        W36411  11.113   7.280  13.164 -0.0877 -0.1460 -0.1060
17558W        W36412  16.023   6.528  12.819  0.1203  0.1323 -0.3014
17559W        W36413   9.653   3.394   3.575 -0.2558 -0.2240  0.2552
17560W        W36414  14.790  12.761   4.132  0.0493 -0.0568  0.0892
17561W        W36415   5.694  15.102   2.147 -0.2608 -0.2848  0.3037
17562W        W36416  14.543  12.883  14.353 -0.2168 -0.0200  0.0990
17563W        W36417  17.509  11.645  12.567  0.3082 -0.1516  0.0963
17564W        W36418   4.847   5.765   1.560 -0.0135 -0.0231  0.0535
17565W        W36419   5.235  12.902   1.083 -0.0863  0.2491  0.1463
17566W        W36420  16.281  13.130   0.331  0.2195  0.0696  0.0920
17567W        W36421  14.067  15.512   5.111 -0.0293  0.0407  0.1880
17568W        W36422   6.265  16.736   3.814  0.0348  0.0697  0.2305
17569W        W36423  11.941   0.050  13.867  0.0202  0.0001 -0.1789
17570W        W36424   5.466   8.472  12.936  0.3736 -0.0474 -0.2402
17571W        W36425   2.472   4.641   1.063 -0.3110  0.2065 -0.0815
17572W        W36426  16.599   5.318   0.097  0.1099  0.0820 -0.2912
17573W        W36427   1.271  11.171   4.006 -0.1177  0.3865 -0.3240
17574W        W36428   6.581  13.438   2.277  0.0927 -0.1028 -0.1192
17575W        W36429   9.543   5.874   1.113 -0.0925 -0.0953 -0.2154
17576W        W36430  12.240  16.425   0.639  0.0608  0.0530  0.2187
17577W        W36431   2.778  13.611  11.476 -0.4082  0.0484  0.2367
17578W        W36432  17.395   2.582  12.270  0.0279  0.0791 -0.0723
17579W        W36433   7.557  12.098   3.272  0.1347 -0.1438  0.0078
17580W        W36434  13.069   8.376  14.918 -0.0872  0.1757  0.1751
17581W        W36435   2.288  11.895   0.667  0.3884  0.1031  0.0872
17582W        W36436   3.799  11.894   2.982 -0.0040 -0.0909 -0.1351
17583W        W36437   8.962   7.500   4.158  0.2780  0.0046 -0.3818
17584W        W36438   9.469   5.210  15.761  0.0430  0.3200  0.2617
17585W        W36439  11.666   6.175  13.803  0.0389  0.1288 -0.1350
17586W        W36440   6.679   4.163  12.959  0.0105  0.0375 -0.2717
17587W        W36441  10.703   6.105  14.133  0.0591 -0.1716  0.2530
17588W        W36442   8.082   3.272   3.603  0.0997  0.0998 -0.0383
17589W        W36443   6.723   4.396   5.787 -0.1091  0.0590  0.2429
17590W        W36444   1.360   6.395  15.713 -0.2144  0.0248 -0.1390
17591W        W36445   1.524   4.319   3.358 -0.0937 -0.0731 -0.0726
17592W        W36446  10.101   8.338  15.981  0.0763 -0.2376  0.0110
17593W        W36447   4.215   0.693  14.690  0.1557 -0.0003 -0.1256
17594W        W36448  11.341  15.768  15.915  0.0491 -0.2198 -0.0485
17595W        W36449   0.398  12.317   1.686  0.1598 -0.1191  0.0444
17596W        W36450  12.676   1.921  13.066 -0.1247  0.1070 -0.0274
17597W        W36451   5.091  13.880  12.547 -0.0715 -0.3903  0.0130
17598W        W36452   9.985   1.503   0.837  0.1718  0.2418 -0.0699
17599W        W36453  10.172  13.125   2.797 -0.0863 -0.0087 -0.1257
17600W        W36454   4.862   2.771  11.547 -0.2730  0.1853 -0.4107
17601W        W36455  12.919   8.378   3.036  0.1877 -0.1546  0.2884
17602W        W36456   5.458  10.453   1.940 -0.3179 -0.1061  0.0873
17603W        W36457  15.570   9.880  15.206 -0.0119  0.0646 -0.3077
17604W        W36458   6.911   7.257   2.034 -0.0014  0.2752  0.0932
17605W        W36459   2.177   2.436   1.259 -0.0079 -0.1747 -0.0231
17606W        W36460   7.836   8.565  15.476  0.0055 -0.0921  0.2691
17607W        W36461  14.965   5.802   2.899 -0.0802  0.3976 -0.0719
17608W        W36462   0.372  10.649   2.788 -0.1462  0.0054 -0.0214
17609W        W36463   7.287  17.397   1.236  0.0367  0.2542 -0.0583
17610W        W36464  15.997   6.979  14.612  0.1683 -0.1008 -0.0066
17611W        W36465   2.862   0.228  11.865 -0.2978 -0.0411 -0.0465
17612W        W36466  12.868  17.907  15.326  0.0023  0.1201 -0.3472
17613W        W36467  11.886  15.700   4.976 -0.2284  0.2900 -0.0687
17614W        W36468   7.387  11.577   4.515 -0.1905 -0.3363  0.1202
17615W        W36469   6.237   0.069   5.520  0.1136  0.1043 -0.0878
17616W        W36470  15.111  16.684   2.402  0.0168  0.1275  0.2301
17617W        W36471   0.198  17.893  12.900 -0.0654  0.1502 -0.2073
17618W        W36472  12.405   3.869  12.948 -0.1933  0.1759 -0.1153
17619W        W36473   4.126   2.843  13.157  0.0519 -0.0461 -0.0733
17620W        W36474   9.910  10.740   4.046  0.0236 -0.0711 -0.1090
17621W        W36475   7.928   1.987  13.187  0.3529  0.0374  0.1362
17622W        W36476   8.526  16.440  14.049 -0.0628  0.0688  0.2555
17623W        W36477   6.467   7.267  13.137 -0.0662 -0.1964 -0.2162
17624W        W36478   7.788  10.119  15.855 -0.0691  0.0602 -0.0032
17625W        W36479  13.574  17.541   3.943 -0.1078 -0.2564  0.1081
17626W        W36480   8.161  14.846   3.413 -0.0602  0.1302  0.1899
17627W        W36481   1.928  17.018   3.100 -0.0903  0.0561  0.1395
17628W        W36482   0.489  16.842   0.812  0.2045  0.1214  0.0873
17629W        W36483  17.058  12.459   1.990 -0.0840  0.1445  0.0389
17630W        W36484   5.957  17.027   3.466  0.2557  0.0286 -0.1249
17631W        W36485   4.860   4.725  13.467 -0.1423  0.0504 -0.3565
17632W        W36486  11.914  17.225  11.633  0.2247  0.0626 -0.1752
17633W        W36487   2.551   6.569  14.901 -0.1545  0.0959 -0.2280
17634W        W36488   5.845   6.548  15.393  0.5232  0.0182  0.1926
17635W        W36489   0.065   3.363  15.111  0.2744 -0.0837  0.1686
17636W        W36490  17.451   3.374  14.595 -0.2579  0.0450  0.0661
17637W        W36491  16.883   6.429   3.422 -0.1303 -0.0038 -0.0309
17638W        W36492   9.888  17.766   3.566 -0.2400 -0.0011  0.0608
17639W        W36493   6.265  15.056   4.239  0.1642  0.1014  0.1712
17640W        W36494   6.666   8.908  11.976 -0.1741  0.0236 -0.1045
17641W        W36495  11.539  16.126   1.630  0.0082 -0.1398  0.0251
17642W        W36496  15.118   4.900  12.590 -0.3656  0.0590 -0.1020
17643W        W36497  14.819  17.381   1.724 -0.1799 -0.0847  0.1259
17644W        W36498   2.333  12.582   4.418 -0.1570 -0.1233  0.0488
17645W        W36499   1.814   0.304   3.918  0.0258  0.3259  0.1391
17646W        W36500  12.633  11.500  13.842 -0.0606  0.2298 -0.1171
17647W        W36501   1.856  15.429  12.722 -0.2201  0.0846 -0.1365
17648W        W36502  11.290   7.718   0.615  0.1628  0.2206 -0.0506
17649W        W36503   8.894  13.016  15.628  0.0974 -0.0796 -0.1703
17650W        W36504  17.387  10.985   1.452 -0.1662 -0.2801  0.1244
17651W        W36505   6.516  12.692   1.749 -0.3411 -0.2292  0.1113
17652W        W36506  14.241   1.025  11.844 -0.1199  0.0532  0.1345
17653W        W36507   5.670   5.093  11.749 -0.1220  0.0659 -0.1444
17654W        W36508   8.626   0.271   3.903  0.0585 -0.2161  0.0878
17655W        W36509  17.647   4.823   3.561 -0.0586  0.1210  0.0099
17656W        W36510  17.820  11.207   1.173  0.1317 -0.1506  0.3472
17657W        W36511   4.455  13.086  12.790 -0.0366  0.0782 -0.1273
17658W        W36512   1.003   0.187   4.813  0.1965  0.2323  0.0400
17659W        W36513  10.160   1.263  15.497 -0.0407  0.0573  0.1718
17660W        W36514   8.385   5.209   1.214 -0.3317  0.1306 -0.0834
17661W        W36515   6.465   6.533   3.785 -0.0328 -0.0897 -0.0225
17662W        W36516   4.754  15.936  12.932 -0.1965 -0.4619 -0.1035
17663W        W36517  14.239   1.511   4.393 -0.1291  0.0979 -0.2059
17664W        W36518   0.121  16.599   2.887 -0.0325  0.0170  0.0076
17665W        W36519   2.619  12.456   5.828 -0.0331  0.1065 -0.0472
17666W        W36520  17.154  14.882   0.802  0.1332  0.1015  0.1653
17667W        W36521  15.210   3.966  13.391  0.2373  0.0505  0.3607
17668W        W36522   8.202   7.842  12.886  0.1702  0.2165 -0.3154
17669W        W36523  16.766  13.438  14.417  0.1062  0.0355 -0.1895
17670W        W36524  11.521  15.034  12.394  0.0342 -0.1853 -0.2147
17671W        W36525   6.918   6.757  11.868 -0.2269  0.1697 -0.1405
17672W        W36526  16.557  12.802   3.476 -0.1145 -0.4626  0.1250
17673W        W36527  12.457   9.583  13.872 -0.0371 -0.2051 -0.1274
17674W        W36528  13.499   0.700  13.325 -0.3355  0.2602  0.2760
17675W        W36529  11.731   3.599  13.454 -0.0740 -0.0192 -0.2394
17676W        W36530  13.324  13.904   4.369  0.2645 -0.1322  0.0284
17677W        W36531   6.467   0.794  13.512  0.0927  0.0365 -0.1141
17678W        W36532   5.206  17.499  12.485 -0.4700 -0.1462 -0.2427
17679W        W36533   3.684  12.335  15.001  0.0695 -0.0300  0.0572
17680W        W36534  12.630   6.240  14.954 -0.0941  0.3504 -0.0033
17681W        W36535  10.526   4.077   0.384 -0.0163 -0.2767 -0.0577
17682W        W36536  10.465   6.388  14.550  0.0833  0.3819  0.2941
17683W        W36537  14.031  15.080  13.362 -0.0865 -0.1269 -0.2785
17684W        W36538   2.017   9.583   0.292  0.0281 -0.0902 -0.3004
17685W        W36539   2.846  15.870   3.071 -0.1990 -0.0861  0.1173
17686W        W36540  15.613  13.653   0.159  0.2095  0.3120 -0.2608
17687W        W36541   1.720   6.798   1.006 -0.2023 -0.0490  0.1675
17688W        W36542   2.872   0.479   1.019 -0.2490  0.1725  0.0539
17689W        W36543   0.269   7.171  12.778 -0.1901  0.0635 -0.0780
17690W        W36544   9.984   0.410  13.120 -0.0004 -0.2713 -0.1222
17691W        W36545  14.030  10.954  15.903  0.3306 -0.0845  0.3548
17692W        W36546  12.421  12.660  14.304  0.3490 -0.2217 -0.0404
17693W        W36547   0.078   4.172   1.979 -0.2120  0.1857  0.1742
17694W        W36548   0.414  16.556   4.512 -0.0612 -0.1389  0.0074
17695W        W36549  10.083   8.350   2.432 -0.3820  0.1697  0.0680
17696W        W36550   9.595  14.451  10.428 -0.1058  0.1301 -0.2421
17697W        W36551   6.630   5.698   0.624 -0.0936  0.0491 -0.0324
17698W        W36552  11.985  14.244  12.457 -0.0249  0.0640 -0.2148
17699W        W36553   2.815   4.237  14.462 -0.0233  0.0039  0.2689
17700W        W36554  12.291  14.554   0.713  0.1089 -0.0448  0.1965
17701W        W36555   8.241   5.154  12.684 -0.0609 -0.1471  0.3604
17702W        W36556  17.973  12.097  12.060  0.2539 -0.1213 -0.1038
17703W        W36557  14.130   2.372   0.214  0.0044  0.0203  0.1147
17704W        W36558   8.081   5.532   1.468  0.0916  0.3970 -0.2087
17705W        W36559   2.442  17.073   1.705  0.1585  0.1245 -0.0286
17706W        W36560   9.294   9.696   0.275  0.3317 -0.2471  0.4119
17707W        W36561  17.849  17.557   1.375  0.1892  0.0300 -0.1568
17708W        W36562  16.811  15.723   2.326  0.1806  0.1707 -0.0213
17709W        W36563  12.795   7.300   1.155 -0.0658  0.0886  0.1949
17710W        W36564   2.488   5.621  15.430  0.1513 -0.0465  0.2456
17711W        W36565   0.028   2.258  14.939 -0.0004  0.0735 -0.2026
17712W        W36566   8.609  16.658  13.042  0.3505  0.2537  0.0337
17713W        W36567  16.288   3.918  14.946 -0.2820 -0.0104 -0.0687
17714W        W36568   0.175  10.473   1.401  0.0071  0.2284  0.0263
17715W        W36569  15.108   0.200   2.217 -0.1113  0.2735 -0.2756
17716W        W36570  17.332  16.017  12.723 -0.2222  0.1453 -0.0693
17717W        W36571   4.202   8.053  12.678  0.0357  0.0327 -0.2511
17718W        W36572  11.589   5.186   1.190  0.4081  0.1086 -0.1091
17719W        W36573  14.691   1.954   4.200  0.1755 -0.2547  0.2771
17720W        W36574  10.125  10.354   4.294 -0.0882 -0.1185 -0.0271
17721W        W36575   0.034   3.739  15.906 -0.1007  0.0456 -0.1017
17722W        W36576  16.047   6.532   0.446  0.3072  0.3180  0.2176
17723W        W36577  11.734   7.611  13.852 -0.1712  0.1675  0.1121
17724W        W36578   1.318   4.527  15.895  0.0204 -0.1854  0.2414
17725W        W36579  17.962   5.954  11.372 -0.0897 -0.2456  0.1984
17726W        W36580  10.278   3.920   3.883  0.2717  0.4152  0.2077
17727W        W36581  16.969  12.291   2.483 -0.1315  0.0285 -0.3324
17728W        W36582   0.451   3.454  12.367 -0.1722 -0.1079 -0.3125
17729W        W36583   4.041  10.994  14.986  0.0430  0.1444 -0.0093
17730W        W36584  10.413   7.985  12.892 -0.1008 -0.1300  0.1486
17731W        W36585   2.819  17.672  13.544  0.0625  0.1174 -0.1860
17732W        W36586   3.870  15.551   5.309  0.0031 -0.1031 -0.3394
17733W        W36587  14.294   9.389   1.821 -0.1245 -0.1615 -0.0674
17734W        W36588  17.764  17.790  12.881  0.2816  0.1891 -0.6026
17735W        W36589   3.646   3.092  13.092 -0.0464  0.0774 -0.1166
17736W        W36590  13.277  13.497  11.952 -0.0918  0.0874 -0.1296
17737W        W36591  14.391   2.437  13.512 -0.2169  0.0595 -0.0373
17738W        W36592  16.836  11.221   0.586  0.0790  0.2244 -0.0809
17739W        W36593  15.960   4.796  16.200  0.0440 -0.3601  0.2566
17740W        W36594   2.128  10.481  12.683  0.1078 -0.3568  0.1328
17741W        W36595   1.658  14.365   1.640  0.2787 -0.2658  0.2930
17742W        W36596   5.890   9.607   3.373  0.1563  0.2042  0.2219
17743W        W36597   9.094   4.382   4.656  0.0142 -0.0674 -0.1312
17744W        W36598   2.770  12.657  12.482  0.1642 -0.3923  0.0171
17745W        W36599  13.099  15.921  15.144 -0.1506  0.2183  0.2120
17746W        W36600   3.272  10.595   0.919  0.0293 -0.1247 -0.0752
17747W        W36601  14.473   6.598   4.492 -0.0308 -0.4535 -0.3050
17748W        W36602   6.590   2.419   3.873 -0.1875 -0.0453 -0.0788
17749W        W36603  16.846   1.699  12.957 -0.1871  0.1769  0.0612
17750W        W36604  14.292   9.803  15.473  0.0730 -0.0283  0.0838
17751W        W36605   2.737   2.571   3.406  0.0574  0.0127  0.1218
17752W        W36606   4.593   3.644  15.519 -0.3020 -0.1476 -0.1066
17753W        W36607  11.221  13.739  16.070  0.0375 -0.0466 -0.0092
17754W        W36608  17.256   9.654  10.502  0.2722 -0.1970 -0.0344
17755W        W36609   0.643  11.355  15.140  0.2372  0.0112  0.0488
17756W        W36610   7.378   6.793   3.430  0.2270 -0.2965 -0.0572
17757W        W36611   1.067   0.760  15.310  0.1158 -0.2836  0.2987
17758W        W36612   6.638  15.417   1.353 -0.1851 -0.0609 -0.0427
17759W        W36613   9.304  10.291  14.626 -0.0884 -0.0827  0.0346
17760W        W36614   1.055   7.010  13.182 -0.2240 -0.2421  0.1241
17761W        W36615   3.509  12.082  11.495  0.0030 -0.0616 -0.1937
17762W        W36616   5.459   5.814  13.514  0.2961 -0.2272 -0.1752
17763W        W36617  13.441  14.193  12.373  0.1284 -0.0566  0.0867
17764W        W36618   1.750   1.599   3.401 -0.0001 -0.1501 -0.1100
17765W        W36619  12.626   3.050  11.803 -0.3460 -0.0552 -0.0878
17766W        W36620   3.072  16.225  13.886  0.1330 -0.1525 -0.0484
17767W        W36621  16.393   9.030  13.186  0.2038  0.1464 -0.0815
17768W        W36622  14.733  13.992  12.165  0.4245 -0.1519  0.1891
17769W        W36623  13.908  11.363  11.564 -0.1516  0.0231  0.0665
17770W        W36624   8.343   0.297   2.305  0.2796  0.3838  0.0504
17771W        W36625   2.677   6.813  14.482  0.1372 -0.2104 -0.0083
17772W        W36626   0.218  14.307   0.176  0.1315  0.2147 -0.0436
17773W        W36627  11.691  16.871  15.135  0.0649 -0.0453 -0.0113
17774W        W36628   7.579   4.425  15.304 -0.2901 -0.0417  0.1189
17775W        W36629   3.234  15.865   2.757 -0.1019  0.0953 -0.1456
17776W        W36630   8.177   6.287   0.938  0.0675  0.0836 -0.1256
17777W        W36631  14.638   8.345  13.020  0.1360 -0.2473 -0.1231
17778W        W36632   1.854   5.259  11.902 -0.1520  0.1077 -0.0865
17779W        W36633   1.532  14.271   4.591 -0.0917 -0.0441 -0.0289
17780W        W36634   4.118  17.589  12.852  0.0652  0.0467  0.0029
17781W        W36635   1.321   6.713  14.219 -0.1488 -0.0223  0.2935
17782W        W36636   0.610   8.533  16.222  0.1824 -0.1804 -0.1992
17783W        W36637   5.080   1.239   0.847  0.0313  0.0813 -0.0458
17784W        W36638   9.802   2.699  14.267 -0.0461  0.3689 -0.2545
17785W        W36639   7.059   7.936  13.269 -0.1811 -0.3515 -0.1024
17786W        W36640  13.724  12.185   4.620  0.1566  0.0894 -0.2395
17787W        W36641   6.972   1.712   4.366  0.1446  0.0788 -0.0122
17788W        W36642   7.396  13.293  11.724  0.0614  0.0087  0.1906
17789W        W36643  14.053   3.270  13.330  0.1556 -0.1251 -0.0755
17790W        W36644  15.021   4.111   4.521  0.1759  0.1861  0.0504
17791W        W36645   1.360   5.899  15.964 -0.2827  0.0456  0.1690
17792W        W36646  17.719   3.417  16.087 -0.1083  0.1734 -0.5205
17793W        W36647   4.466   8.342  14.446  0.1467 -0.0077 -0.1108
17794W        W36648   9.476  14.339  13.154  0.0982  0.0876 -0.0289
17795W        W36649   3.909  14.952   0.407  0.0673 -0.0065 -0.0755
17796W        W36650  10.926  17.589  13.672  0.1913  0.1728  0.0016
17797W        W36651   5.066  16.315   2.015 -0.2005  0.3261 -0.1009
17798W        W36652   6.874  12.790   4.948  0.1028 -0.1898 -0.3519
17799W        W36653  16.455   8.882  11.284  0.3112  0.0050  0.1149
17800W        W36654  12.603   7.663   0.382  0.1250  0.2052 -0.1622
17801W        W36655   6.880   9.370  11.845  0.1098 -0.0559 -0.0176
17802W        W36656   9.972   7.508   0.380  0.2141 -0.2939 -0.2457
17803W        W36657   0.295  15.193  11.328  0.0539  0.1841 -0.0314
17804W        W36658   0.376  16.689  15.409 -0.1584  0.0365 -0.0685
17805W        W36659   6.820   9.454  14.136  0.2062 -0.1460 -0.0180
17806W        W36660   6.124  13.470   0.615 -0.1386 -0.0730  0.3937
17807W        W36661  17.734   5.511   1.270 -0.1887  0.0122 -0.0180
17808W        W36662  12.740  17.017   4.935  0.1700 -0.2188  0.0861
17809W        W36663   8.297  11.823  14.299  0.1613  0.0196  0.1903
17810W        W36664  17.597  12.656   1.854 -0.0744 -0.0314  0.2620
17811W        W36665  14.916  13.720   4.599  0.1593 -0.0997  0.1890
17812W        W36666   0.589  14.317   4.494  0.0846 -0.2871 -0.1203
17813W        W36667   1.241  12.339  15.994  0.2467  0.0898  0.1103
17814W        W36668  16.194   6.004   3.933  0.0199  0.2423  0.0993
17815W        W36669   7.944  10.713   3.234  0.0750  0.0957 -0.4465
17816W        W36670   1.463   6.113   4.251  0.0485  0.1192 -0.1176
17817W        W36671   4.524   2.128   3.711 -0.0830  0.1881  0.0401
17818W        W36672  12.367  14.823   1.124  0.1539 -0.0291 -0.1357
17819W        W36673   0.072  15.809   4.930  0.0854  0.1914  0.2312
17820W        W36674   7.248  14.820  13.906  0.1790  0.1940 -0.1626
17821W        W36675  16.490   4.563  11.886 -0.0770  0.0588  0.1791
17822W        W36676   8.444   7.579   4.109 -0.2885  0.1231  0.0403
17823W        W36677   9.799  12.150  11.515 -0.0006  0.2109  0.1951
17824W        W36678   0.547  14.947  13.561  0.3494 -0.0562 -0.1127
17825W        W36679  11.553   5.308  15.674  0.1428 -0.1832 -0.1751
17826W        W36680   5.705  10.186  13.624  0.1658 -0.2597 -0.1480
17827W        W36681   8.338   3.705  15.648 -0.1946  0.1863 -0.1149
17828W        W36682  16.391  15.137   4.226 -0.1114 -0.0940 -0.0702
17829W        W36683   7.846   3.171   2.970  0.1364  0.2283 -0.0491
17830W        W36684  14.545   9.525  13.298 -0.2445  0.0926 -0.1682
17831W        W36685  12.582  11.007  12.153  0.0869  0.0908 -0.0586
17832W        W36686   3.384   8.347   0.518  0.0267  0.2161 -0.0119
17833W        W36687  14.320   6.917  11.537  0.1545  0.2234  0.0886
17834W        W36688   5.488   5.298  15.793  0.0305  0.1573  0.1359
17835W        W36689  14.017  14.308   0.254 -0.1614 -0.0546  0.2942
17836W        W36690   7.748  10.092   4.621  0.0592  0.0467  0.3030
17837W        W36691   3.252   7.300  12.038 -0.2297  0.4247  0.2471
17838W        W36692  17.428  14.912   2.225  0.1717  0.1122 -0.1725
17839W        W36693  13.866  14.418   4.349 -0.0053  0.0050  0.1391
17840W        W36694   2.437  14.199  15.272 -0.4396 -0.0397 -0.4450
17841W        W36695  12.581  17.864  14.388  0.2196 -0.1742 -0.0458
17842W        W36696   6.101  13.442  13.209 -0.1721  0.2113 -0.1989
17843W        W36697  16.650  14.932  11.711 -0.3367 -0.1074  0.2406
17844W        W36698  10.751   6.560  12.628  0.0789  0.1510 -0.1870
17845W        W36699   6.939   8.220  15.515  0.1339 -0.0428  0.0450
17846W        W36700  11.615  17.247  14.842  0.4859 -0.0086  0.5765
17847W        W36701  16.625   6.165   4.106  0.0108  0.0577  0.1192
17848W        W36702   2.879  11.052   3.089 -0.1662 -0.1973 -0.3211
17849W        W36703  17.198  17.637  16.099 -0.0011  0.0850 -0.0297
17850W        W36704  12.021  11.284  16.160 -0.0073 -0.1407 -0.2119
17851W        W36705   0.831   9.622  14.718  0.0961  0.0210  0.2050
17852W        W36706   2.173  10.080   0.452 -0.0998  0.2344  0.0827
17853W        W36707   9.301   8.621   2.801 -0.1998 -0.0073  0.0641
17854W        W36708   7.161  14.812   4.447 -0.0084 -0.3698  0.1723
17855W        W36709  17.092  10.765   3.979  0.2432 -0.2463  0.3013
17856W        W36710  12.846   1.905   2.773 -0.0189  0.0819 -0.2362
17857W        W36711  11.051  16.200  10.756  0.1675 -0.1371  0.0741
17858W        W36712  10.341   7.840  14.552 -0.3072  0.2753 -0.0011
17859W        W36713  11.861  15.186  14.625  0.1906  0.2959  0.2657
17860W        W36714   4.093   8.548   2.452  0.3168  0.2368 -0.2801
17861W        W36715   3.979   2.382   3.782 -0.0390  0.3029  0.1284
17862W        W36716  15.795  16.669   4.433  0.0332  0.0573  0.0817
17863W        W36717   7.484  15.129   1.499 -0.1627  0.3718 -0.0230
17864W        W36718   5.313  15.926  11.967  0.0460  0.1232  0.1268
17865W        W36719  11.327  14.603  12.098 -0.3628  0.2854 -0.0178
17866W        W36720   4.870   0.943   1.191  0.0292 -0.2149 -0.0782
17867W        W36721  11.996  11.480   1.611 -0.0214  0.2395  0.2143
17868W        W36722   1.573  16.449  11.962 -0.1490 -0.2869  0.1649
17869W        W36723   5.234   5.097   0.283  0.0956 -0.0529  0.4287
17870W        W36724   7.596   4.652  11.819  0.0417 -0.1851 -0.0932
17871W        W36725   1.788   2.432   2.262 -0.0136 -0.0300  0.0694
17872W        W36726   4.033   0.211   2.657 -0.1279 -0.1035  0.0557
17873W        W36727  12.359   5.258  11.459 -0.4890  0.0577 -0.0824
17874W        W36728   5.598   5.290   4.814  0.2190  0.1135  0.1741
17875W        W36729   7.525  14.169   3.791 -0.0495 -0.1929  0.0857
17876W        W36730   0.086  10.147   3.672  0.2957  0.0437 -0.0282
17877W        W36731  11.294  10.238  14.750 -0.0773 -0.2255 -0.1967
17878W        W36732  16.642   7.341   1.587 -0.0896  0.0635  0.0764
17879W        W36733   1.002   8.674  10.580  0.0282 -0.1911  0.2287
17880W        W36734   5.715  17.624   1.554  0.3878 -0.0790  0.0373
17881W        W36735  16.702   0.618   3.713 -0.2299 -0.2814 -0.1472
17882W        W36736   9.850  16.238   3.688 -0.0120 -0.3770 -0.2825
17883W        W36737   4.909   4.960  11.584 -0.1979 -0.0352 -0.0346
17884W        W36738  13.878   5.083   3.357  0.0719  0.2094 -0.0801
17885W        W36739   0.452  17.554  14.600  0.1133 -0.1596  0.1712
17886W        W36740  11.641   9.649   2.786  0.0094 -0.3216 -0.2142
17887W        W36741   1.323   2.825   1.408  0.0857 -0.0326 -0.1244
17888W        W36742  12.902   6.636   3.031 -0.0547 -0.1758  0.3532
17889W        W36743   1.151   3.847   0.193 -0.0851 -0.1769  0.1904
17890W        W36744   6.565   9.187  12.797 -0.0879 -0.1413 -0.2750
17891W        W36745   1.773   8.902  15.180  0.0037 -0.1137  0.0482
17892W        W36746   4.070  17.112   1.913 -0.2407  0.1376 -0.2645
17893W        W36747   1.922  14.384  14.312 -0.1933 -0.2192  0.1116
17894W        W36748   4.964   7.922  14.345  0.0606  0.0009  0.1600
17895W        W36749   4.813  12.861   0.113 -0.2862 -0.1568 -0.1016
17896W        W36750  10.305   9.431  11.853 -0.0008  0.0698 -0.4418
17897W        W36751   3.780  13.006  11.644  0.1669  0.1905 -0.1314
17898W        W36752   7.335  16.970  13.312  0.0053 -0.4619  0.2680
17899W        W36753  15.196   9.252   1.713  0.0567 -0.1628 -0.0236
17900W        W36754  16.660   9.410  12.918 -0.0896 -0.1555 -0.2752
17901W        W36755  14.715   0.380   1.295  0.1730 -0.0594 -0.1383
17902W        W36756  14.060   6.339   3.023  0.0510 -0.0237  0.1415
17903W        W36757   6.691   9.743   1.411 -0.0715  0.0175  0.2573
17904W        W36758  15.741  11.192   3.070  0.0603 -0.3698  0.1585
17905W        W36759  16.606  13.974   3.536  0.1311 -0.1616  0.1106
17906W        W36760  16.556  11.899  11.452 -0.0531  0.2762  0.0370
17907W        W36761   4.986  17.530  14.091 -0.0519  0.1535  0.0287
17908W        W36762   8.721  11.203   3.269 -0.0299  0.1709 -0.0128
17909W        W36763   0.555   3.775   1.289 -0.0046 -0.2322 -0.0037
17910W        W36764   2.230   7.193  11.470 -0.3218  0.0371  0.0645
17911W        W36765  16.713  13.216   3.154  0.0063  0.1288  0.1383
17912W        W36766   8.011   1.987  15.376 -0.2331  0.1156  0.2222
17913W        W36767   7.505   8.888   0.318 -0.0918 -0.0944 -0.1157
17914W        W36768   2.593   8.268   1.020  0.4893 -0.1534 -0.2111
17915W        W36769   0.464  14.720  15.442  0.4025 -0.2945  0.2936
17916W        W36770  18.023   0.288  15.385 -0.1436 -0.2030 -0.1928
17917W        W36771  14.063   4.310   0.999 -0.2619 -0.0420  0.1573
17918W        W36772   5.794   1.181   1.587  0.1652  0.1393 -0.0837
17919W        W36773  17.897  10.121  15.762  0.0931  0.3831  0.0009
17920W        W36774  11.504  13.865  11.819  0.1596  0.0713 -0.0035
17921W        W36775  15.597   1.887   4.407  0.0382  0.0261 -0.0889
17922W        W36776   6.571   2.073   4.749 -0.1640 -0.1165 -0.1000
17923W        W36777   0.677   1.555  15.592 -0.0795  0.1780 -0.0860
17924W        W36778  17.866   0.327   4.316  0.0872 -0.2001  0.1936
17925W        W36779   4.715   4.902  12.103 -0.0975  0.2996  0.2805
17926W        W36780  14.157  13.964  12.861 -0.0061  0.3783 -0.0718
17927W        W36781   5.172   3.537   0.214 -0.0466  0.0391 -0.0110
17928W        W36782   5.755  14.843   5.648  0.2524 -0.0311  0.1729
17929W        W36783  11.284  11.552   4.804 -0.1519  0.2372 -0.0789
17930W        W36784   5.647  14.261   2.656 -0.1972  0.0438 -0.2001
17931W        W36785   0.181   8.406  11.918 -0.0662 -0.1310 -0.2724
17932W        W36786  15.523   0.602   4.528  0.0444 -0.1010  0.0777
17933W        W36787   7.984   8.651   1.035  0.0371 -0.1035  0.1600
17934W        W36788  14.705  16.884   1.601 -0.0752  0.0896 -0.3744
17935W        W36789   8.452  13.626   1.356  0.1020 -0.0744 -0.2669
17936W        W36790   1.748   6.333   0.798  0.3640 -0.0547 -0.0925
17937W        W36791  12.521   2.723  14.688  0.1093  0.1889 -0.1686
17938W        W36792  15.190  12.959   5.032  0.0199  0.4155 -0.2237
17939W        W36793   0.096  17.093  15.246  0.3024 -0.1755  0.3006
17940W        W36794  15.480   3.416  13.607  0.0883 -0.0045 -0.2690
17941W        W36795  17.323   6.313   3.338 -0.1413  0.2018 -0.1020
17942W        W36796   2.669   1.702  12.207  0.2939 -0.0700  0.3806
17943W        W36797  13.108   4.844   4.452 -0.0912  0.1700  0.3419
17944W        W36798   8.557  12.547   1.225 -0.1715  0.1073  0.0892
17945W        W36799   6.000   0.672  13.243  0.3538  0.0044  0.1597
17946W        W36800   2.714   5.269   2.399 -0.0596 -0.0597 -0.0333
17947W        W36801   6.668  14.244  13.257  0.1656  0.0930 -0.3091
17948W        W36802  12.626   2.360  11.771 -0.1346 -0.1170  0.0499
17949W        W36803   0.476   3.045  15.095 -0.0894 -0.2050 -0.0773
17950W        W36804   6.806   1.434   6.018  0.1221  0.1367  0.1574
17951W        W36805   5.164  11.287   4.540  0.1511 -0.3258  0.4657
17952W        W36806   6.386   9.407  10.355 -0.1385 -0.1882  0.0230
17953W        W36807  17.125   4.471  13.209 -0.2035 -0.2017  0.0195
17954W        W36808  10.436   2.018   4.391  0.3321  0.0689 -0.0860
17955W        W36809   5.037   9.664  11.621 -0.1265 -0.1877  0.0947
17956W        W36810   1.158   2.335   1.339  0.0889 -0.1302  0.2530
17957W        W36811  12.458   5.301   0.612  0.2823  0.1497 -0.1123
17958W        W36812  16.504  17.852   1.878 -0.2677  0.0655 -0.0807
17959W        W36813   1.425  17.216  13.051 -0.1480 -0.4091 -0.0657
17960W        W36814   3.892   9.872   0.401 -0.0215  0.0415 -0.0819
17961W        W36815   3.799  16.014   4.545  0.2872  0.1781 -0.0271
17962W        W36816  13.152   5.653   4.426  0.1733  0.2702  0.1470
17963W        W36817   2.135   2.484  14.307 -0.2668 -0.0483 -0.2177
17964W        W36818  16.437  17.376   0.592  0.2220 -0.2613 -0.4209
17965W        W36819   1.929   4.012  11.724  0.3540 -0.1761  0.1891
17966W        W36820  12.853   3.059   2.635  0.1635  0.2514 -0.1438
17967W        W36821   8.755   0.922   4.721 -0.1293 -0.2774 -0.0998
17968W        W36822  10.113  14.252  14.737 -0.0896  0.1798 -0.1772
17969W        W36823   3.443   0.431  13.679  0.2626  0.0246 -0.1390
17970W        W36824  11.051   1.100   2.370 -0.0243  0.0253  0.1268
17971W        W36825  11.689   4.169   5.083 -0.0464  0.0271 -0.1702
17972W        W36826  17.124   9.049   3.164  0.3015  0.1539 -0.2334
17973W        W36827   0.566   4.135  14.783 -0.0794  0.1187  0.0147
17974W        W36828  13.423   7.961   5.655  0.1466  0.1162 -0.0081
17975W        W36829  14.014  15.676  15.054 -0.1456  0.1323  0.1835
17976W        W36830  14.390  17.774   1.031 -0.1580 -0.1183 -0.0759
17977W        W36831   5.518   8.156  13.476  0.1766  0.1124 -0.0048
17978W        W36832  12.241  14.975  11.916  0.3897  0.0878 -0.1586
17979W        W36833  14.034  16.518  12.286  0.4389 -0.1705 -0.0379
17980W        W36834   8.247  16.373  12.913 -0.1890  0.3124  0.1661
17981W        W36835  14.086  13.262   0.900 -0.1020  0.1765  0.2710
17982W        W36836   1.579  16.645  12.524  0.3550 -0.1426  0.1884
17983W        W36837   7.804   5.102  14.945  0.1572 -0.1807 -0.1780
17984W        W36838  12.128   9.695   0.506  0.1476  0.1289 -0.0522
17985W        W36839  15.084  16.717  13.133 -0.1115  0.4043  0.0818
17986W        W36840  10.113   9.501  15.706 -0.0261 -0.1584  0.0171
17987W        W36841  17.015   9.544  13.664  0.0186  0.0966  0.0352
17988W        W36842   9.414  13.444   1.906  0.2972  0.1188 -0.2395
17989W        W36843   6.287   0.407   5.124 -0.2708  0.0183  0.0313
17990W        W36844  16.629   7.427  13.000  0.0837  0.0418 -0.1662
17991W        W36845  10.513   4.041   1.587  0.2345  0.2827 -0.2564
17992W        W36846   2.104  15.489  15.896  0.2619 -0.0293  0.0611
17993W        W36847   8.113   0.937  12.026 -0.1356 -0.2640  0.0833
17994W        W36848  10.000   7.928   3.258  0.2588 -0.1655 -0.0491
17995W        W36849  11.402   8.934   0.765 -0.0006 -0.1024  0.3367
17996W        W36850   3.822  16.919   3.008  0.3397 -0.1083 -0.3137
17997W        W36851  17.087  17.418   1.479  0.1111  0.0417  0.1067
17998W        W36852  17.760  10.822   0.565 -0.2037  0.0999  0.0618
17999W        W36853  17.090   1.598   1.751  0.0973 -0.0165 -0.1751
18000W        W36854  15.735   7.727   4.628 -0.1806 -0.0171  0.0364
18001W        W36855   6.279  13.671   5.977  0.0031  0.0832  0.1308
18002W        W36856  16.026   3.686   4.334 -0.2599  0.4235  0.4889
18003W        W36857   7.962  16.193  12.535 -0.3151  0.2925  0.0813
18004W        W36858  16.582   0.319  12.448 -0.0037  0.2304  0.2132
18005W        W36859   0.694   5.193  14.920 -0.0086  0.2172  0.1346
18006W        W36860  17.068   2.953   0.969 -0.0853  0.2022 -0.1942
18007W        W36861  17.637   6.501  15.777 -0.1030 -0.0076  0.0408
18008W        W36862   2.838   1.204  13.647  0.0446 -0.4270 -0.1908
18009W        W36863  15.335  11.158   2.325  0.2127 -0.0535 -0.0899
18010W        W36864   4.986   5.297  15.880 -0.0935 -0.1405  0.4344
18011W        W36865   1.131   9.954  12.842 -0.0406 -0.1607  0.2455
18012W        W36866  14.028   2.771   1.182  0.0095 -0.2186  0.0608
18013W        W36867   2.439  10.246  15.889  0.0519  0.0374 -0.0620
18014W        W36868   1.503  10.263   1.012  0.0179 -0.0264  0.0323
18015W        W36869   2.571   0.158   0.074  0.1341 -0.1760  0.1091
18016W        W36870   0.427   2.147  13.848 -0.0979  0.1236 -0.3547
18017W        W36871   6.865   6.965  13.222 -0.2109  0.0743 -0.1290
18018W        W36872   6.962  16.267  13.867 -0.0729  0.2065 -0.0183
18019W        W36873  15.373  17.424  12.247  0.0876 -0.1603  0.0046
18020W        W36874   4.843  11.998   0.305  0.2485  0.2893 -0.2552
18021W        W36875  10.446   4.605  13.346 -0.0311 -0.3038 -0.2282
18022W        W36876   4.847   0.155  13.466  0.0730 -0.0588  0.2702
18023W        W36877  11.462  12.165  15.332  0.0661  0.0381 -0.0044
18024W        W36878   7.024   0.438  15.507 -0.3220 -0.0863 -0.0321
18025W        W36879   5.451   7.464   1.867  0.3453  0.2000  0.0923
18026W        W36880   3.316   6.356  13.400  0.2414  0.2145 -0.1699
18027W        W36881  17.584   5.058   1.127  0.2266  0.0130  0.0942
18028W        W36882  10.346  13.782   0.037 -0.0871 -0.1121  0.2257
18029W        W36883  13.633  15.081   1.589  0.0918 -0.3077  0.3223
18030W        W36884   5.004   7.225  11.993  0.0982  0.0015  0.0094
18031W        W36885  15.018  16.168  15.519  0.1218  0.0642  0.3096
18032W        W36886   7.996  12.081   2.715  0.1036  0.1154 -0.0726
18033W        W36887  16.192   4.582   4.264  0.1485  0.1731  0.0920
18034W        W36888  13.534  13.072   2.397 -0.1732  0.0922 -0.0188
18035W        W36889   7.475   4.192  13.451 -0.2005 -0.1732  0.1756
18036W        W36890  13.690   9.509   4.827 -0.0087  0.0921  0.3751
18037W        W36891  13.991  16.693  11.690 -0.0598 -0.0035 -0.1205
18038W        W36892   0.077  15.908   3.976 -0.0975  0.2622  0.0426
18039W        W36893   0.076   6.805  15.950 -0.0379 -0.5037  0.2650
18040W        W36894  16.841  16.831   3.508 -0.0646  0.0858  0.1607
18041W        W36895   8.806  17.913  15.308 -0.3482  0.0719  0.2065
18042W        W36896  11.272   5.157  14.558  0.4009  0.3270  0.0565
18043W        W36897   1.918   1.743   4.914 -0.0502  0.0711  0.3399
18044W        W36898   8.025  11.035   1.368 -0.3778 -0.1404  0.1452
18045W        W36899  17.312   0.176  11.776  0.0745  0.2478  0.0129
18046W        W36900  14.152  14.896   2.443  0.0949  0.2010  0.0809
18047W        W36901   3.993   2.750   1.356  0.0415  0.0934 -0.2653
18048W        W36902  13.707   7.297  13.229 -0.2288 -0.0643 -0.0565
18049W        W36903  16.650   8.125  14.776  0.1697 -0.1259 -0.0536
18050W        W36904   8.882   9.389   2.095  0.1042  0.0015 -0.1142
18051W        W36905  15.571  15.231  12.754  0.0501  0.1212 -0.2012
18052W        W36906  15.222  12.142  12.372  0.2005  0.0335 -0.0278
18053W        W36907   0.104  17.609   2.835  0.1091 -0.5097  0.0594
18054W        W36908  11.605   2.713   4.381 -0.1751 -0.1514 -0.1549
18055W        W36909  12.473  14.608  13.673  0.1692  0.2468  0.1042
18056W        W36910   4.808  13.440  14.196 -0.0092 -0.0278 -0.0705
18057W        W36911  11.584  15.333   3.245 -0.1719 -0.3845  0.0124
18058W        W36912   0.777   0.022  15.720 -0.0109  0.0142 -0.2442
18059W        W36913  16.051  15.089   1.339  0.0338  0.0242  0.1081
18060W        W36914  15.378   8.375   3.772 -0.0957 -0.0214  0.0886
18061W        W36915   5.615   5.489   2.606  0.1621 -0.0207 -0.0362
18062W        W36916  14.044   9.024   2.220 -0.0042 -0.2906  0.2276
18063W        W36917  14.857  10.823  12.709  0.1746 -0.2165 -0.2817
18064W        W36918  13.975  15.903  13.125  0.0140  0.0963 -0.1684
18065W        W36919   8.139   8.739   3.824  0.5750  0.0104 -0.1093
18066W        W36920  16.881   4.072   3.658 -0.2134 -0.0799 -0.3637
18067W        W36921   0.931   0.259  13.342 -0.1801  0.0681 -0.3084
18068W        W36922  17.908   6.240  12.618  0.2239  0.0846 -0.0659
18069W        W36923   4.228  15.124  15.853 -0.0308 -0.0934  0.0868
18070W        W36924  11.922  11.870   0.286  0.0014  0.0346 -0.1670
18071W        W36925   1.867  12.491   4.523  0.0007  0.1200 -0.2755
18072W        W36926   9.621  16.354  13.408  0.1010  0.1796 -0.2738
18073W        W36927   4.171  10.261  14.043  0.2008 -0.0657  0.0794
18074W        W36928  10.944   0.474   2.510  0.3149 -0.1422  0.1078
18075W        W36929  15.631  12.484   6.100  0.1410 -0.0598  0.0165
18076W        W36930   2.210  11.438   1.601  0.0319  0.1622 -0.2397
18077W        W36931   8.904   1.267  14.605 -0.4139  0.0674  0.3197
18078W        W36932   6.300  12.999   5.852  0.2691 -0.1000  0.1633
18079W        W36933  14.250  17.978  11.811  0.1279 -0.0513  0.0260
18080W        W36934   0.291   3.339  14.689  0.1386 -0.4252  0.4386
18081W        W36935   6.882  17.984  15.377 -0.3250  0.0465  0.0322
18082W        W36936  11.719  16.465  12.971  0.0769  0.2821 -0.4231
18083W        W36937   6.569   5.540  15.500 -0.1543 -0.0328  0.1383
18084W        W36938  11.971  16.744  12.175 -0.0344 -0.1889 -0.1713
18085W        W36939   7.525  10.001   2.495 -0.0448  0.0537  0.0474
18086W        W36940  17.850  11.302   3.530 -0.0080  0.1571  0.0313
18087W        W36941  14.718  14.227   4.835 -0.1151  0.0210  0.0654
18088W        W36942   2.381  17.685   3.578  0.3481  0.0270 -0.0495
18089W        W36943  14.308   2.230  12.495  0.2215 -0.0257  0.1720
18090W        W36944   4.107   3.174   4.887  0.1709 -0.1155 -0.1394
18091W        W36945  15.875  14.781  15.787 -0.0619 -0.4095 -0.5975
18092W        W36946  16.204  17.905   1.089  0.0118 -0.2983 -0.3835
18093W        W36947  12.071   3.728   1.940  0.0643  0.1475 -0.0879
18094W        W36948   7.967  13.280  13.951  0.0729 -0.0165  0.0727
18095W        W36949  14.823   8.266   3.808  0.2344 -0.2388  0.1809
18096W        W36950   2.275  13.814  13.035 -0.1481  0.0162  0.0399
18097W        W36951   9.298  13.095   0.939 -0.2599 -0.0663 -0.3582
18098W        W36952  14.365  16.615  15.728 -0.0426 -0.2167 -0.1707
18099W        W36953   6.903  15.549   5.263 -0.0274 -0.0181  0.0976
18100W        W36954  13.329   4.549  15.256 -0.0668 -0.0041  0.3709
18101W        W36955   6.378  17.974   5.009 -0.0676 -0.1615 -0.1577
18102W        W36956   2.458   2.666  15.606  0.2055  0.0727  0.1245
18103W        W36957  15.231   8.461  14.174  0.0367 -0.2402  0.3388
18104W        W36958   2.835   3.139   0.142  0.0544 -0.1035 -0.0535
18105W        W36959   3.477   6.799   1.811 -0.3650  0.1041  0.1706
18106W        W36960   9.713   7.228   3.697  0.0694 -0.0637  0.0009
18107W        W36961  10.899   9.843   1.056 -0.4012 -0.2705  0.0373
18108W        W36962   0.268  12.012  16.166 -0.2611  0.0278 -0.0129
18109W        W36963  12.558  17.210  14.874  0.0894 -0.1625  0.0807
18110W        W36964  12.403   7.989   3.764  0.2989 -0.2699 -0.2878
18111W        W36965  16.650   6.921  15.778  0.1501 -0.0147 -0.2294
18112W        W36966   4.066   6.751   1.744  0.3087 -0.1268  0.1256
18113W        W36967  10.693  15.016  13.913 -0.3609  0.0308  0.2671
18114W        W36968   6.966   4.373  14.239 -0.1655  0.0758 -0.2056
18115W        W36969  15.727  14.261  15.437 -0.2640 -0.1415 -0.1085
18116W        W36970   2.553   3.694  15.152 -0.1019 -0.0349  0.2639
18117W        W36971   3.218  13.134   0.990  0.1646 -0.2351 -0.0835
18118W        W36972  14.378   0.588   4.888 -0.0642 -0.0439  0.0542
18119W        W36973   9.184   4.978  12.995 -0.2642  0.1757  0.2779
18120W        W36974   9.761   2.686   2.832 -0.1563  0.1026 -0.1594
18121W        W36975   7.055   1.169  14.527 -0.0966 -0.1403 -0.2121
18122W        W36976   4.316   9.362   1.238 -0.0836 -0.2070  0.0604
18123W        W36977   1.583   6.936  11.355 -0.1417  0.3254  0.1446
18124W        W36978   0.090   8.867   2.104  0.3495 -0.0948  0.0282
18125W        W36979  11.609  11.518   0.606 -0.0726  0.1280 -0.2312
18126W        W36980   1.483  11.171   3.110 -0.1094  0.1767 -0.1140
18127W        W36981   0.786  15.621   0.147 -0.1723 -0.1203  0.1036
18128W        W36982  14.846   0.792   4.819 -0.1813  0.2300  0.2458
18129W        W36983  15.849   5.673  15.981  0.0382 -0.0281 -0.1718
18130W        W36984  10.966   7.650   4.084  0.0444  0.0503  0.2907
18131W        W36985   9.876  12.891   1.788  0.2525 -0.1317 -0.1202
18132W        W36986  11.068  12.671   0.421 -0.1348 -0.0877 -0.1368
18133W        W36987   5.085  17.054  14.438 -0.1083  0.1020 -0.0015
18134W        W36988  15.504   2.776   1.257  0.4185  0.3802  0.1841
18135W        W36989   0.511   8.065   1.672  0.1898  0.1017 -0.0695
18136W        W36990  16.038  11.773  15.479 -0.1856 -0.0084  0.4143
18137W        W36991   7.221   7.298  12.615  0.1445  0.1008 -0.1518
18138W        W36992   5.014  15.171  14.740  0.0157 -0.1140  0.2162
18139W        W36993   0.659  11.546  12.348  0.0778  0.2289  0.0801
18140W        W36994   6.380   5.934   4.556  0.2191 -0.3318 -0.1935
18141W        W36995   4.241   1.442  12.141 -0.2243 -0.0510  0.2434
18142W        W36996   4.147   3.597   1.993  0.0866 -0.0082 -0.1601
18143W        W36997   6.453   0.396   3.601 -0.0696  0.3026  0.0460
18144W        W36998   8.087  15.122   2.353  0.2745  0.1347  0.0621
18145W        W36999   3.931   2.336   1.108 -0.1568 -0.3350  0.0743
18146W        W37000   0.193   9.872   0.590 -0.1902 -0.1994  0.1234
18147W        W37001   5.268   1.342  14.462 -0.0319  0.0912  0.0085
18148W        W37002   3.613   9.664   3.091 -0.0031  0.0580  0.1595
18149W        W37003  16.721  14.220   2.834  0.2746  0.0237  0.2499
18150W        W37004   6.762  12.220  14.365  0.0459 -0.0990 -0.1342
18151W        W37005  12.443  17.966  12.019 -0.2475  0.0855  0.0195
18152W        W37006   6.635  11.425   1.769  0.1587  0.1307  0.0022
18153W        W37007   0.915  17.754  14.666  0.0327  0.0173 -0.0029
18154W        W37008   1.688   7.981  12.085  0.1786  0.3215 -0.3246
18155W        W37009   2.641   1.375  16.126  0.1752 -0.1684 -0.1738
18156W        W37010   4.831   6.490   4.539  0.0442 -0.2287  0.2607
18157W        W37011   6.510   8.547  16.032 -0.0146 -0.0536 -0.0635
18158W        W37012   4.456  13.932   2.159  0.1239  0.2785  0.2185
18159W        W37013  14.849   6.244  12.184 -0.1077  0.0842 -0.0406
18160W        W37014  14.390   9.398  12.445  0.0811 -0.2556  0.0279
18161W        W37015  13.640   8.699   3.166  0.4895 -0.0617 -0.1730
18162W        W37016   7.138   5.303   2.542  0.1070 -0.0353  0.1747
18163W        W37017  10.764   1.954  15.194 -0.2870 -0.0318  0.0048
18164W        W37018   7.929   8.232   3.815 -0.1775  0.0499  0.2417
18165W        W37019   2.779  12.909   0.834 -0.1933  0.0436 -0.0980
18166W        W37020  17.298  10.178   2.867  0.2960  0.1105  0.0750
18167W        W37021   0.816  13.560   1.645  0.0531 -0.0038  0.0623
18168W        W37022  16.091  15.624  13.974 -0.1700 -0.0151 -0.1510
18169W        W37023   2.092  12.487   2.500  0.2359  0.0196  0.0831
18170W        W37024   0.645  17.117   1.208  0.0683  0.0922  0.1327
18171W        W37025   3.808   9.514   4.462 -0.1889  0.0770 -0.1574
18172W        W37026   4.982  10.063   4.098  0.3616  0.4318 -0.2619
18173W        W37027   9.602  17.580   3.234  0.1195 -0.0724 -0.0971
18174W        W37028   5.565   9.199   3.287 -0.3538  0.3151 -0.0695
18175W        W37029  16.245   3.416   1.337  0.0676 -0.1828 -0.0512
18176W        W37030   7.006   5.472   3.820 -0.0740  0.2432  0.0651
18177W        W37031   6.335  17.369  11.617 -0.1361 -0.3669 -0.0019
18178W        W37032   1.661   2.315  10.615 -0.3281 -0.0970  0.0131
18179W        W37033   4.361  13.202  14.085 -0.0823 -0.1887  0.1358
18180W        W37034  17.250   7.188  14.887 -0.0512  0.2143 -0.2149
18181W        W37035   3.519   3.869  13.930  0.1635 -0.1645 -0.4042
18182W        W37036  17.598   9.705  14.380  0.2309  0.0438  0.0609
18183W        W37037  11.817   4.122  12.751  0.1219 -0.0959  0.1075
18184W        W37038  16.179   2.335  13.928 -0.0326 -0.2136  0.0793
18185W        W37039   9.450  11.027   1.134  0.1795 -0.1051  0.2236
18186W        W37040   0.106   2.550   3.661 -0.1793  0.1885 -0.0815
18187W        W37041  14.471   2.695  12.668  0.1025 -0.0509 -0.3204
18188W        W37042  11.185  15.177  13.770 -0.2163  0.3194 -0.2115
18189W        W37043  15.612   6.982  12.281  0.2714  0.1938 -0.3499
18190W        W37044   2.591   9.870  11.950  0.0141  0.1710 -0.0375
18191W        W37045  16.432   7.633  15.345 -0.2236 -0.2852 -0.1251
18192W        W37046   4.615   2.271   4.711 -0.2699  0.1916 -0.2120
18193W        W37047   4.726   0.220   4.125 -0.0939  0.2549 -0.1305
18194W        W37048   4.748  17.577   4.381  0.0637  0.0907 -0.2505
18195W        W37049   0.827  16.540   0.640 -0.0236 -0.0823  0.0062
18196W        W37050   3.963   5.997   2.609  0.2841  0.3836  0.0752
18197W        W37051   2.162  17.423   5.134  0.2312  0.2588 -0.0397
18198W        W37052   9.841  14.996   4.367 -0.1134 -0.3376  0.0372
18199W        W37053  13.683  14.651   0.660 -0.2254  0.1739 -0.4844
18200W        W37054  14.704   1.417   4.341  0.0261  0.0256 -0.3107
18201W        W37055   9.039  15.358  14.427  0.0911  0.2947 -0.0613
18202W        W37056  10.832  13.747   0.671  0.2524  0.0947 -0.1495
18203W        W37057   3.806   3.921  15.084  0.0364  0.0285 -0.0859
18204W        W37058   7.618  16.181  14.068  0.0359  0.0668  0.2798
18205W        W37059  15.251   6.557  12.179  0.0760 -0.1276  0.4279
18206W        W37060  11.947   6.978  14.483  0.2299 -0.0834  0.0192
18207W        W37061   9.333   4.140  14.955  0.2848  0.0862 -0.1190
18208W        W37062  17.537  17.496  14.722  0.0634  0.1500  0.0210
18209W        W37063   5.670   6.383  14.883 -0.0118 -0.0252 -0.2268
18210W        W37064  17.135  11.216   1.826 -0.2945 -0.4040  0.0468
18211W        W37065  16.010   0.530   0.837  0.0685 -0.3825 -0.0711
18212W        W37066   0.083   9.893  14.283  0.1501  0.0177  0.2340
18213W        W37067  11.110  14.084  14.595  0.3304  0.1397 -0.0927
18214W        W37068   7.110  17.035  15.054 -0.0048  0.2107  0.0883
18215W        W37069   2.719  17.723   4.118  0.0932 -0.0862 -0.2666
18216W        W37070   0.810   4.932   3.162 -0.0067 -0.1758 -0.2168
18217W        W37071   2.388  17.609  12.917 -0.2722 -0.1269 -0.1022
18218W        W37072   6.134   1.271   3.052 -0.0189 -0.0035  0.0133
18219W        W37073   5.454  11.164   1.207  0.0587 -0.0627 -0.0123
18220W        W37074   8.265   9.471   0.236 -0.1375 -0.0860 -0.0728
18221W        W37075   5.924  15.720  13.787  0.0381  0.0833 -0.1277
18222W        W37076   8.349   6.254  15.135 -0.1984 -0.2018 -0.2049
18223W        W37077  12.049   9.061  12.892  0.1376  0.2984  0.0907
18224W        W37078  17.620  10.102   0.470  0.1344  0.1680 -0.1487
18225W        W37079   0.316  11.759  11.504 -0.1857  0.0831 -0.0029
18226W        W37080  16.255  15.453  15.909  0.2211 -0.2329  0.1552
18227W        W37081  12.788   2.629  14.254  0.5594  0.1747 -0.0758
18228W        W37082   9.991  15.713   3.641 -0.1331  0.1106 -0.2447
18229W        W37083   1.008  17.074  15.269  0.1326  0.0236  0.3825
18230W        W37084   3.709  10.313  13.905 -0.3008  0.0087 -0.1273
18231W        W37085   0.056   4.590   1.621 -0.0863 -0.1210  0.0566
18232W        W37086  10.101  12.969   3.868  0.0494  0.0235  0.3354
18233W        W37087   6.841  10.285  11.440 -0.1601 -0.0900 -0.2115
18234W        W37088  17.345   6.003   3.725 -0.0622 -0.0683  0.3242
18235W        W37089  11.449   5.493  12.606 -0.1445 -0.0461 -0.2999
18236W        W37090  14.007   4.504  11.885  0.1301  0.2607  0.2434
18237W        W37091  10.788  11.201  15.839 -0.1569 -0.0018  0.4528
18238W        W37092   7.515   1.231   0.983  0.3677 -0.0864  0.0706
18239W        W37093   9.979   6.404   2.329  0.0479  0.2653  0.2179
18240W        W37094   5.868  14.183   0.122  0.0030  0.3256  0.0886
18241W        W37095  11.577   2.412   5.683 -0.1434  0.2215  0.0299
18242W        W37096   2.872   2.154  13.645 -0.1408  0.3290 -0.2676
18243W        W37097  14.315  10.899  15.085  0.0115 -0.1366 -0.1601
18244W        W37098   9.499  10.712  15.456 -0.0480 -0.2694  0.2578
18245W        W37099   7.735  15.856  15.654 -0.2522 -0.3548 -0.1100
18246W        W37100  13.384   3.763  14.743 -0.1411 -0.2190  0.0776
18247W        W37101   4.045  17.733   2.928 -0.0946  0.1543 -0.1330
18248W        W37102   5.518   3.094  13.132  0.1378  0.1437 -0.3467
18249W        W37103   8.337   8.510   3.358 -0.2436  0.0059  0.1260
18250W        W37104  15.317   9.887  11.570 -0.2380 -0.0026 -0.0253
18251W        W37105  14.722  15.511  16.009 -0.0974  0.0735  0.0532
18252W        W37106  10.982   3.661  12.141 -0.1431  0.2034 -0.1237
18253W        W37107  16.142  12.525   0.624 -0.2173  0.0279  0.1660
18254W        W37108   2.528   1.051   2.333 -0.0879  0.0782  0.0715
18255W        W37109   8.760  10.364  11.595 -0.0765  0.1605  0.0241
18256W        W37110   1.102   6.039  13.915 -0.3058  0.1293 -0.1944
18257W        W37111   4.617  10.386  12.497  0.1641 -0.0909  0.4463
18258W        W37112  11.335   6.574  13.754  0.2400  0.2631  0.2063
18259W        W37113  17.644  16.451  12.562 -0.1887 -0.1636 -0.0200
18260W        W37114   1.228   6.966  15.495  0.4987 -0.1045  0.1775
18261W        W37115  17.563  13.176   2.599  0.2651  0.0900 -0.1375
18262W        W37116   8.344   6.771  13.062  0.0000  0.2575 -0.0054
18263W        W37117   5.607   4.195   0.623  0.1110 -0.1381 -0.3023
18264W        W37118   4.120   7.533  13.457 -0.1303 -0.3348 -0.2284
18265W        W37119   8.332  16.198   0.640  0.3276  0.5371 -0.1176
18266W        W37120   5.259  10.343  13.290  0.0771  0.1454 -0.0853
18267W        W37121  10.043   8.907   2.404  0.2793  0.2324 -0.5378
18268W        W37122  17.246   1.079   2.978  0.0671  0.2645 -0.1768
18269W        W37123  12.574  17.540  15.283 -0.0946 -0.2998 -0.1099
18270W        W37124   8.352  16.950   2.164 -0.0223 -0.1089  0.1743
18271W        W37125   6.338   5.362   3.695 -0.0341  0.1168 -0.1085
18272W        W37126  16.586  16.571  11.952 -0.2267 -0.1793 -0.2100
18273W        W37127  11.400   9.208   4.483  0.3037  0.2803 -0.0721
18274W        W37128   3.907   2.186  11.906  0.1342  0.1065 -0.0224
18275W        W37129  13.882   9.199  11.236 -0.0104  0.2897  0.2586
18276W        W37130  15.509   6.255  15.338  0.0059 -0.1540  0.2577
18277W        W37131  14.412   4.927   4.719  0.0069  0.2652  0.0478
18278W        W37132   0.124  14.143   3.213  0.1522 -0.1091 -0.1404
18279W        W37133   5.748   8.783  15.209  0.0548 -0.1890  0.0988
18280W        W37134   8.086   9.354  16.001  0.2610 -0.0360  0.1731
18281W        W37135  13.258  10.389   2.958 -0.0171 -0.0900 -0.0990
18282W        W37136  12.127  16.748  14.761 -0.0182  0.1325  0.0393
18283W        W37137   3.802  17.081   0.224  0.3122  0.4037  0.1587
18284W        W37138  11.470  15.801   4.039  0.0756  0.0612 -0.0048
18285W        W37139   0.474  13.929  16.128  0.0422  0.0813  0.2067
18286W        W37140  15.189   5.677   0.899  0.0028  0.0665 -0.1768
18287W        W37141  11.531  13.902   1.729 -0.3033  0.2601  0.1299
18288W        W37142   7.445   8.447  14.571  0.0500 -0.1383  0.0385
18289W        W37143   7.672  11.635   4.961  0.0559 -0.3123  0.0382
18290W        W37144  17.085   6.397   3.879 -0.1333 -0.2900 -0.2782
18291W        W37145  14.717  17.694  12.148  0.1723 -0.0574 -0.0474
18292W        W37146   6.558   5.900   0.115 -0.0392 -0.0034  0.0127
18293W        W37147   1.325  12.784   0.966  0.0045 -0.1482  0.0256
18294W        W37148   5.109   0.196   2.574 -0.2981 -0.2228 -0.3185
18295W        W37149  15.468   8.182  15.014 -0.0764 -0.4068 -0.1062
18296W        W37150  14.609  16.552   4.547 -0.0771 -0.1405 -0.0931
18297W        W37151   6.443   7.753   1.212 -0.1161 -0.3715 -0.0412
18298W        W37152   4.212  10.479  13.333  0.1476  0.1813  0.0672
18299W        W37153   4.296   6.300  14.386  0.0555  0.2615  0.1309
18300W        W37154  12.197   2.348   3.714  0.0848 -0.2399 -0.2364
18301W        W37155  15.966  12.247  15.741 -0.3125  0.0123 -0.1137
18302W        W37156   9.216  10.557   3.723  0.0428  0.2476  0.0390
18303W        W37157  11.293   4.973  11.809  0.1063 -0.2287 -0.1324
18304W        W37158   8.261  12.467  15.993  0.1993  0.1983  0.1452
18305W        W37159  10.797   1.400  14.403  0.1107  0.1532 -0.3086
18306W        W37160  14.046   0.907   2.312 -0.1251 -0.1656 -0.3363
18307W        W37161  12.529  14.659   2.589  0.1746  0.2441  0.2455
18308W        W37162   4.640   7.062   3.802  0.2762 -0.4545 -0.0040
18309W        W37163   4.924   7.975   0.689 -0.0987  0.3121 -0.1785
18310W        W37164   9.688   7.077  13.998  0.0207 -0.0219 -0.0320
18311W        W37165  12.410  16.480  12.046  0.0088 -0.0553  0.1309
18312W        W37166  14.360  13.008   3.411 -0.1110 -0.0638 -0.1773
18313W        W37167   2.600  11.151  13.832 -0.3951 -0.1424 -0.3133
18314W        W37168  17.355  13.117  13.781  0.1589 -0.1258 -0.1243
18315W        W37169   3.377   1.973   3.002  0.0254 -0.2609 -0.0330
18316W        W37170  12.110   0.064   2.622  0.3298  0.0647  0.1297
18317W        W37171  12.686  10.587   0.810 -0.1059  0.0123 -0.1816
18318W        W37172   9.413  16.297  14.076  0.3529  0.1162  0.1192
18319W        W37173   4.870  10.219  11.371 -0.1905 -0.4162  0.0465
18320W        W37174   6.737   1.327  14.167  0.2722  0.0237 -0.1410
18321W        W37175   7.841   5.741   0.597  0.0034 -0.2172  0.0973
18322W        W37176   5.571   6.072  13.118 -0.0429 -0.1137 -0.0067
18323W        W37177   9.951  14.567  14.364 -0.0673  0.0439  0.1501
18324W        W37178   8.902  10.621   3.332 -0.2033  0.3106 -0.1527
18325W        W37179   7.411  16.106   0.369 -0.0998  0.2041  0.1290
18326W        W37180  10.047   2.521  11.531 -0.2232  0.1837 -0.2049
18327W        W37181  11.862   1.282  11.565 -0.1675  0.1453  0.0800
18328W        W37182   9.496   3.309   4.022 -0.2393  0.2481 -0.2790
18329W        W37183   1.155  14.489   0.737  0.0546 -0.0124 -0.0166
18330W        W37184  12.569  16.083  11.725 -0.0011  0.5160 -0.2754
18331W        W37185   7.429  14.871  15.642  0.0332 -0.2803 -0.1491
18332W        W37186   1.721  14.678   3.979 -0.0554 -0.1327 -0.1877
18333W        W37187   7.819   3.968  13.707  0.1364  0.1517 -0.1945
18334W        W37188   4.750  16.398   3.014  0.1692  0.0766 -0.2186
18335W        W37189   4.199  14.348   3.867 -0.1178 -0.0010 -0.2310
18336W        W37190  11.452  10.101   0.154 -0.0287 -0.2638  0.2414
18337W        W37191   2.366  17.170  14.350 -0.1535 -0.3956 -0.1199
18338W        W37192   5.632   5.432  13.288 -0.2152 -0.1369 -0.1141
18339W        W37193   8.487   4.636  13.391 -0.0282 -0.1389  0.2021
18340W        W37194   9.818  12.148  13.249  0.0714 -0.0811 -0.1993
18341W        W37195   2.581   3.075   3.421 -0.3638  0.1795 -0.2030
18342W        W37196   8.696  15.908  13.422  0.1862  0.3875 -0.3620
18343W        W37197   6.621   5.302  14.323  0.1098  0.2028  0.1192
18344W        W37198   3.645   5.299   0.145 -0.0564  0.2247  0.3892
18345W        W37199  12.496  14.095  11.053 -0.3561  0.5013 -0.2503
18346W        W37200  10.162   9.068  15.545  0.1524 -0.1964 -0.2225
18347W        W37201   5.525  17.414  12.860  0.3896 -0.5206  0.0691
18348W        W37202  15.066  14.571  13.278 -0.3069  0.2791  0.2251
18349W        W37203  15.003   6.133   1.211 -0.1058  0.2008  0.2454
18350W        W37204  15.935   8.262   2.768 -0.2335 -0.1495 -0.1646
18351W        W37205   8.827   3.605  12.403  0.3340 -0.1413 -0.0723
18352W        W37206  11.866  15.526   0.351  0.1263 -0.1044 -0.0192
18353W        W37207  11.956   2.901  12.769 -0.0822 -0.1220 -0.2744
18354W        W37208  13.771   1.671  13.154 -0.3458  0.0307  0.5708
18355W        W37209   9.225   1.685  14.810 -0.1073  0.1976  0.0944
18356W        W37210  15.187   2.661   0.351  0.1498 -0.0565  0.0140
18357W        W37211  10.813  13.591  12.918 -0.0002  0.1347 -0.3048
18358W        W37212  13.695  10.056  16.026 -0.0142  0.0577 -0.1536
18359W        W37213  15.143   1.361   1.387 -0.0036  0.1771  0.0686
18360W        W37214   2.427   0.062   0.839 -0.0418 -0.1045 -0.1496
18361W        W37215   6.031  16.147   0.809  0.1270  0.0590  0.1155
18362W        W37216   8.931   5.597   0.190 -0.0434 -0.0089 -0.2982
18363W        W37217  17.017  13.917   1.737 -0.1694  0.0801 -0.2765
18364W        W37218   3.678  15.906   3.029  0.3264 -0.0142 -0.1227
18365W        W37219   3.097   2.430  13.140  0.1367 -0.1702  0.0362
18366W        W37220   0.216  15.623  15.375  0.0426  0.3732 -0.0887
18367W        W37221   0.263   8.141  15.956  0.0715 -0.1183 -0.0493
18368W        W37222  17.356  14.821  14.759 -0.0906  0.1414 -0.0966
18369W        W37223   4.290   3.880   4.284  0.3405 -0.0423 -0.1049
18370W        W37224  13.640  16.069  13.468 -0.2762  0.1335  0.1410
18371W        W37225   1.189   8.913  14.159 -0.0753  0.1056 -0.1210
18372W        W37226   8.176   1.212   1.345 -0.0611 -0.0226  0.0648
18373W        W37227  11.999   6.624   4.613  0.0182  0.0737 -0.0908
18374W        W37228   6.094   4.016  14.285  0.2054 -0.3255  0.2403
18375W        W37229   5.156  11.125  15.673  0.0672 -0.0873 -0.1046
18376W        W37230  11.288   7.241   2.252  0.0075 -0.1526  0.4556
18377W        W37231   5.881  15.926   3.010 -0.1090 -0.0071  0.1028
18378W        W37232   6.251  15.912   1.205 -0.1896 -0.3101 -0.0099
18379W        W37233  10.004  15.485   4.141 -0.2207 -0.3050  0.1315
18380W        W37234   9.393  14.125  15.939  0.3458  0.0493 -0.0887
18381W        W37235  11.282  16.599  12.774 -0.0087  0.0631  0.4525
18382W        W37236   0.552   2.388  15.763 -0.0649  0.0884  0.0204
18383W        W37237   0.556  16.939   2.903  0.2445 -0.0774 -0.0327
18384W        W37238   1.962   1.326   4.039  0.0552 -0.0058 -0.0280
18385W        W37239  16.635   4.043  11.837  0.0837  0.3682  0.2375
18386W        W37240  14.625  16.759   0.016 -0.0781 -0.0144  0.0259
18387W        W37241  13.482   1.481   3.369  0.1410  0.0089  0.0552
18388W        W37242  13.892   8.400  14.266  0.0660  0.0911 -0.1433
18389W        W37243  17.142  15.692   1.786 -0.1139 -0.2115  0.1563
18390W        W37244   7.662   3.237   2.198  0.1532  0.0597 -0.0855
18391W        W37245  15.010  12.542   1.401 -0.0757 -0.1039 -0.2840
18392W        W37246  10.260   7.044   1.793 -0.1082 -0.1920 -0.0631
18393W        W37247   1.704   0.341  13.900 -0.0039 -0.0073  0.0793
18394W        W37248   0.934   4.747  15.675 -0.0390 -0.2577  0.0008
18395W        W37249   9.834  11.289   3.251  0.2359  0.2502 -0.3127
18396W        W37250   2.084  14.202   1.893  0.2902 -0.2994  0.1324
18397W        W37251  14.991  14.375  11.937 -0.0392  0.0159  0.0462
18398W        W37252   7.018   0.786   1.705 -0.1364  0.2817  0.0711
18399W        W37253   0.330  10.591  12.575  0.1842 -0.1911 -0.3510
18400W        W37254   6.961   2.985   0.381 -0.0755  0.0482  0.0810
18401W        W37255  16.973   1.488   4.231 -0.3414  0.2144 -0.3682
18402W        W37256   2.739  16.970  15.140 -0.1463 -0.0085 -0.1876
18403W        W37257  11.696  11.921   5.566 -0.2392 -0.0794 -0.1702
18404W        W37258  11.158  13.874  12.180  0.0252  0.3265  0.2713
18405W        W37259  13.760  17.165   0.713  0.0104 -0.1562  0.0146
18406W        W37260   3.239  13.064  13.327 -0.1274  0.1216 -0.2093
18407W        W37261  13.559  10.635  13.889 -0.1003 -0.1485 -0.2244
18408W        W37262   1.173  12.712  12.798  0.3096 -0.1758  0.2104
18409W        W37263   3.189   4.246  14.117 -0.2170  0.4834 -0.0356
18410W        W37264   4.256   4.230   0.115  0.1615 -0.0245  0.1073
18411W        W37265  16.481   2.441  13.411  0.2603  0.1652 -0.0709
18412W        W37266  13.490   4.715   3.422  0.0129  0.2118 -0.0293
18413W        W37267  17.698   1.325   4.745 -0.0428  0.0361  0.0492
18414W        W37268   9.417  13.887  10.557  0.2236 -0.1143  0.1628
18415W        W37269  12.704   5.939  14.525 -0.2147  0.1740 -0.2056
18416W        W37270   0.855   1.993   1.553 -0.3504  0.0348 -0.3859
18417W        W37271   7.860   2.730  12.500  0.0525 -0.3466 -0.1497
18418W        W37272   5.332  10.872   0.577  0.0481  0.0408 -0.1926
18419W        W37273   5.820   5.842  10.382  0.1876  0.2158 -0.1358
18420W        W37274  16.339  10.323  12.359  0.1106 -0.1063 -0.0716
18421W        W37275  14.432  17.492  14.566 -0.1793 -0.1903  0.0295
18422W        W37276  15.578   9.201   4.514 -0.1692 -0.0627 -0.0385
18423W        W37277   6.558   0.221  15.136  0.1708  0.2138 -0.2278
18424W        W37278  10.828   0.299   4.410  0.0301  0.0443 -0.2209
18425W        W37279   8.396   3.733  14.865  0.0812  0.1532  0.0579
18426W        W37280   6.709   9.026   0.026  0.1032 -0.1020  0.0779
18427W        W37281   1.200   1.430   2.353 -0.1249 -0.0433  0.1443
18428W        W37282  16.868   8.847   2.709 -0.1772 -0.0875  0.2961
18429W        W37283   7.436   9.867  14.078  0.1008 -0.0271  0.0245
18430W        W37284  15.997  12.022   1.291  0.0183 -0.1022  0.3521
18431W        W37285  17.197   0.881  12.694 -0.0414 -0.2361 -0.0488
18432W        W37286   7.975  14.129   1.404  0.0003 -0.2445 -0.1692
18433W        W37287   5.999  10.493   3.395 -0.2192 -0.2005  0.0910
18434W        W37288   7.066  10.479  16.041  0.0656 -0.2656 -0.0213
18435W        W37289  12.566   1.194   1.116 -0.1719  0.1168  0.2087
18436W        W37290  12.058  15.842  11.721  0.0069  0.1868  0.0441
18437W        W37291  10.159   3.877  13.918  0.0427 -0.0033  0.0086
18438W        W37292   8.439   3.628  12.096 -0.0726  0.1157  0.3223
18439W        W37293  11.811  10.604   4.010  0.3753  0.0680  0.1713
18440W        W37294  12.177   1.529   3.473  0.0658 -0.0156  0.1802
18441W        W37295   9.075   1.040   3.860  0.1881  0.1005 -0.1252
18442W        W37296  15.345   3.922   1.197 -0.0157 -0.0438 -0.1334
18443W        W37297   1.751  14.661  13.838 -0.0944  0.3457  0.0503
18444W        W37298   8.181  13.842   3.022  0.1063  0.0934  0.1512
18445W        W37299   8.447   0.205  12.145  0.1526 -0.0177  0.2721
18446W        W37300  13.261  14.961   0.576  0.1181  0.1702  0.0288
18447W        W37301   7.154  13.626  12.129  0.1106 -0.0780  0.1587
18448W        W37302  15.919  14.048   4.434  0.2659  0.2204  0.3067
18449W        W37303  11.363  14.677  15.153 -0.1804  0.3837  0.0385
18450W        W37304  17.774   5.154  14.778  0.1669  0.0827 -0.1819
18451W        W37305  14.870   3.943  11.982  0.0757 -0.0012 -0.0171
18452W        W37306  12.269  11.677   4.904  0.2997 -0.0190  0.1891
18453W        W37307   1.136   0.315   1.477  0.1767  0.0874 -0.2397
18454W        W37308  17.614  17.013   0.313 -0.3084  0.1529 -0.4176
18455W        W37309   9.043  10.718  14.774  0.0277  0.1231 -0.0285
18456W        W37310   8.607  10.806  13.684  0.0375 -0.2009 -0.0130
18457W        W37311   6.985   0.074  15.894 -0.0762  0.1085 -0.1023
18458W        W37312   1.348   3.714   1.637  0.0855 -0.0003 -0.0008
18459W        W37313  15.643   6.862   4.371 -0.1629  0.2349  0.4301
18460W        W37314   5.099   5.910   0.240 -0.0054 -0.2743 -0.2619
18461W        W37315  14.682  13.605  15.949 -0.0305 -0.1612  0.1865
18462W        W37316  14.773  15.945  14.169 -0.0612  0.2435  0.2013
18463W        W37317  13.833   8.809   2.670  0.1290 -0.3670 -0.1277
18464W        W37318  15.078   5.494   2.487  0.1077 -0.1384 -0.2293
18465W        W37319   2.179   0.166  14.017 -0.1918  0.1977  0.0144
18466W        W37320  11.077   0.596  14.657  0.0229 -0.4244 -0.0379
18467W        W37321   0.507   5.717  12.008 -0.1535 -0.3486 -0.0732
18468W        W37322  14.730   8.821  11.832  0.1597 -0.2584  0.0934
18469W        W37323   6.766  17.519  13.966  0.1521  0.1420  0.1968
18470W        W37324   9.875   4.605  13.603  0.2937 -0.3158 -0.2993
18471W        W37325  12.254  10.700   3.819  0.0535  0.0183  0.2779
18472W        W37326  12.156  17.948  12.711 -0.1735 -0.0195  0.1760
18473W        W37327  13.044  13.557   4.706  0.1860 -0.0828 -0.2269
18474W        W37328  14.027  17.488  16.014 -0.1438  0.0155 -0.2513
18475W        W37329   0.594   5.749   0.400 -0.1815  0.1986  0.0710
18476W        W37330   6.847   9.488   0.252 -0.1261  0.0617 -0.0968
18477W        W37331  10.603   0.928   1.505  0.2125 -0.0678  0.1140
18478W        W37332  10.988   9.820  14.666  0.1937 -0.0776 -0.2950
18479W        W37333  12.986  14.404   4.206 -0.0790 -0.1912  0.2098
18480W        W37334  15.114  16.789  13.667 -0.2147 -0.1258  0.0575
18481W        W37335  16.093   8.727  16.044  0.2539  0.2763  0.1218
18482W        W37336   8.906   0.983   1.998 -0.0199  0.1603 -0.3736
18483W        W37337  15.787  13.240   4.413 -0.1349 -0.1062  0.2691
18484W        W37338   0.451   2.198  14.551  0.2106 -0.2720  0.3066
18485W        W37339  17.752   5.492  11.274  0.2465 -0.2558 -0.0058
18486W        W37340   1.756  11.097   2.049 -0.0347 -0.0989 -0.4274
18487W        W37341  17.042   0.646   0.809 -0.2030  0.2231  0.2886
18488W        W37342   5.229   0.878  11.717 -0.2349 -0.2070 -0.0232
18489W        W37343  12.030   7.121   4.710 -0.1694  0.0244  0.2003
18490W        W37344  13.139  11.674   1.022  0.2043  0.0285  0.0554
18491W        W37345   1.262  13.163  13.287  0.1226 -0.1358 -0.1934
18492W        W37346   4.300   2.606   2.405  0.2544  0.1257  0.0772
18493W        W37347  15.123   8.494  13.255 -0.1477 -0.0211  0.1294
18494W        W37348   0.945  14.591  14.411 -0.1345  0.2254 -0.0030
18495W        W37349   8.985   0.906  15.481 -0.0690 -0.0569  0.0084
18496W        W37350  16.189  15.357   0.239  0.0194  0.1935 -0.0685
18497W        W37351  16.729   5.444  13.358 -0.2767 -0.0177 -0.0273
18498W        W37352  12.625   3.753  15.997  0.0963  0.1666  0.0736
18499W        W37353   3.235   3.285  14.612  0.1934 -0.1006 -0.0483
18500W        W37354   8.469   6.087  12.549  0.0911 -0.0934  0.0102
18501W        W37355   2.611  14.590   1.775 -0.0157  0.0595  0.0753
18502W        W37356  10.021   4.908   1.384  0.1769  0.1932 -0.1140
18503W        W37357  13.052   2.776  15.514 -0.0935  0.0148 -0.2162
18504W        W37358  11.435  15.296   0.071 -0.1688 -0.1254 -0.1067
18505W        W37359  12.390   7.954  13.091 -0.0224 -0.1041  0.0584
18506W        W37360  10.660   6.589  13.183 -0.0943 -0.1273  0.2763
18507W        W37361  12.607  17.023   2.284  0.0003 -0.0641  0.1980
18508W        W37362   4.017   9.843   2.070 -0.3150  0.0009  0.0157
18509W        W37363   7.347   4.941   3.011 -0.0421  0.1295  0.2860
18510W        W37364  17.921   5.776   0.690  0.4380 -0.3133 -0.1604
18511W        W37365  11.237   6.770  15.042  0.1332  0.1147 -0.0740
18512W        W37366   5.612   0.555  13.621  0.0949 -0.0342  0.0555
18513W        W37367  17.616   9.796  15.323 -0.2624  0.0337 -0.0566
18514W        W37368  16.227   9.480  13.071 -0.0539  0.0170 -0.0670
18515W        W37369  16.689  11.530  12.673 -0.0323  0.1133  0.1235
18516W        W37370   7.583   9.097   3.346  0.3245 -0.0026 -0.0510
18517W        W37371  14.537   5.892  14.703 -0.0478 -0.1596 -0.1308
18518W        W37372  15.699  15.430  14.412 -0.0442 -0.1046  0.2527
18519W        W37373   3.232   7.211  13.845 -0.2162 -0.2608  0.0592
18520W        W37374  12.887   5.291   4.169 -0.1374 -0.3411  0.1742
18521W        W37375  11.156   2.031  13.207  0.2177  0.1435 -0.1239
18522W        W37376   1.205  10.637  15.354  0.3126 -0.2928  0.0866
18523W        W37377   9.788   2.221   0.414 -0.0182 -0.0114 -0.1911
18524W        W37378   5.486  11.640  11.611  0.2481  0.2829  0.1551
18525W        W37379  13.677   1.899   3.150 -0.0561  0.0526  0.0016
18526W        W37380   5.481  17.487  15.324  0.0547  0.0739 -0.0815
18527W        W37381  15.990  17.739   1.961 -0.0673  0.0359 -0.0957
18528W        W37382  14.890  12.986   1.692 -0.0189  0.2081  0.0002
18529W        W37383   2.325   9.297  14.620  0.0817 -0.1356  0.0112
18530W        W37384  12.332  17.262   4.739 -0.2131  0.2163  0.0368
18531W        W37385   9.185   4.211   1.884  0.2063 -0.4087  0.3305
18532W        W37386   5.845  11.268  11.491  0.2425  0.0181 -0.2260
18533W        W37387   0.843  12.743   3.502  0.4387  0.0476  0.0165
18534W        W37388   4.602   5.533  13.789 -0.4134 -0.1664  0.0196
18535W        W37389  16.158  11.816   5.049 -0.1484  0.1461  0.0632
18536W        W37390  17.021  16.751  14.225 -0.4040 -0.1208  0.0762
18537W        W37391   5.996   5.650   4.682  0.0923  0.1627  0.1356
18538W        W37392   5.763  11.852   4.042  0.0188  0.0364  0.1453
18539W        W37393   2.604   2.020  16.196  0.3627 -0.0034 -0.2580
18540W        W37394   7.468   1.144  14.795 -0.0755  0.0607  0.0465
18541W        W37395   6.467  14.597   3.932  0.1930 -0.1346  0.1001
18542W        W37396  17.011  14.376   1.538  0.0778 -0.0970  0.0638
18543W        W37397   7.603  15.571   1.233  0.1767 -0.1659  0.1262
18544W        W37398  10.111   2.509  12.755  0.0484 -0.1017  0.0876
18545W        W37399   9.358  14.548  15.622  0.0335  0.0795  0.0401
18546W        W37400  14.928  16.893  12.014 -0.0970 -0.0837  0.2532
18547W        W37401   8.959   4.867  11.602  0.0163  0.0758  0.0763
18548W        W37402   6.133  11.262  13.785  0.0887  0.1261  0.2069
18549W        W37403  16.236  12.875   4.410 -0.1303 -0.0440  0.1556
18550W        W37404  17.331   6.592  16.150  0.3335  0.1350  0.1947
18551W        W37405  16.088  15.397   4.528  0.1623 -0.0137  0.1966
18552W        W37406  16.023  11.221   0.286  0.0783 -0.3226 -0.2404
18553W        W37407  14.321  16.371  11.893  0.0049  0.1954 -0.3474
18554W        W37408  11.825   9.525  10.630  0.1817 -0.2588  0.1869
18555W        W37409   4.423  10.912  13.433  0.2120  0.1622  0.2041
18556W        W37410   4.901   5.231   3.988  0.0999  0.5272  0.0636
18557W        W37411  15.046   7.395  13.367  0.1562 -0.2625  0.0910
18558W        W37412   5.408   5.228   3.987  0.1523 -0.1973 -0.2956
18559W        W37413  17.372   1.623   0.825 -0.0188  0.0870 -0.0577
18560W        W37414  14.057   9.064   3.106 -0.2072 -0.1302  0.1399
18561W        W37415  14.299   5.910   0.609 -0.0138  0.2960 -0.1185
18562W        W37416   2.126   1.829   3.190 -0.0724  0.1937  0.0871
18563W        W37417   2.616  17.570  12.464 -0.1217  0.2468 -0.0984
18564W        W37418   5.223  17.782   3.280  0.1952 -0.0352 -0.3354
18565W        W37419  11.364  14.767  11.601  0.0171 -0.2736  0.0033
18566W        W37420  17.920  17.922  12.428 -0.1813  0.0124 -0.2820
18567W        W37421  14.355   6.490  15.143  0.1293  0.0342  0.5137
18568W        W37422   0.242   9.713  14.750 -0.3869  0.0707  0.0092
18569W        W37423   6.651  14.887   0.294  0.1166 -0.0821 -0.0332
18570W        W37424  13.612  17.826   2.967 -0.4584  0.1327 -0.2832
18571W        W37425  15.913   9.511  11.565  0.0027  0.1963 -0.1524
18572W        W37426   2.858   7.804  12.806 -0.2022 -0.0171  0.1070
18573W        W37427   5.792  12.281   2.417 -0.2410 -0.1173 -0.2728
18574W        W37428   6.885   4.238   0.926 -0.0994 -0.0208 -0.1064
18575W        W37429   5.359   7.721   0.484  0.1499  0.3168 -0.0111
18576W        W37430   8.761   1.748   2.545 -0.2070  0.1999  0.0205
18577W        W37431   6.693  16.394  13.265  0.1634 -0.0426 -0.0325
18578W        W37432  14.901  10.418  13.525  0.0440 -0.0099 -0.0021
18579W        W37433  11.381   7.549  15.855 -0.2663  0.0397  0.0409
18580W        W37434  17.885   7.336  12.619  0.0333  0.0165  0.1312
18581W        W37435   1.191  17.491  15.066  0.0452 -0.0406  0.0433
18582W        W37436   4.995   8.035   2.425 -0.0839 -0.1641 -0.0072
18583W        W37437  11.821  17.713   3.378 -0.1622 -0.1393  0.2454
18584W        W37438   3.827  17.496   2.108 -0.1827  0.2456 -0.0577
18585W        W37439  12.228  14.813  14.518  0.0867 -0.1219 -0.0613
18586W        W37440  14.306  14.235  12.427 -0.1793  0.1478 -0.3974
18587W        W37441  11.101  16.004   3.228  0.0058  0.0910  0.0522
18588W        W37442   9.594   0.904   4.624  0.0742 -0.1572  0.3675
18589W        W37443   3.490   6.407   0.231  0.0716  0.2104 -0.2867
18590W        W37444  12.110  15.164   3.193  0.0620 -0.0758 -0.1737
18591W        W37445   4.193   0.862  12.859  0.0979  0.0093  0.1632
18592W        W37446   4.030  11.355  12.638  0.2443 -0.0543 -0.0295
18593W        W37447   8.536  14.711   3.067  0.3074  0.2084  0.0891
18594W        W37448  10.072   8.421  12.769  0.0666  0.0521  0.1333
18595W        W37449  13.344   4.375   0.655 -0.5158  0.1784 -0.0040
18596W        W37450   9.798   5.455  15.407  0.0681 -0.0164  0.2419
18597W        W37451  10.709  14.918  13.394 -0.0978  0.0776  0.1357
18598W        W37452  15.499   8.777  13.014  0.0760  0.1292  0.1841
18599W        W37453  16.602   7.202  13.481  0.0158 -0.1026  0.1681
18600W        W37454   3.553  17.108  15.100 -0.0314 -0.3313 -0.0576
18601W        W37455  17.081  14.975   3.480  0.1164  0.2220 -0.0681
18602W        W37456   9.617   7.981   5.000 -0.0284  0.0969 -0.3156
18603W        W37457  14.405  10.627   4.454 -0.3080  0.1523  0.1595
18604W        W37458  14.025   8.538  13.783  0.0254 -0.3389  0.0934
18605W        W37459  13.206  14.016   2.527 -0.1701 -0.0774 -0.1285
18606W        W37460  17.301   2.462   4.390 -0.0646 -0.2019 -0.2306
18607W        W37461   9.149  10.202  13.118  0.0955  0.0489 -0.0510
18608W        W37462  15.095   8.543   4.745 -0.2082 -0.1012 -0.0316
18609W        W37463   6.077  16.347  14.906 -0.0184  0.1460  0.1951
18610W        W37464  15.518   1.921  14.546 -0.1757  0.0124 -0.1625
18611W        W37465   0.302  15.400   2.733  0.1072 -0.1100 -0.0585
18612W        W37466  10.573   3.244  13.964 -0.2394 -0.2106 -0.0042
18613W        W37467   8.297   8.287  13.028  0.2729  0.0020  0.0153
18614W        W37468   3.633   6.807  14.495  0.2982  0.0343 -0.3601
18615W        W37469   2.422  12.915  15.431 -0.0289 -0.0260 -0.1809
18616W        W37470   8.043   4.033  16.002 -0.0664  0.2377 -0.0046
18617W        W37471  16.524  12.455  12.656 -0.2027 -0.1284 -0.0319
18618W        W37472   7.891   3.896   4.894 -0.0721 -0.1700  0.3238
18619W        W37473   1.065   7.483  15.314  0.1380  0.0211  0.1100
18620W        W37474  16.271  16.753   1.557  0.0577 -0.1410  0.1487
18621W        W37475   4.454   8.517  13.943 -0.1636  0.1212  0.2486
18622W        W37476  13.740   8.009  15.259 -0.3800 -0.2975  0.1887
18623W        W37477   9.620   5.631   0.587 -0.0458 -0.1277  0.1140
18624W        W37478   9.743  15.198   0.541  0.4552  0.0840  0.0699
18625W        W37479   8.215   7.394  16.008 -0.1523  0.4306 -0.1368
18626W        W37480  10.661  16.664  16.196 -0.3007 -0.2110  0.1081
18627W        W37481   3.099   4.408   3.081  0.1252  0.0984  0.4813
18628W        W37482   1.486   1.457   4.860 -0.2882 -0.0912  0.3514
18629W        W37483   0.214   2.163  11.644 -0.0853 -0.1029  0.0330
18630W        W37484   3.873  12.491  14.570 -0.2458 -0.1203  0.2417
18631W        W37485   6.523   9.487   4.928  0.1579  0.1520 -0.0153
18632W        W37486   5.509   9.722  11.857 -0.2011 -0.3039  0.1549
18633W        W37487  15.423   1.126   1.733 -0.1159  0.0401  0.1279
18634W        W37488  14.851  14.220   0.394 -0.1148 -0.4955  0.1548
18635W        W37489   0.041   6.835  11.082  0.1414 -0.1435  0.0996
18636W        W37490   5.096  15.360   0.379  0.0906  0.3543 -0.2657
18637W        W37491   5.122  11.554   1.909  0.2060  0.1405  0.1951
18638W        W37492  13.899   0.890   2.854 -0.0487  0.0567 -0.1899
18639W        W37493  15.258   4.724   2.244  0.0824 -0.0507 -0.2204
18640W        W37494   4.475  14.956  10.664 -0.0191 -0.0183  0.0351
18641W        W37495  13.492   7.160   3.479 -0.1825  0.2284 -0.2711
18642W        W37496   8.770   9.779  12.742  0.2882  0.0595  0.0135
18643W        W37497  11.927  15.515  15.383  0.0013  0.1024 -0.1734
18644W        W37498  11.340   7.849   0.095 -0.0181 -0.1025  0.0767
18645W        W37499   0.088  11.988   1.398 -0.0909  0.3615  0.1573
18646W        W37500   3.797   6.106   3.369  0.1461 -0.0879  0.0815
18647W        W37501  14.266  16.026   4.510 -0.1943  0.3301 -0.1603
18648W        W37502  18.021   5.619   3.957 -0.0739 -0.0948  0.5002
18649W        W37503   8.591  10.983   2.012 -0.2895  0.2023  0.3108
18650W        W37504   6.019   5.813  13.191  0.1132  0.2129  0.0326
18651W        W37505  12.467   8.993   2.338 -0.0742  0.0326  0.1262
18652W        W37506  17.139   7.505  15.274  0.1716 -0.0167 -0.0022
18653W        W37507  17.058  17.954   3.726  0.0922 -0.1230  0.1956
18654W        W37508  17.926   0.569  14.959  0.2619  0.1849  0.3165
18655W        W37509  15.818  10.819   0.468 -0.2584 -0.0631  0.1332
18656W        W37510   2.499   6.069   0.424  0.0017  0.0405 -0.0719
18657W        W37511   5.581  15.676  13.313 -0.3462 -0.1436 -0.1629
18658W        W37512   8.052   9.090   2.460  0.3100 -0.0686  0.0343
18659W        W37513  16.728   7.923   3.743  0.0874 -0.1255 -0.1564
18660W        W37514  15.529   9.639  14.772 -0.0812  0.0417 -0.0815
18661W        W37515   7.029  13.694  15.448 -0.3002  0.1245 -0.1014
18662W        W37516   9.342   3.918  11.925  0.2079 -0.1048  0.0386
18663W        W37517   9.398   7.059  15.589 -0.1418 -0.1421  0.1800
18664W        W37518   0.433  15.746  14.027  0.0821  0.2213  0.1861
18665W        W37519   1.386  16.030   4.633  0.0232 -0.1289 -0.3085
18666W        W37520   9.970  17.446  13.281  0.1153  0.0838  0.1918
18667W        W37521   1.276   0.503   0.519  0.0976  0.1061  0.0935
18668W        W37522  13.253   2.175  16.130  0.1498 -0.0803  0.2812
18669W        W37523   6.022   5.799  12.283  0.1085 -0.0776  0.1449
18670W        W37524   2.582  15.348   1.346  0.4010 -0.0293 -0.0376
18671W        W37525   0.210  11.225   0.340 -0.1234  0.2016 -0.3552
18672W        W37526  11.581   7.689  14.968  0.1683  0.2736  0.0421
18673W        W37527   4.379   6.755   3.137 -0.3373 -0.0822 -0.2481
18674W        W37528  16.318  13.677   2.507 -0.0213 -0.1091 -0.0560
18675W        W37529   8.213  14.261  15.030  0.1001  0.0536 -0.0188
18676W        W37530  15.074  10.596   0.954 -0.0990 -0.1601  0.1063
18677W        W37531  15.066   8.416  11.628  0.3328  0.2480  0.4781
18678W        W37532   9.507  16.941   2.534  0.0786  0.0310 -0.1376
18679W        W37533  10.061   6.937   2.253 -0.1568 -0.0808 -0.1140
18680W        W37534   2.280   7.126   0.431 -0.0058  0.1618 -0.0184
18681W        W37535   1.567  14.977   3.055  0.0108  0.0004 -0.0868
18682W        W37536  15.939  13.704  15.539 -0.0343 -0.3827  0.1628
18683W        W37537  16.715   2.192  14.724 -0.0265 -0.2959 -0.1174
18684W        W37538   2.156   4.772   5.532  0.1936 -0.0961  0.0268
18685W        W37539   7.380   0.791  13.110 -0.0941  0.5181 -0.0928
18686W        W37540   6.604   4.179   3.552 -0.0458  0.1731  0.0877
18687W        W37541  17.317  14.350  12.914 -0.0253 -0.2783  0.1165
18688W        W37542   8.671   8.511   0.823  0.1651  0.1866 -0.1380
18689W        W37543   8.177  17.330   1.390  0.0541 -0.0478 -0.1157
18690W        W37544  13.683  15.336  14.286 -0.0213 -0.2952  0.0022
18691W        W37545  17.075   3.876  12.011 -0.4694  0.1552 -0.0337
18692W        W37546   7.032   6.936  10.385 -0.0544 -0.0495  0.1441
18693W        W37547   6.751   7.153  14.589 -0.0834 -0.1139  0.0295
18694W        W37548   7.062   6.117  14.762  0.0317 -0.2254 -0.1627
18695W        W37549   2.462   0.972  12.912 -0.3142 -0.1466  0.2082
18696W        W37550  14.901   1.763  13.754 -0.0434 -0.2592 -0.0386
18697W        W37551  13.793  16.844   0.292 -0.1098  0.2231 -0.3067
18698W        W37552   6.106  15.251   4.764 -0.3768 -0.3138  0.0076
18699W        W37553   9.155   0.865   1.612 -0.1663  0.3723  0.0116
18700W        W37554   8.521  12.211  11.994 -0.1262 -0.0931  0.0250
18701W        W37555  10.230   0.520  12.629 -0.1470  0.2092  0.0101
18702W        W37556   5.188   9.021   2.156  0.0146 -0.1638  0.0554
18703W        W37557   2.629  10.544  12.433 -0.2091 -0.3324  0.0195
18704W        W37558  10.605  11.784   4.287  0.1805  0.2664 -0.0952
18705W        W37559   6.922   7.748   1.905  0.0246  0.0022  0.1311
18706W        W37560   2.950   5.164   3.404  0.3576  0.1136  0.0412
18707W        W37561  14.589  15.003  14.651  0.0746  0.1067 -0.2523
18708W        W37562   9.175  17.299  16.181 -0.1336 -0.1577  0.0055
18709W        W37563   7.016   2.622  11.412 -0.0956  0.1164  0.1346
18710W        W37564   5.343  10.972   3.015  0.0531 -0.0328  0.2647
18711W        W37565   1.648  13.180   3.943  0.2904  0.3446 -0.2909
18712W        W37566  11.018   5.003   5.008 -0.1763  0.1443  0.1770
18713W        W37567   5.834  10.618  12.688  0.1088 -0.3634  0.0028
18714W        W37568   8.489  11.716  14.815 -0.0588 -0.0793  0.0055
18715W        W37569  11.696  10.711   1.226 -0.2112 -0.1764  0.0441
18716W        W37570  11.409   3.280  10.895  0.1358 -0.0958 -0.1153
18717W        W37571   2.975  15.010   3.579 -0.0028  0.1674  0.4173
18718W        W37572  10.946  16.399  12.331 -0.0065 -0.2854  0.2513
18719W        W37573  16.829   4.975   2.384  0.1670  0.0087 -0.0497
18720W        W37574   9.909   4.997   3.803  0.0866  0.0290  0.2225
18721W        W37575   8.513   8.584  11.451 -0.0339 -0.2586  0.3634
18722W        W37576  13.031  17.250   1.837 -0.0068  0.1105 -0.1072
18723W        W37577   7.125  11.652  11.491 -0.1792  0.1515  0.1284
18724W        W37578  11.253   2.036  15.670 -0.1130  0.1642  0.0516
18725W        W37579   5.623  10.450  15.182  0.1573  0.1835  0.0394
18726W        W37580   0.855   6.949  15.088 -0.0425  0.0519 -0.2726
18727W        W37581   3.446   6.082   2.498  0.4048  0.0204 -0.0972
18728W        W37582  12.347  11.253  14.718 -0.0744 -0.3161  0.2525
18729W        W37583  11.008  11.164  11.089 -0.2898  0.0630  0.1015
18730W        W37584   9.007   0.721   5.068  0.0888  0.3307  0.0377
18731W        W37585   7.681  16.805   4.943 -0.0543 -0.0688 -0.1739
18732W        W37586  14.767   6.499   3.174 -0.3510 -0.1361  0.2009
18733W        W37587   1.693   4.438  10.956  0.2580  0.0389  0.0093
18734W        W37588   2.804  15.290  15.911  0.4610  0.0787  0.1610
18735W        W37589   9.953   7.362   4.409 -0.3642 -0.1938  0.2298
18736W        W37590   4.813  14.597   2.161  0.0637  0.1964  0.0033
18737W        W37591  10.358   4.458   0.728  0.1824  0.0322  0.2238
18738W        W37592  17.548   3.855  14.374  0.0071 -0.2433 -0.2334
18739W        W37593  11.937   8.124  12.764 -0.1648 -0.2923 -0.1382
18740W        W37594  16.152  10.568  13.799 -0.0758 -0.2040  0.1614
18741W        W37595   9.242  15.646   3.127 -0.2687  0.0576 -0.1273
18742W        W37596  10.521  12.507  13.831 -0.0659  0.0395  0.4040
18743W        W37597  11.829  12.699   4.896 -0.2286  0.1410 -0.3688
18744W        W37598   1.770   8.115   4.261 -0.0851  0.1323  0.1205
18745W        W37599  15.917   4.685   2.630  0.2337  0.0895 -0.1821
18746W        W37600   2.302   0.903   3.302  0.1064  0.3022 -0.1571
18747W        W37601  10.219   5.135  14.117 -0.3278  0.2773 -0.1915
18748W        W37602   4.389   2.804   3.284  0.0873 -0.1512 -0.0235
18749W        W37603   8.237   4.300   4.666  0.0805  0.1371  0.1348
18750W        W37604  14.559  14.128  16.199 -0.1525  0.2717  0.1883
18751W        W37605   8.478  13.247  12.584  0.0222 -0.2046  0.1395
18752W        W37606   5.386  14.545   5.527 -0.0225 -0.1069 -0.1333
18753W        W37607  12.554  11.129  15.914 -0.6072 -0.0183 -0.0653
18754W        W37608  17.748   1.734   4.035  0.2694 -0.0127  0.0282
18755W        W37609  12.157  15.519  12.866 -0.2199  0.2512  0.1609
18756W        W37610  15.259   7.886   0.487 -0.1534  0.1405 -0.0992
18757W        W37611  11.196   5.617  12.194  0.1412 -0.0224 -0.0841
18758W        W37612  11.924   2.213  11.726  0.0826 -0.0828  0.1561
18759W        W37613   3.328  17.550   6.157  0.0666  0.1548  0.1465
18760W        W37614   3.431  12.786  15.181  0.0844 -0.0132  0.0731
18761W        W37615   4.279   8.251   1.896 -0.2050  0.0827 -0.1735
18762W        W37616   3.207   1.753   3.503 -0.1097  0.2139 -0.0386
18763W        W37617   1.196   0.790   3.434 -0.2845  0.2433  0.0921
18764W        W37618  11.260  15.614   1.800  0.0347 -0.1134 -0.0360
18765W        W37619  13.481   4.992   4.754  0.2326  0.2059 -0.2545
18766W        W37620   9.195  11.194  16.100 -0.0482 -0.0063  0.0040
18767W        W37621  13.295  10.085  13.930  0.1531 -0.2423 -0.0163
18768W        W37622   2.320   4.893  15.930  0.0806  0.1473 -0.0661
18769W        W37623  14.505   3.496   1.253 -0.1661 -0.0892  0.1820
18770W        W37624   5.802   3.472   1.547  0.2940  0.1654 -0.1062
18771W        W37625  15.387  14.699  12.806  0.0878  0.0398 -0.0648
18772W        W37626  10.676  10.665  15.887 -0.2369  0.0509  0.0614
18773W        W37627   2.098  13.416   4.228 -0.0928  0.2045 -0.0286
18774W        W37628  11.883   3.077   4.017  0.1442  0.1057 -0.1018
18775W        W37629  15.501   8.816  16.197 -0.2810 -0.0202  0.0927
18776W        W37630   0.035   4.992  15.891  0.0592 -0.0260 -0.0129
18777W        W37631  11.561  11.299   0.167 -0.1002  0.1403  0.1779
18778W        W37632   1.577  11.570  11.893  0.2343 -0.0083  0.3318
18779W        W37633  17.992  13.716   2.005  0.0480  0.0990  0.1631
18780W        W37634  13.756  10.244   2.756  0.2198  0.0305  0.0525
18781W        W37635   4.306  14.606   1.237  0.0416 -0.5925  0.1461
18782W        W37636  14.149   7.137   3.970  0.0619 -0.1742 -0.0250
18783W        W37637   8.041   2.805   0.603 -0.1382  0.3353  0.0055
18784W        W37638  13.558   0.423   2.932 -0.2660 -0.2352 -0.0534
18785W        W37639  13.898   7.305   1.501  0.1781  0.1139 -0.2117
18786W        W37640   1.386   8.711   2.562  0.0854  0.1950 -0.2871
18787W        W37641  17.795   1.640  12.980 -0.0204 -0.0166 -0.0326
18788W        W37642   4.358  11.572  11.339  0.1466 -0.0860 -0.1009
18789W        W37643   8.263   8.156  14.244  0.0161  0.0059 -0.2732
18790W        W37644  17.057   5.835  13.729 -0.1342  0.0317 -0.1921
18791W        W37645  14.602  10.072  13.348 -0.1886 -0.0457 -0.0700
18792W        W37646   9.878   5.638  15.895  0.4290  0.2656 -0.1267
18793W        W37647  16.468   2.730   4.237  0.1940  0.2208  0.0701
18794W        W37648  10.274  16.495   3.481 -0.2588  0.0117 -0.1816
18795W        W37649   7.798   5.856   4.239 -0.0895  0.0858  0.0316
18796W        W37650  17.657  16.259  15.485 -0.2948 -0.3217 -0.0757
18797W        W37651  17.220  13.499  14.693  0.0219  0.0407 -0.1991
18798W        W37652   4.911  14.356  12.044  0.2411 -0.2175 -0.2225
18799W        W37653   5.753  17.185  11.631  0.0231  0.1966  0.1902
18800W        W37654   1.962  15.945  15.056 -0.0272  0.1152 -0.0677
18801W        W37655   3.609  17.375  12.354  0.4089  0.0069  0.0416
18802W        W37656  14.850   4.654   0.847 -0.0268 -0.0022 -0.1146
18803W        W37657  13.668   6.496   3.886 -0.1107  0.1029  0.1342
18804W        W37658  10.608  17.411   4.324  0.1827 -0.0778 -0.1217
18805W        W37659  10.933   2.999   2.207  0.2161 -0.2480 -0.0029
18806W        W37660  12.619  13.530   3.813 -0.0698 -0.0297 -0.2423
18807W        W37661  16.885  12.261  15.902  0.1241  0.0436  0.3583
18808W        W37662  13.568  14.460  15.357 -0.0214  0.0206  0.0007
18809W        W37663   7.129  16.136   2.658 -0.1147 -0.0261 -0.1339
18810W        W37664  15.025  14.172  15.599 -0.0125  0.0061  0.1377
18811W        W37665   4.046   0.950  13.301  0.2237  0.1200  0.1253
18812W        W37666   7.935   9.476   3.183 -0.3142  0.0716 -0.1607
18813W        W37667   8.476   1.998   3.884 -0.2286  0.0360 -0.1653
18814W        W37668  15.030   2.082  14.152  0.2419 -0.0139  0.1060
18815W        W37669   3.350   2.855   4.474  0.1234  0.2151  0.1584
18816W        W37670  15.390   0.388  13.190  0.3190 -0.1134  0.0162
18817W        W37671  17.255  12.409   2.946  0.3160  0.0167  0.1744
18818W        W37672   1.164  12.180  14.107 -0.0303 -0.0856  0.1369
18819W        W37673  15.837  12.619  15.988  0.1193 -0.1327 -0.1242
18820W        W37674   3.407   6.991   1.290 -0.0707  0.0228  0.0728
18821W        W37675  10.994   1.078   2.883 -0.0691  0.2080  0.2207
18822W        W37676   1.514   8.709  15.559 -0.0824 -0.2396 -0.5013
18823W        W37677   6.111  12.820   1.346 -0.0227  0.1480 -0.0578
18824W        W37678   7.057  10.707   4.769  0.3148  0.2501 -0.0143
18825W        W37679  10.329  15.307  11.491  0.0655 -0.0902 -0.2204
18826W        W37680  16.791  12.453   3.213  0.0183  0.0574  0.0486
18827W        W37681   8.991   0.892  14.955 -0.3646 -0.0824 -0.2465
18828W        W37682   6.747   0.620  14.802 -0.0285  0.0461  0.2004
18829W        W37683   1.567  15.952  13.417  0.1207 -0.0158  0.1193
18830W        W37684   4.402  17.536   2.119  0.0899  0.3430  0.0589
18831W        W37685  16.577  14.453  14.599  0.1733  0.3532 -0.0370
18832W        W37686   9.339   9.257  12.837  0.3167  0.2551  0.1383
18833W        W37687   6.125  16.064  14.450  0.0537  0.0525 -0.0567
18834W        W37688  16.512   3.130   4.589 -0.0327  0.0736  0.1440
18835W        W37689  14.672   6.429   3.706  0.0030 -0.1305  0.0400
18836W        W37690   4.849   2.083  12.694  0.1584  0.0949 -0.3691
18837W        W37691  11.067   3.796   0.522 -0.1497  0.2558 -0.3493
18838W        W37692   9.256  13.918  11.820  0.0312 -0.0389  0.3053
18839W        W37693  15.944   1.518   2.410 -0.0042 -0.1255 -0.1561
18840W        W37694  11.263  14.178   2.097  0.0527 -0.0932 -0.2223
18841W        W37695   4.660  12.370   1.390 -0.4695  0.2229  0.1417
18842W        W37696  13.741   1.623  12.203  0.1759  0.1563  0.0710
18843W        W37697   5.324   3.909  13.895  0.2430  0.0551 -0.1435
18844W        W37698  10.403   0.743  15.903 -0.0147  0.3837 -0.0726
18845W        W37699   2.717  14.180   3.185  0.1512 -0.3166 -0.0941
18846W        W37700  13.885   4.139   1.839  0.0138  0.0960  0.1353
18847W        W37701   8.409  15.551  11.837 -0.2279  0.2369 -0.0507
18848W        W37702   7.552  14.275  14.839  0.0853 -0.0145 -0.0376
18849W        W37703   1.676   6.710  15.442  0.0276 -0.0647 -0.1921
18850W        W37704  14.477   8.571   4.042 -0.0517  0.2808  0.0051
18851W        W37705   9.717   1.246   1.551 -0.1340 -0.2719  0.0213
18852W        W37706  17.439   6.904   1.508  0.1490 -0.3148  0.0174
18853W        W37707   1.427  17.777   2.714  0.1047  0.1007 -0.1953
18854W        W37708  14.150  12.806   4.944  0.0677  0.3809 -0.0708
18855W        W37709   4.412   5.120  14.847  0.3306  0.1307 -0.0479
18856W        W37710  15.394  12.938  15.514 -0.2374  0.1480 -0.2054
18857W        W37711   0.421   5.733   0.877  0.0272 -0.0555  0.0570
18858W        W37712   6.910   2.380  13.010  0.6280 -0.0886  0.0751
18859W        W37713   2.079  15.098  10.939  0.0334 -0.4831  0.1451
18860W        W37714   4.019   2.311  13.151 -0.2660  0.2529  0.1294
18861W        W37715   3.595  17.543   0.362  0.0333  0.0549 -0.0223
18862W        W37716  13.346  17.174  15.553  0.0746  0.1899  0.2134
18863W        W37717  10.106  11.378   0.779 -0.2280  0.2844  0.1168
18864W        W37718   0.613   0.203   4.538 -0.1001 -0.4131  0.3443
18865W        W37719   5.838   5.964   2.638  0.1224  0.2226 -0.2942
18866W        W37720   1.042   5.585   3.584 -0.2988 -0.1812  0.3312
18867W        W37721   5.997   4.174   0.313 -0.1563 -0.2088 -0.1055
18868W        W37722   9.485  13.184   1.494  0.1573  0.1102 -0.2721
18869W        W37723  10.422  10.387  15.110  0.2511  0.2295 -0.0136
18870W        W37724   4.427   4.077  13.893 -0.1251 -0.1679 -0.1102
18871W        W37725   3.398  11.500  14.744 -0.1320  0.1265 -0.1552
18872W        W37726  17.227   7.091  15.516  0.0449 -0.1411 -0.2582
18873W        W37727   3.778  13.981  14.817  0.0160 -0.3453  0.4417
18874W        W37728  17.193   1.979   2.170 -0.0427 -0.1578 -0.5518
18875W        W37729   7.974  14.455  11.234 -0.1214 -0.0967  0.0839
18876W        W37730   7.119   2.065   3.239  0.1912  0.0467  0.2912
18877W        W37731   6.241   2.507  16.062 -0.0997 -0.3123 -0.1887
18878W        W37732   9.408   3.085  14.794  0.1190  0.0728  0.1805
18879W        W37733  12.536   9.724  12.390  0.0081  0.2153 -0.0042
18880W        W37734  15.434   2.433  13.282  0.2436  0.2005 -0.1571
18881W        W37735   3.229   9.246   1.633 -0.0216  0.3220  0.0556
18882W        W37736  10.470   0.351   3.774 -0.2960  0.0037 -0.1700
18883W        W37737   5.218   3.283  15.971 -0.1926  0.0243  0.0444
18884W        W37738  13.392  15.933   2.135  0.1338 -0.1299 -0.0054
18885W        W37739  17.024   1.351   1.180  0.2129 -0.0124 -0.1859
18886W        W37740  16.222   7.583  13.261 -0.0410  0.0354  0.1637
18887W        W37741   0.116  11.378  14.941  0.1054  0.0184  0.1980
18888W        W37742  14.044   5.002  14.973  0.1684  0.2394  0.0238
18889W        W37743   5.715   4.545  14.943 -0.2743  0.0315  0.1528
18890W        W37744  13.384  11.816   1.476 -0.1759  0.3860  0.2479
18891W        W37745   5.748   6.412   2.297  0.0541 -0.0263  0.1367
18892W        W37746  11.510   8.137  15.312  0.1113  0.0410 -0.1323
18893W        W37747   9.056   7.824  14.716  0.0474 -0.2789 -0.0913
18894W        W37748  15.424  17.605  13.712 -0.0514 -0.1973 -0.1197
18895W        W37749   3.698   7.635   3.680 -0.1152 -0.1028 -0.2083
18896W        W37750   8.035   0.857  13.092 -0.1079 -0.1490 -0.2346
18897W        W37751   8.476  10.848   2.591 -0.0147 -0.0349 -0.0211
18898W        W37752   5.272   3.458  14.037  0.1633 -0.1893  0.0455
18899W        W37753  11.388  10.916   0.419 -0.1900 -0.0436 -0.2457
18900W        W37754  16.413  11.854   2.007  0.0873  0.1049  0.1164
18901W        W37755   4.512  14.794  16.054 -0.0243 -0.3751  0.2268
18902W        W37756  17.347   1.494   2.475  0.2708 -0.1519  0.0913
18903W        W37757  13.705  11.346   3.855  0.1985  0.2199  0.1865
18904W        W37758  12.191   5.665   2.622 -0.0778  0.0338 -0.1051
18905W        W37759   1.249   6.230   0.894 -0.0063 -0.2654  0.0635
18906W        W37760   8.739   3.028  15.461  0.0623  0.0223  0.0041
18907W        W37761   6.560  17.135   1.413  0.4629 -0.2444 -0.0636
18908W        W37762   3.730   7.885  13.676  0.0189  0.0572  0.1207
18909W        W37763  15.111   0.077   1.611 -0.0576 -0.0065  0.1273
18910W        W37764   4.847  16.900   0.375 -0.0056  0.1220 -0.1699
18911W        W37765   8.050  11.358  15.439  0.0743 -0.1743  0.2141
18912W        W37766   1.283   7.399  13.414  0.0708  0.0484 -0.0346
18913W        W37767   0.405   0.290  12.727  0.1315  0.0577  0.1729
18914W        W37768  13.691   5.716   2.339  0.0054 -0.4646  0.1717
18915W        W37769   1.352  11.793   3.793  0.1982  0.3488  0.1174
18916W        W37770  10.703  13.010   2.778  0.3198  0.0584 -0.2441
18917W        W37771  12.713  14.654   3.862 -0.1248 -0.0082 -0.1643
18918W        W37772   6.778  11.826  15.665  0.2803 -0.0650 -0.0865
18919W        W37773  15.114   4.272   2.429  0.1650  0.3497 -0.1687
18920W        W37774  13.846   3.432  15.638 -0.0338 -0.2527  0.2890
18921W        W37775   5.366   1.630   0.119  0.1510  0.4138 -0.0999
18922W        W37776   3.477  11.683  14.280  0.2088  0.2712  0.0732
18923W        W37777  11.969  15.165   1.247  0.2129  0.0140 -0.1375
18924W        W37778  16.206  15.839   5.427  0.1721 -0.2801  0.0534
18925W        W37779  11.265   4.944   5.425 -0.0306 -0.0673  0.0919
18926W        W37780   2.801   4.322  15.314  0.0326  0.0655  0.2953
18927W        W37781   7.530   3.725   2.177  0.3149  0.0068 -0.1860
18928W        W37782   7.939   3.719   1.176  0.0074 -0.3236  0.0613
18929W        W37783  17.792  11.340   0.499  0.0153  0.2102  0.1128
18930W        W37784  11.549   5.971  12.073  0.2711  0.0494 -0.1187
18931W        W37785   1.362  12.250   1.146 -0.0075 -0.0100 -0.0984
18932W        W37786   1.428  16.986   3.306  0.2512 -0.0577 -0.1576
18933W        W37787  14.059   1.699   3.449 -0.2214 -0.2843  0.2443
18934W        W37788  12.630  10.264  15.587 -0.0318  0.2289 -0.1867
18935W        W37789   8.120  15.688   1.308  0.2731  0.4000 -0.0795
18936W        W37790   1.152  12.913  14.675 -0.4516 -0.1914 -0.0921
18937W        W37791  15.432  15.866   0.972 -0.2006 -0.1173  0.1696
18938W        W37792   8.421  14.424  15.874  0.0030 -0.1211 -0.0252
18939W        W37793  16.413   8.828   2.140 -0.0833 -0.1550 -0.3294
18940W        W37794  11.575   3.402  12.745 -0.1880 -0.0554  0.2406
18941W        W37795   0.975   4.893  13.882 -0.1193 -0.2468  0.1656
18942W        W37796   2.553  14.822   0.751  0.1281  0.0875 -0.0719
18943W        W37797  14.975   6.338  13.603 -0.1895  0.1062  0.1214
18944W        W37798   3.501   6.404   4.591 -0.2345  0.1165 -0.1684
18945W        W37799  12.831  10.301   4.623 -0.0982  0.0852 -0.4854
18946W        W37800  15.058  17.250   4.991 -0.2346 -0.0354 -0.1029
18947W        W37801  16.803  14.228  14.169 -0.1221 -0.1157 -0.1139
18948W        W37802  11.290  16.244   4.357  0.0254  0.2661 -0.0845
18949W        W37803  12.227   4.680  12.257 -0.2602 -0.0024  0.2633
18950W        W37804   6.637   1.580   1.094  0.2426 -0.0546  0.0789
18951W        W37805  16.547   0.100  13.733  0.0817  0.0690 -0.0199
18952W        W37806   5.950  17.110  12.890 -0.2760 -0.1830 -0.1049
18953W        W37807   0.118  12.946   3.986 -0.2258 -0.0202  0.0983
18954W        W37808  12.742  10.316   0.389 -0.0503  0.1228 -0.0994
18955W        W37809  15.061   1.427   3.614  0.0938  0.1608 -0.0391
18956W        W37810   1.467   3.746   0.660 -0.0274 -0.1075  0.3862
18957W        W37811  13.692   1.150   1.582 -0.2229  0.1530  0.1306
18958W        W37812  13.735   4.657   0.907  0.0996 -0.4640 -0.1097
18959W        W37813  13.109   6.386  11.983  0.0625 -0.2760 -0.0096
18960W        W37814   5.400  14.057  11.502  0.1945 -0.0273 -0.0606
18961W        W37815   3.243   4.115   1.088 -0.2237  0.3216  0.3478
18962W        W37816  16.081   2.832   4.576 -0.0590  0.1677 -0.1724
18963W        W37817   2.527   1.014   5.266 -0.2333  0.0766  0.2449
18964W        W37818   0.939  11.480  14.316 -0.0985 -0.1159  0.2658
18965W        W37819  10.700   9.701   1.934 -0.1551  0.0737  0.1684
18966W        W37820   6.423   5.965   5.907  0.1969 -0.1393 -0.2051
18967W        W37821   0.987   5.789   0.679  0.1317 -0.0456 -0.1650
18968W        W37822   2.179   3.624  11.992  0.5033 -0.0435  0.1261
18969W        W37823   4.768  13.176   1.122  0.0393  0.0717  0.2712
18970W        W37824   6.428   5.279   1.929  0.0899 -0.0768 -0.0738
18971W        W37825   6.948  14.851   4.908 -0.1478  0.2457 -0.2769
18972W        W37826  17.823   4.371   3.830  0.1050  0.0910  0.1437
18973W        W37827  13.737   7.716  11.866  0.0058  0.2190 -0.0327
18974W        W37828   5.046  14.050   1.377  0.2458  0.1433  0.2091
18975W        W37829  14.283  12.496   2.109 -0.0133  0.0444  0.0118
18976W        W37830  12.923  13.239   2.497 -0.1631  0.0667  0.2510
18977W        W37831   6.165  11.832   0.369 -0.1779 -0.3502 -0.0353
18978W        W37832  13.623  14.918  15.048 -0.0360 -0.0809 -0.1985
18979W        W37833   4.228  10.380   1.305  0.0598 -0.1993  0.0470
18980W        W37834   7.605   8.255   2.232  0.0628 -0.1283 -0.3668
18981W        W37835   4.909   3.250  14.331 -0.1146  0.0527 -0.0406
18982W        W37836   4.189  14.325   3.294 -0.1867 -0.2108  0.0515
18983W        W37837  12.879   9.712  14.890 -0.1434 -0.0723 -0.1235
18984W        W37838   8.442   9.996   2.407 -0.1573 -0.1331 -0.0519
18985W        W37839   0.747   2.299  12.638 -0.1085 -0.0102  0.3633
18986W        W37840  14.752  14.546  14.469  0.0422  0.0655 -0.2738
18987W        W37841   5.601  17.501   3.280 -0.1541 -0.0288  0.0559
18988W        W37842  13.206   5.302  12.780  0.0012 -0.0157  0.0985
18989W        W37843  13.206   6.008  14.419 -0.0146 -0.0803  0.0671
18990W        W37844   9.629   6.214  14.485  0.2159 -0.0421  0.2749
18991W        W37845  10.512  14.273  11.704  0.1346 -0.1910  0.0100
18992W        W37846   7.874   9.679   2.360 -0.2052 -0.0364 -0.1614
18993W        W37847  12.809   7.965  12.427 -0.2272 -0.0903  0.0636
18994W        W37848   1.092   4.361  11.023 -0.0935  0.3021 -0.0110
18995W        W37849  15.290  10.929  14.630 -0.1133 -0.3693 -0.0423
18996W        W37850   2.078   1.935  14.933 -0.0589  0.0234  0.2172
18997W        W37851  11.104  14.204  16.199  0.0493 -0.0597  0.0731
18998W        W37852  12.178  17.664  14.099 -0.2608 -0.1838  0.0766
18999W        W37853   7.558   8.824   1.185  0.1268 -0.0027 -0.1814
19000W        W37854  13.365  10.780  11.342 -0.0617  0.1469 -0.0164
19001W        W37855  11.984  16.799   0.860  0.0272  0.5352  0.0039
19002W        W37856   1.099   1.666   0.019 -0.3115  0.0594 -0.1024
19003W        W37857  17.335  17.722   4.052 -0.0528  0.2328 -0.3133
19004W        W37858  10.529  16.784  13.521 -0.2236 -0.0204 -0.0338
19005W        W37859  15.557  14.722  15.376  0.2826 -0.0568 -0.3349
19006W        W37860   2.671  16.632   0.888 -0.0260 -0.1196 -0.0624
19007W        W37861  17.370  11.554   2.954 -0.0555 -0.1624  0.3143
19008W        W37862   3.018   5.868  14.547  0.1504 -0.0933  0.2180
19009W        W37863  13.865   9.579   3.107  0.2901 -0.0756 -0.3856
19010W        W37864  10.441   0.438  11.905 -0.0780 -0.0033  0.2296
19011W        W37865  16.162  17.933   3.757  0.1165  0.0544 -0.0018
19012W        W37866   1.211  11.334   0.755  0.2501  0.0022  0.3593
19013W        W37867   5.088   7.715  11.840 -0.1645 -0.3066 -0.0765
19014W        W37868   5.856   3.168   4.354 -0.0716 -0.1319  0.2352
19015W        W37869   3.176  17.686  13.164  0.5129  0.0221  0.2028
19016W        W37870  13.249  13.598  14.417 -0.0214  0.0400 -0.3930
19017W        W37871   8.744   1.307  15.715  0.1275  0.1808  0.0451
19018W        W37872   1.234  10.583  14.637  0.0589  0.1894  0.2604
19019W        W37873  16.294   5.084   2.505 -0.2604 -0.3786  0.0842
19020W        W37874  13.032   4.609  11.600  0.3312 -0.0470  0.0384
19021W        W37875  11.957   5.217   4.439 -0.0512  0.0123 -0.2596
19022W        W37876  10.426  14.697   3.557  0.1125 -0.2373  0.4647
19023W        W37877  10.789   2.892  15.319  0.1454 -0.1409  0.2457
19024W        W37878   2.268   6.530  15.359 -0.0383 -0.2549 -0.1380
19025W        W37879  12.993  13.276  15.694 -0.3671 -0.0900  0.1814
19026W        W37880   8.958  10.124  12.404 -0.1679 -0.1351 -0.0734
19027W        W37881  11.847  12.635   3.207  0.1007 -0.1123  0.2598
19028W        W37882  16.537   4.373  14.229  0.1875 -0.0205  0.2477
19029W        W37883   7.474  11.729  13.732 -0.0633 -0.0936 -0.0130
19030W        W37884   6.306   1.448  11.565  0.1548 -0.0264 -0.0819
19031W        W37885   4.098   5.816  15.333 -0.0839 -0.0866 -0.2829
19032W        W37886  15.222  14.894  14.546  0.0728 -0.2237  0.0231
19033W        W37887   3.895  11.772  13.003 -0.0542  0.1062  0.0733
19034W        W37888   3.394   1.583   2.010  0.0391  0.1466 -0.1705
19035W        W37889  10.696   3.483   1.508 -0.2550 -0.5628 -0.4541
19036W        W37890   8.456   9.535   5.492 -0.2480  0.0529  0.2284
19037W        W37891  13.056   5.037  16.000 -0.1535  0.0974 -0.1757
19038W        W37892  16.245  10.484  15.722  0.0229 -0.3093 -0.6109
19039W        W37893   3.411   2.780   1.421 -0.0119 -0.1688 -0.0425
19040W        W37894  16.782  13.733  15.788 -0.0656 -0.0521 -0.0359
19041W        W37895  12.318   2.072  12.467  0.3937  0.1588 -0.0023
19042W        W37896   4.163   2.842   0.782 -0.0392  0.1920 -0.2283
19043W        W37897  14.185  15.338  11.486  0.1677  0.0045 -0.0003
19044W        W37898   1.566   5.816   0.825 -0.0454 -0.1663  0.2875
19045W        W37899   9.382  17.330  12.656  0.0753  0.2704  0.1322
19046W        W37900  14.554   5.775   0.176 -0.0230 -0.3031  0.5749
19047W        W37901  11.046   5.429  13.595 -0.0141  0.1214 -0.0225
19048W        W37902   4.210  13.547  14.983 -0.1802  0.3257 -0.1306
19049W        W37903  13.050  13.290  15.169  0.3311 -0.0201  0.1481
19050W        W37904   7.096  16.992  11.838 -0.2370 -0.4332 -0.0138
19051W        W37905   7.941  17.747   2.937  0.0720 -0.0874  0.2528
19052W        W37906   1.895   6.858  14.431 -0.1327  0.0049  0.0835
19053W        W37907   3.346   4.457   0.609 -0.2338 -0.2253 -0.2188
19054W        W37908   2.516   1.202  15.470  0.1428 -0.1513 -0.4084
19055W        W37909   3.980  12.891  13.885 -0.2549 -0.4332 -0.2927
19056W        W37910   3.134   8.820   0.396  0.0463  0.1345 -0.3117
19057W        W37911   8.344   8.348   5.089  0.0376  0.1659 -0.3381
19058W        W37912   1.060  10.779   3.717  0.1994 -0.2158 -0.1164
19059W        W37913  14.852  12.053   0.553 -0.2342  0.0370  0.0687
19060W        W37914  12.280   2.982  12.261  0.1696  0.0837  0.2682
19061W        W37915  15.441   9.509  12.358  0.1578 -0.0236 -0.0226
19062W        W37916   8.855   8.016  15.234  0.1359  0.2442  0.1756
19063W        W37917   0.847  10.184  12.311 -0.1384  0.1267  0.0457
19064W        W37918   1.836  15.108  16.065  0.1463 -0.0235  0.1419
19065W        W37919  13.572  16.180   4.988 -0.0047  0.0726 -0.2338
19066W        W37920  11.428   5.438  13.306 -0.0425 -0.0014  0.3520
19067W        W37921  17.610   0.206  12.705  0.2954  0.0928 -0.0094
19068W        W37922  10.023  10.216  12.657 -0.0732 -0.3462 -0.0823
19069W        W37923  15.846   3.589   3.272 -0.2939  0.1737  0.0563
19070W        W37924   1.881  16.069  15.777  0.1352 -0.2268  0.2388
19071W        W37925  16.808  13.479  11.942  0.1384  0.0692 -0.1207
19072W        W37926   9.434   5.633  15.110 -0.1632  0.1787  0.2713
19073W        W37927   9.068  14.769   3.317 -0.0490 -0.1301 -0.2097
19074W        W37928   7.991   4.053  12.593 -0.1881 -0.1200 -0.3818
19075W        W37929  17.369   7.927  15.049  0.1118  0.0141 -0.3620
19076W        W37930  15.587   7.735  10.871  0.1320  0.0335 -0.3877
19077W        W37931   0.441   7.809   1.186 -0.1311 -0.2055 -0.2147
19078W        W37932   7.969   1.026   0.844 -0.1551 -0.0620  0.1929
19079W        W37933  13.231   6.622  16.021 -0.0775 -0.0973 -0.1263
19080W        W37934   6.532  12.190   4.652  0.2056 -0.0525  0.0560
19081W        W37935   5.559   9.589   0.215 -0.2940 -0.2089 -0.1723
19082W        W37936  10.735   1.533   1.209  0.1920 -0.1306 -0.0257
19083W        W37937   8.049   3.892   2.907 -0.1729 -0.1091 -0.2198
19084W        W37938  15.497   9.019   4.948  0.1349  0.0887 -0.0413
19085W        W37939  16.946  12.626  12.406  0.0715  0.0467 -0.0708
19086W        W37940  12.573   6.312   3.212 -0.0008 -0.3151  0.1726
19087W        W37941   2.996  12.589   2.872  0.0362  0.1266  0.0286
19088W        W37942  17.665   8.669  15.340  0.0771  0.1615  0.0088
19089W        W37943   6.569   0.416  15.721 -0.1712  0.0502  0.1032
19090W        W37944  14.635  16.311  14.458 -0.2135  0.1715  0.4657
19091W        W37945   4.208   7.109   5.530 -0.4006 -0.1756  0.3309
19092W        W37946   0.539   4.925  12.659  0.0270  0.1143  0.0859
19093W        W37947   0.532  11.313  14.633 -0.0459 -0.0779  0.0139
19094W        W37948  10.771   8.764  14.761  0.1860  0.2335  0.1940
19095W        W37949   3.065   1.882   1.314 -0.0104 -0.1008  0.1229
19096W        W37950  15.467   5.266  15.237  0.0118  0.0553  0.2997
19097W        W37951  16.003   0.297  11.987  0.0523  0.0753  0.0606
19098W        W37952  10.263   5.033  13.601  0.4744  0.1546 -0.2004
19099W        W37953  13.005   5.700   0.440  0.0864 -0.2110 -0.3589
19100W        W37954  14.794   7.349   2.719 -0.0384 -0.0305 -0.1232
19101W        W37955  13.732   0.175  14.746 -0.1963 -0.1241 -0.0851
19102W        W37956  14.190  17.013  16.065 -0.2055  0.0142  0.1138
19103W        W37957   8.232  12.586  15.042  0.0386 -0.2253 -0.0459
19104W        W37958   2.017   4.335  14.966  0.2770  0.0934  0.3046
19105W        W37959  15.963   3.975   3.538 -0.1162  0.1885 -0.0850
19106W        W37960   2.127  13.974  10.591  0.4492 -0.0533 -0.1443
19107W        W37961   8.799   2.830  12.744 -0.0199  0.0328 -0.0953
19108W        W37962  16.955  12.506   3.741  0.2061  0.0998 -0.1950
19109W        W37963   3.005   1.952  13.189 -0.1179 -0.0265 -0.1924
19110W        W37964   3.932   4.626   0.023 -0.3212  0.1769  0.1755
19111W        W37965  15.538   6.087   1.723  0.0084 -0.1182  0.0820
19112W        W37966  15.275  11.501   2.933 -0.1932 -0.1730 -0.2395
19113W        W37967  17.023   5.203   1.076 -0.0816  0.1994  0.4642
19114W        W37968   2.295  17.818  12.131  0.2616  0.1511 -0.0450
19115W        W37969   8.416  14.281   2.112  0.1475  0.1274 -0.3065
19116W        W37970   6.032   1.669   1.510 -0.0266  0.2661 -0.3184
19117W        W37971   0.019   6.778  13.498 -0.1130  0.1493 -0.3515
19118W        W37972   3.905  14.869   1.390  0.0989  0.0683  0.3762
19119W        W37973   4.678   1.738  15.155  0.0709 -0.2963  0.1262
19120W        W37974  15.230   3.854   0.313  0.1400 -0.0970 -0.0814
19121W        W37975  17.625   5.501  11.786 -0.3001 -0.0849 -0.0497
19122W        W37976  11.300   1.274  16.200  0.0719 -0.0474 -0.1289
19123W        W37977  11.398   5.125   1.945 -0.2747  0.0486  0.0681
19124W        W37978   9.494   5.433  14.118 -0.0429  0.0971  0.0612
19125W        W37979  11.955  13.688   4.799  0.2991 -0.1615  0.0378
19126W        W37980  14.252  13.331   3.043  0.0384 -0.1592  0.0235
19127W        W37981  16.196   2.147  11.900 -0.0878  0.3092 -0.3579
19128W        W37982  11.766  17.821  13.458  0.1723 -0.0169 -0.0370
19129W        W37983  14.913   5.915  13.892 -0.0466  0.1549  0.2090
19130W        W37984  12.839   1.262   3.951 -0.1916 -0.2723  0.2561
19131W        W37985   4.364   5.902   4.325  0.0723 -0.0831  0.0674
19132W        W37986  14.788  11.522   0.395  0.1204 -0.1029  0.0071
19133W        W37987   2.772   3.028  14.808  0.0810 -0.1362  0.1510
19134W        W37988   5.177   6.240  14.708  0.1809  0.0761  0.0402
19135W        W37989   6.576  14.309  12.722  0.1387  0.0354 -0.0285
19136W        W37990   9.936   4.607   1.785  0.0004  0.0259  0.1971
19137W        W37991   7.448   8.202  13.352  0.1612  0.0214 -0.1847
19138W        W37992  13.737   7.816   2.960 -0.0225  0.0859  0.1060
19139W        W37993   0.351   1.178  15.693  0.0106  0.3038 -0.1629
19140W        W37994  17.123   9.292  13.161 -0.0564 -0.2384  0.2258
19141W        W37995  16.785   2.640  13.060  0.0934 -0.4941 -0.2678
19142W        W37996   1.432  14.482   3.020 -0.0533 -0.1006 -0.0672
19143W        W37997   5.213  14.948   4.351 -0.3001 -0.0883 -0.1273
19144W        W37998  11.632  11.623   3.123  0.4106 -0.1509  0.0034
19145W        W37999  15.970   3.378  11.522 -0.1824 -0.2076 -0.0196
19146W        W38000   8.854   9.089   1.599 -0.2029 -0.1086 -0.1148
19147W        W38001  11.620   4.960   0.021  0.2500  0.2303 -0.1108
19148W        W38002   3.128   9.067  11.864  0.0811 -0.3660  0.2329
19149W        W38003  14.008   4.943   4.978 -0.0313 -0.2040 -0.1866
19150W        W38004   6.902  13.605  11.597 -0.2374 -0.2429  0.0091
19151W        W38005  16.769   7.720  11.787 -0.1030 -0.0738 -0.0274
19152W        W38006  17.668  15.991   4.317  0.0515 -0.0411 -0.1693
19153W        W38007   1.339   5.400   1.024  0.0778 -0.2928  0.2357
19154W        W38008  16.305   7.851   2.387 -0.0375 -0.1898  0.2086
19155W        W38009  16.519   3.408   0.521 -0.1928  0.2977 -0.0296
19156W        W38010  13.669   6.395  14.878 -0.0019  0.2460 -0.4147
19157W        W38011  12.521   5.653  11.734 -0.0397 -0.1578 -0.2854
19158W        W38012   2.593  13.044   3.469 -0.1355 -0.0513  0.2156
19159W        W38013  16.719   4.810   2.993  0.4794  0.0897  0.0972
19160W        W38014   7.614  12.778   1.533  0.1720 -0.1044 -0.6496
19161W        W38015   7.500  10.433  11.086  0.1544  0.2780  0.2135
19162W        W38016   8.855   1.729  14.430  0.2519 -0.2031 -0.1223
19163W        W38017  14.387   7.956   0.464  0.2467 -0.0594  0.0237
19164W        W38018   4.719  14.537   2.709 -0.2053 -0.2721 -0.1199
19165W        W38019  11.584  15.178  11.489  0.0688  0.4137  0.2023
19166W        W38020   2.914   6.773   3.432 -0.1009  0.0171  0.3769
19167W        W38021   7.801   3.322   1.488  0.0484  0.1993 -0.0657
19168W        W38022   7.920   0.119  13.820  0.0711  0.3259 -0.6108
19169W        W38023  12.814   7.282   0.011  0.1982 -0.0054 -0.1776
19170W        W38024   6.241   6.941   2.894  0.1490  0.0121  0.0566
19171W        W38025  14.174  14.822   4.076 -0.1132 -0.1357  0.3674
19172W        W38026   8.262   0.954   4.044  0.2509  0.0796 -0.4655
19173W        W38027   2.372   7.912  14.890  0.1766 -0.2086 -0.0188
19174W        W38028  15.162   6.335  15.006  0.3315 -0.0790 -0.0813
19175W        W38029  15.892  17.452  13.586  0.0051 -0.0728  0.1408
19176W        W38030  12.595  10.233  11.499  0.0974 -0.1464  0.1459
19177W        W38031  11.201   0.747   2.059  0.0442 -0.2039  0.1460
19178W        W38032  10.806   4.004  15.667 -0.2318 -0.1648  0.0756
19179W        W38033  17.290  17.646   0.819 -0.0658 -0.1405  0.0792
19180W        W38034   3.031   6.437   2.524 -0.0679  0.2624  0.1072
19181W        W38035   2.135  17.380  13.565  0.2138  0.0162  0.1859
19182W        W38036   3.176   7.244  11.149  0.0332  0.1715  0.0733
19183W        W38037  15.181   9.976   4.753 -0.2080 -0.0917 -0.1618
19184W        W38038   5.773   4.281  11.554  0.2433 -0.0714  0.0048
19185W        W38039  14.891   2.274   5.428  0.0810  0.1902 -0.0738
19186W        W38040  12.506   7.582   2.501  0.0496 -0.3232  0.0922
19187W        W38041  14.288  11.543   3.161  0.0190 -0.2933  0.0933
19188W        W38042   4.820   5.883  12.854  0.2716  0.0453  0.2723
19189W        W38043  11.100  16.719  15.484  0.1177  0.0096 -0.2976
19190W        W38044   1.540   6.616  11.876  0.0477 -0.0339 -0.0063
19191W        W38045   5.763   3.533  15.170  0.2920 -0.0082  0.0416
19192W        W38046   1.133   1.745  14.776  0.1695 -0.0552  0.1373
19193W        W38047   6.866   6.779   3.463 -0.0268  0.1269 -0.2010
19194W        W38048  16.448  12.187  15.592 -0.0701 -0.1835 -0.0798
19195W        W38049  13.538   7.837  13.241  0.0197  0.1549 -0.3103
19196W        W38050   9.598   1.385  14.929  0.0365  0.0979  0.1009
19197W        W38051   3.623  11.160  14.152  0.1483  0.3000  0.1040
19198W        W38052   1.874   9.538  14.691 -0.3017  0.1051  0.3932
19199W        W38053  16.801   5.611  12.875 -0.1374  0.0761  0.0583
19200W        W38054  16.030   4.630  14.578  0.2972 -0.0678  0.2234
19201W        W38055   1.423   1.362  14.670  0.2558 -0.0353 -0.0504
19202W        W38056   9.264   8.141  15.574 -0.0486 -0.2878  0.0268
19203W        W38057   5.188   4.664   2.562  0.0989 -0.2043 -0.1926
19204W        W38058  11.516  17.052  11.958  0.0202 -0.1686 -0.0179
19205W        W38059   7.954   2.007   4.119  0.0558 -0.1809  0.0440
19206W        W38060  14.821   1.651   1.121 -0.2561 -0.1981 -0.0219
19207W        W38061  12.639   8.619  15.009 -0.0853  0.0010 -0.0470
19208W        W38062   2.096  12.235  14.831  0.0883  0.1166 -0.1845
19209W        W38063  15.653  14.934   1.619 -0.2627  0.1768  0.1283
19210W        W38064  11.244   2.351  12.315  0.2466 -0.2459  0.0110
19211W        W38065  14.385   5.118  13.530  0.2008  0.1764 -0.2476
19212W        W38066   6.498   0.216  16.184 -0.0810  0.1419 -0.2800
19213W        W38067   1.944   5.559  15.340 -0.1413  0.0957 -0.0408
19214W        W38068   5.275   4.594  11.470 -0.2358 -0.1763 -0.0227
19215W        W38069  15.157   6.380  16.097 -0.0145  0.1169  0.0022
19216W        W38070   1.771   3.953  12.310 -0.1089 -0.1590  0.1070
19217W        W38071   5.988   2.368   4.720  0.0195  0.0674  0.3675
19218W        W38072   9.668  13.680   5.136 -0.0527  0.0916 -0.2237
19219W        W38073   8.532  11.239   4.759 -0.2206  0.1922  0.0297
19220W        W38074   4.916  16.056  15.193  0.1562 -0.0262 -0.0413
19221W        W38075  16.382  12.304  10.848  0.0371 -0.1076  0.1086
19222W        W38076   8.122   3.999  14.254  0.1209  0.1690 -0.3062
19223W        W38077  15.520  11.934  14.356  0.0321 -0.1152 -0.3130
19224W        W38078   2.037   2.634  11.936  0.0693 -0.2205  0.0180
19225W        W38079   5.521  12.141  15.864 -0.1633 -0.2410 -0.0502
19226W        W38080  11.001   1.730   1.632  0.0309 -0.0234 -0.1582
19227W        W38081   8.877  17.557   2.195  0.0575 -0.0775 -0.0933
19228W        W38082  12.812   2.212  10.684 -0.2180  0.0643  0.0097
19229W        W38083   9.342   1.763  15.314  0.1542  0.0026 -0.0635
19230W        W38084  17.239   8.766   0.525 -0.1377  0.0562 -0.2158
19231W        W38085   9.291  13.473  14.618 -0.5158  0.1182 -0.0924
19232W        W38086   8.126  10.534  12.429  0.0944  0.1180  0.0388
19233W        W38087   4.954   4.527  12.394 -0.0115 -0.0705  0.1273
19234W        W38088   2.402  11.422   3.193  0.0060 -0.2386 -0.0772
19235W        W38089   5.091   5.091  14.450 -0.1802  0.0942  0.1175
19236W        W38090   9.752  11.437  13.936  0.0227  0.2150  0.0898
19237W        W38091  15.925   5.799  14.591 -0.0813  0.0924 -0.2369
19238W        W38092  17.136  16.552   1.811 -0.1916  0.0129 -0.0118
19239W        W38093  12.460   9.018  15.575  0.0182 -0.3032 -0.2705
19240W        W38094  12.448  12.163   4.758  0.0128  0.1503  0.1454
19241W        W38095  16.159   1.986  14.832 -0.1100 -0.3268 -0.3290
19242W        W38096  11.313   4.430   3.572  0.1458 -0.3144  0.1075
19243W        W38097   0.689   1.143  15.297 -0.2464 -0.2076  0.0381
19244W        W38098  18.020  14.904   2.664  0.1742 -0.3435  0.0866
19245W        W38099  18.040  17.999   1.605 -0.0806  0.2618 -0.0195
19246W        W38100   4.686   4.961  16.211 -0.1886  0.0694  0.2418
19247W        W38101  14.695  11.668  15.634  0.0571  0.1302 -0.3464
19248W        W38102  12.428   8.448   4.030 -0.1188  0.1419  0.3708
19249W        W38103   1.523  13.261   4.447  0.1752 -0.0596  0.1028
19250W        W38104  15.027  14.696   0.489 -0.2741  0.1110 -0.3807
19251W        W38105  12.681  13.503  12.775  0.3351  0.0946  0.0177
19252W        W38106   4.173   3.900  15.440  0.1527 -0.1200  0.0229
19253W        W38107  10.259   4.665  13.911  0.0721 -0.1734 -0.0882
19254W        W38108   3.253   5.779  12.621  0.0375  0.0004 -0.0876
19255W        W38109  14.981  11.593   2.072  0.0576 -0.1179  0.0774
19256W        W38110  17.619   6.494   3.690 -0.2757  0.2800 -0.0321
19257W        W38111  14.769   7.937  15.126  0.0487 -0.0483  0.1228
19258W        W38112  15.209   6.969   0.553  0.0356  0.0637 -0.0463
19259W        W38113  16.123   8.507  13.731 -0.1108 -0.2034  0.0992
19260W        W38114  12.109   7.048  14.987  0.2334 -0.0884  0.1073
19261W        W38115   4.161   5.582  15.816 -0.1369 -0.0491  0.0232
19262W        W38116  15.596   3.609   0.151  0.3291  0.0468  0.1240
19263W        W38117   3.353   5.632  15.627  0.2609  0.0812  0.1031
19264W        W38118   2.744   6.586   2.954  0.1201  0.1739 -0.2004
19265W        W38119   7.444   2.331   0.073  0.1034  0.0480 -0.2758
19266W        W38120   2.253   1.378   3.185 -0.1157  0.0798 -0.2751
19267W        W38121   9.832  11.567   2.268 -0.1314 -0.0898  0.0798
19268W        W38122   1.542  11.917   3.232  0.2876 -0.0298  0.2035
19269W        W38123  15.733   2.366   4.517  0.2357  0.2065 -0.0062
19270W        W38124   6.913  11.718   3.514 -0.4065  0.0195  0.0115
19271W        W38125   4.902  17.623  15.144 -0.1190 -0.1939  0.0992
19272W        W38126  10.696   7.114  11.710 -0.2828  0.0975  0.0182
19273W        W38127   5.263   9.420   2.989  0.1286  0.2749 -0.2221
19274W        W38128   2.329   8.506   4.695 -0.2131 -0.0407 -0.0761
19275W        W38129  15.561  12.928  11.780 -0.2399 -0.0650  0.4216
19276W        W38130  17.199  13.352   0.120 -0.1161  0.0205 -0.5156
19277W        W38131   8.454   1.496   3.438  0.0219 -0.3394  0.2257
19278W        W38132   5.874   7.942   0.517  0.0101  0.0678 -0.2855
19279W        W38133   4.596  14.646  13.980  0.1736 -0.0906  0.0614
19280W        W38134  10.720  14.426   1.387 -0.2659  0.0371 -0.1146
19281W        W38135   1.783   5.636  15.945  0.0913  0.0163  0.1754
19282W        W38136  13.370   6.706  15.536  0.1695  0.0051  0.0978
19283W        W38137  11.166  11.822   2.905  0.0071  0.0359  0.1290
19284W        W38138  16.416  10.714  14.182 -0.1204 -0.1982 -0.0737
19285W        W38139   2.290  16.242  12.939 -0.4280  0.4725 -0.0341
19286W        W38140   8.608   8.521  12.676 -0.1692 -0.2328  0.3444
19287W        W38141  12.278  13.819   3.452  0.0262 -0.1960  0.0039
19288W        W38142   9.604   2.976   4.530  0.2719 -0.2312 -0.3058
19289W        W38143   0.275   2.401  12.337  0.1668  0.1325  0.1754
19290W        W38144  11.180  15.111  11.961 -0.1103  0.3024  0.0730
19291W        W38145   1.695   0.992  14.420 -0.2217  0.0812  0.4424
19292W        W38146  11.595  16.254  16.075 -0.2474  0.2267  0.1884
19293W        W38147  10.803  10.759  11.943 -0.1275  0.0926 -0.0371
19294W        W38148  14.397   9.823   4.393  0.0071  0.1418 -0.1512
19295W        W38149   9.146   5.024   2.755 -0.0058  0.1418 -0.0620
19296W        W38150  11.821  11.404  12.181 -0.1701  0.4158 -0.1523
19297W        W38151   5.424  17.968   0.434 -0.3573 -0.1980 -0.2407
19298W        W38152  16.947  11.849  14.840  0.1653  0.1267  0.1259
19299W        W38153   5.558  10.251  14.708 -0.0851 -0.0990 -0.0289
19300W        W38154  11.911  17.552   2.564  0.6456  0.0840  0.1240
19301W        W38155  14.018  17.873   4.820  0.1993  0.1146  0.0658
19302W        W38156  16.604  10.114   0.279  0.1459  0.1925  0.2148
19303W        W38157  15.239   9.513  13.451  0.0978  0.1171 -0.0061
19304W        W38158  13.729   3.495  14.948  0.1114  0.2081  0.1379
19305W        W38159   0.689  14.256  14.748 -0.1840 -0.0386 -0.0126
19306W        W38160   0.196   8.236   3.914  0.1086 -0.1414 -0.1338
19307W        W38161  14.790   6.671   1.670 -0.3146 -0.1192  0.0556
19308W        W38162  14.732  12.103   1.235  0.0411 -0.2266 -0.0886
19309W        W38163   9.717   7.985  15.855  0.1585  0.0910  0.3288
19310W        W38164   2.399   1.949  15.735 -0.0516 -0.2665  0.2828
19311W        W38165  16.243   4.172  15.636 -0.3174 -0.3041 -0.0884
19312W        W38166   9.309   6.051   0.696  0.0528 -0.3158  0.0207
19313W        W38167   7.655  13.569  12.898  0.1177  0.0256 -0.1699
19314W        W38168   7.429  13.568  15.244  0.0832 -0.0767 -0.0132
19315W        W38169   1.442   0.915  12.637 -0.0784  0.0692 -0.1853
19316W        W38170   5.549   4.680   2.895 -0.0255  0.1301  0.1953
19317W        W38171  13.880   9.900  11.806 -0.1698  0.2249  0.1338
19318W        W38172  17.953   2.725  12.413  0.0448 -0.2657 -0.0440
19319W        W38173   0.701  13.452  15.302  0.0358  0.1598  0.0629
19320W        W38174   3.546  16.280   3.644  0.1447  0.2548  0.0714
19321W        W38175   4.545   0.627  12.161  0.2117  0.1500 -0.1483
19322W        W38176   4.701   3.121   4.797  0.0274  0.3588  0.4713
19323W        W38177   1.946   6.450  13.023  0.0418 -0.4007  0.0338
19324W        W38178  17.329   1.052   0.877  0.0848  0.0026 -0.0097
19325W        W38179  13.474  12.927   1.897  0.0350  0.1562  0.0132
19326W        W38180  13.401  16.658  15.733 -0.2544  0.1027 -0.0878
19327W        W38181  13.063   5.265   4.714 -0.1761  0.0022 -0.1459
19328W        W38182   4.928   8.154   4.576 -0.0698 -0.0871 -0.1874
19329W        W38183  10.425  17.196  15.811  0.1189 -0.0134 -0.1482
19330W        W38184   9.300  13.536  10.908  0.1693 -0.2526 -0.0383
19331W        W38185   6.369  16.558  14.519 -0.1169 -0.1342  0.1832
19332W        W38186  11.833   6.746  13.868  0.2472 -0.2045  0.0528
19333W        W38187   4.373   5.240   4.202  0.0324 -0.1148 -0.0651
19334W        W38188  12.709  12.716  13.891  0.1230  0.0456  0.0633
19335W        W38189  12.883   2.609  15.089  0.1401  0.2980  0.0735
19336W        W38190   2.134  16.269   2.107  0.2394 -0.0198  0.3776
19337W        W38191   6.012   4.624  15.523  0.0650 -0.0898  0.0699
19338W        W38192  17.845   4.284  13.771  0.2783  0.4177 -0.0500
19339W        W38193  12.968   5.553   1.441  0.1344  0.1400 -0.2026
19340W        W38194  11.396   0.325   2.200  0.2155 -0.1004 -0.2634
19341W        W38195  12.497   3.870   2.761 -0.1461 -0.0446  0.0717
19342W        W38196  10.330   9.369   2.127  0.0177  0.0617  0.1515
19343W        W38197  16.192   2.812  13.821  0.4719  0.0648 -0.1117
19344W        W38198   4.047   9.163  14.249 -0.0637 -0.0557 -0.3137
19345W        W38199  13.278  12.261  14.206  0.0980 -0.1478 -0.1289
19346W        W38200   0.993  16.964   3.678  0.4512 -0.0155 -0.1445
19347W        W38201  13.197   8.990   0.474  0.2860 -0.1088  0.0148
19348W        W38202   1.448   6.150   2.982  0.0317  0.0776 -0.1062
19349W        W38203   9.100   4.637   1.190 -0.1450 -0.1081  0.0574
19350W        W38204   9.605   5.871  13.444  0.3470  0.0360  0.4734
19351W        W38205  14.557   4.076  12.875 -0.1360 -0.0270 -0.0802
19352W        W38206   9.920   3.093  13.290  0.3340  0.1966  0.0997
19353W        W38207   0.273   7.708   0.706 -0.0010  0.3231  0.0110
19354W        W38208   1.213   8.113   3.431 -0.1500 -0.1094 -0.1108
19355W        W38209   5.294   8.844  15.816  0.2448 -0.3607  0.1681
19356W        W38210   3.983  13.454   3.837  0.2232  0.0921  0.0726
19357W        W38211  14.286  13.520   2.175 -0.1885 -0.0184 -0.0699
19358W        W38212   6.525   5.510  13.058 -0.2367  0.0090 -0.1601
19359W        W38213  16.301  12.598  15.205  0.0259 -0.0136 -0.2932
19360W        W38214   1.307   7.863  11.612  0.1049 -0.0763  0.1569
19361W        W38215  13.292  15.149  15.411  0.0441  0.0112  0.0241
19362W        W38216   4.501   7.614   0.631 -0.0054  0.0188 -0.1953
19363W        W38217   1.480  16.004   0.462 -0.3373  0.2174 -0.3170
19364W        W38218  13.450   6.159   2.134  0.1925  0.0034 -0.1145
19365W        W38219  11.110   1.258   1.918 -0.0884  0.2201 -0.2711
19366W        W38220  13.949   2.296  13.858 -0.3475  0.3765  0.1295
19367W        W38221   3.058   3.886   3.132 -0.0982 -0.0590 -0.1407
19368W        W38222  13.491  15.886   0.152  0.3597  0.0799 -0.0213
19369W        W38223   7.413   9.006  14.989  0.1568 -0.0519  0.0896
19370W        W38224   7.187  10.384   0.346  0.1623 -0.1458  0.2189
19371W        W38225  16.966  16.091   0.048  0.1396  0.0682  0.2853
19372W        W38226   6.382  12.700   3.204 -0.1399 -0.1822  0.2405
19373W        W38227  13.942  16.353  15.670 -0.1033  0.2339 -0.0634
19374W        W38228  16.959   6.706  15.228 -0.1005  0.0013  0.1763
19375W        W38229   1.494  12.807   1.465 -0.0182 -0.1092 -0.0407
19376W        W38230  16.677   9.116   1.806 -0.0992  0.0403 -0.3229
19377W        W38231   1.296   3.938   3.577  0.3425  0.2046  0.1998
19378W        W38232   7.910   7.634   0.161  0.1811 -0.0185 -0.0085
19379W        W38233  16.355   2.989  15.631 -0.1965  0.0368 -0.4088
19380W        W38234  14.619   6.877  13.942  0.0513  0.2191 -0.0686
19381W        W38235  16.580   2.177  12.853 -0.1010  0.0830 -0.2144
19382W        W38236   8.359  11.274  11.736  0.1283 -0.0793 -0.3161
19383W        W38237  10.007  10.705   1.792  0.0138 -0.2285  0.2898
19384W        W38238  15.622  11.697   1.485  0.1362 -0.1682  0.1219
19385W        W38239   8.203   7.082  11.691  0.0845  0.0527 -0.1549
19386W        W38240   4.468   8.652   0.679 -0.2225 -0.1994 -0.2285
19387W        W38241  15.045  17.363  15.896 -0.0780  0.0635 -0.1511
19388W        W38242   6.890  12.713  16.088  0.0234 -0.0912  0.0181
19389W        W38243  13.280  12.888   3.842 -0.0677  0.0398  0.2530
19390W        W38244   1.514  12.085  13.223 -0.1248 -0.2175 -0.0908
19391W        W38245   3.654   0.274  12.542 -0.2004  0.3484  0.0547
19392W        W38246   2.649  10.685   4.303 -0.1056  0.0370 -0.2058
19393W        W38247   7.489   4.684  15.715  0.1325 -0.0805  0.2691
19394W        W38248   0.954   5.087  11.268 -0.0808  0.1191 -0.3083
19395W        W38249   9.673   8.064   5.520  0.3189 -0.0448 -0.0387
19396W        W38250  17.319   5.556  11.001  0.1200  0.0996 -0.1321
19397W        W38251  12.469  16.775  13.684 -0.0428 -0.2023 -0.1278
19398W        W38252   9.710  14.385   2.840 -0.0887 -0.1325 -0.0334
19399W        W38253  11.449   1.610   1.775 -0.0391  0.2113 -0.1513
19400W        W38254  10.875  10.893   1.095  0.0834 -0.3020  0.1548
19401W        W38255  14.645   1.270   2.893 -0.3350 -0.2000 -0.4154
19402W        W38256   2.335   4.578   3.975  0.1589  0.0294 -0.1715
19403W        W38257   3.761   8.984  14.602  0.3221 -0.0526  0.1055
19404W        W38258  12.578  14.087  12.381  0.2666  0.0780 -0.0487
19405W        W38259  12.270   4.619   1.744  0.1340  0.1563  0.0723
19406W        W38260  11.797   9.189   0.994  0.1511  0.1555 -0.1626
19407W        W38261  12.514  11.318   1.960  0.2052 -0.0598 -0.2855
19408W        W38262  17.106   7.297  11.693 -0.0653 -0.3296 -0.1290
19409W        W38263  12.789   0.865  11.685 -0.0584  0.3496  0.1598
19410W        W38264   4.243   6.921   0.013  0.1015 -0.1526 -0.1685
19411W        W38265   7.083  15.590   3.330 -0.1338 -0.1251  0.1098
19412W        W38266   1.317   7.368  11.445  0.1349  0.2017 -0.1619
19413W        W38267   4.626   2.822  12.489 -0.5290 -0.0378  0.1381
19414W        W38268   2.609  13.329   4.058  0.2570 -0.1317  0.3548
19415W        W38269   8.795  16.181  12.993 -0.2846  0.4056 -0.0921
19416W        W38270   5.810   3.717   2.853  0.1422  0.0465 -0.0827
19417W        W38271  12.816   8.745   4.294  0.1019 -0.0020 -0.0647
19418W        W38272  13.811   6.023   0.412 -0.0449  0.0004 -0.3848
19419W        W38273  13.877  11.909  13.066 -0.0936 -0.0099  0.1466
19420W        W38274  11.098  11.851   1.472  0.3193 -0.1790  0.1370
19421W        W38275   6.247   9.482   1.346 -0.0176  0.0500 -0.1170
19422W        W38276  13.742  16.330  11.903  0.1621  0.0771 -0.1240
19423W        W38277  13.584  15.409  15.707  0.1301  0.0979  0.1075
19424W        W38278   1.334  11.662  15.000  0.1734  0.1731  0.2023
19425W        W38279   7.170  12.230   2.851  0.1060 -0.1177  0.3012
19426W        W38280  12.002  10.679   2.222  0.0044  0.2427  0.2700
19427W        W38281  17.290   3.702  12.586  0.2573 -0.0719  0.2063
19428W        W38282  16.753  14.260  13.669  0.2582 -0.3782 -0.3495
19429W        W38283  12.138   3.716  14.925  0.4009  0.0812 -0.0395
19430W        W38284   5.060   4.910   2.070  0.0983  0.0824 -0.2331
19431W        W38285  13.992  12.987   2.186  0.0650  0.2558  0.2877
19432W        W38286   2.409   5.106   1.475 -0.1637  0.1269  0.0156
19433W        W38287   8.490   4.169  15.750  0.2452 -0.1191 -0.2666
19434W        W38288   7.227   3.529  12.670 -0.1168  0.2907 -0.1452
19435W        W38289  15.889  15.290  11.869 -0.1095 -0.0415 -0.2478
19436W        W38290  13.629   8.804  11.037 -0.0513  0.0602  0.0176
19437W        W38291   3.220   0.367   5.018  0.1038 -0.0855  0.0361
19438W        W38292   6.119  17.709   0.821  0.1080 -0.0509 -0.2803
19439W        W38293   7.289   6.863   2.062 -0.0275 -0.0434 -0.0098
19440W        W38294  13.738   6.823  13.440 -0.0313 -0.0601  0.0672
19441W        W38295   5.686   4.175   3.113  0.1952  0.0151 -0.0347
19442W        W38296  17.616   8.329  10.940 -0.0178 -0.3965  0.0542
19443W        W38297  14.872  10.886  13.237 -0.0521 -0.2314 -0.0768
19444W        W38298  10.057   3.451   3.939  0.1107 -0.2421  0.0902
19445W        W38299  13.414  14.819   4.344  0.0449  0.1377  0.0003
19446W        W38300  11.612   7.296  14.280  0.1724 -0.1712 -0.2190
19447W        W38301  11.599  13.448  15.387 -0.0087 -0.1004 -0.0786
19448W        W38302  12.779  12.547   1.900  0.1131  0.0250 -0.0542
19449W        W38303  11.836   4.736   0.447 -0.2031 -0.0832 -0.1027
19450W        W38304  10.995  10.428  12.651 -0.1742  0.2796  0.1432
19451W        W38305   1.555   0.947   4.899 -0.0625  0.1578 -0.1426
19452W        W38306   9.461   6.282  12.603  0.0480  0.0839 -0.1846
19453W        W38307   7.419   5.811  13.011 -0.1846  0.3677  0.1575
19454W        W38308  10.642   9.976  11.379 -0.2965  0.0252 -0.0343
19455W        W38309  17.396   6.170  12.426  0.2012  0.1820 -0.3556
19456W        W38310   2.084  10.319   4.811 -0.0556 -0.1206 -0.2489
19457W        W38311   2.749   7.775   4.172  0.1496 -0.2267 -0.1100
19458W        W38312   9.169   2.820   1.219  0.0526 -0.0195  0.0938
19459W        W38313  11.976   4.165   0.335 -0.1120  0.1771 -0.1474
19460W        W38314   9.833  13.430   2.535 -0.1928 -0.0664  0.0256
19461W        W38315   0.494   9.687   0.103 -0.1245 -0.0281 -0.0017
19462W        W38316   0.522  10.750  13.870 -0.0094  0.0004 -0.0592
19463W        W38317  17.840  12.684   4.298  0.4937 -0.0317  0.3975
19464W        W38318  10.685  15.974  12.640 -0.2223  0.0672  0.1918
19465W        W38319   5.734  13.146   0.772  0.1552  0.1888  0.0752
19466W        W38320  10.087  13.353  14.308 -0.0773 -0.1647  0.2764
19467W        W38321   9.341  14.367  15.014 -0.2201  0.1531 -0.1088
19468W        W38322  15.151   6.868  15.724  0.0516  0.0698  0.1927
19469W        W38323   5.970   7.764  14.890  0.2048  0.0754  0.1511
19470W        W38324  17.048   2.893  15.739 -0.2633  0.2152 -0.2921
19471W        W38325  14.353  12.204   1.664  0.1917 -0.0004  0.0186
19472W        W38326   0.382  14.747   4.764  0.0880 -0.1771 -0.2790
19473W        W38327   7.751  15.949  11.660 -0.2843  0.0579 -0.1029
19474W        W38328  17.348  12.028  13.176  0.0588  0.2251 -0.0647
19475W        W38329  12.265   2.806   3.960  0.1198  0.0090 -0.2179
19476W        W38330  12.634  10.035   1.605  0.0134 -0.3273  0.5485
19477W        W38331  12.602   2.603   3.610  0.0238 -0.2603  0.2840
19478W        W38332  17.757   2.125  15.559 -0.0635  0.0555 -0.1902
19479W        W38333   7.924   4.814   0.450 -0.0395 -0.2172  0.1071
19480W        W38334  17.499   2.942  14.363 -0.0655  0.2188  0.0540
19481W        W38335   6.424   0.830  12.996  0.1458 -0.3778 -0.0858
19482W        W38336   9.116  11.615  11.835 -0.2496  0.0727 -0.2453
19483W        W38337   5.668   2.072  14.034 -0.0279 -0.2264 -0.2115
19484W        W38338   1.960  10.883  11.740  0.1977 -0.1939  0.2532
19485W        W38339  14.615  13.269   4.418 -0.1965 -0.4506  0.1275
19486W        W38340  14.310   6.574  13.214 -0.1298  0.0105 -0.1180
19487W        W38341  15.668   8.036  15.970  0.1247 -0.0392  0.3218
19488W        W38342   1.191   7.160  14.790  0.2776  0.0635 -0.3049
19489W        W38343   9.318  13.745   1.077 -0.0732  0.0997  0.0152
19490W        W38344  10.489  16.058   3.733  0.0163 -0.1749 -0.0122
19491W        W38345   5.261   9.363  12.117 -0.2899 -0.1739  0.0270
19492W        W38346   9.327  17.832  12.568 -0.0852  0.0356  0.1427
19493W        W38347  15.276   9.467   2.693  0.5435  0.0753  0.2213
19494W        W38348  10.193  11.710  13.914 -0.1600  0.0536  0.1990
19495W        W38349   4.269  17.798   0.143  0.0986 -0.1309 -0.0010
19496W        W38350   8.336  14.570  13.675 -0.1183  0.0092 -0.0518
19497W        W38351   2.755  17.029  12.439 -0.0230 -0.1294 -0.1593
19498W        W38352   1.039   8.861  12.290 -0.0177 -0.1173  0.0437
19499W        W38353  10.575  14.971   2.606  0.0011  0.1077  0.1840
19500W        W38354   5.082   0.315   0.371  0.1478 -0.0519 -0.2566
19501W        W38355   2.213   1.443  15.188 -0.2410 -0.0249  0.0470
19502W        W38356   5.706  17.987   3.415 -0.1365 -0.2273 -0.2355
19503W        W38357   3.654   8.704   0.208  0.0548  0.0433  0.2199
19504W        W38358  15.918  12.775   3.312 -0.2008 -0.0918  0.0376
19505W        W38359  14.178   4.352   2.252 -0.5401 -0.3514 -0.1514
19506W        W38360   9.655   8.705   0.679 -0.3602  0.0107 -0.3349
19507W        W38361   6.219   4.959   1.549  0.3537 -0.2233 -0.2343
19508W        W38362   9.152  14.121   0.692 -0.0086 -0.0922 -0.0573
19509W        W38363   1.900   8.828   0.607 -0.1038  0.1939 -0.1668
19510W        W38364   9.489  15.713   2.188 -0.1119  0.1516 -0.0437
19511W        W38365  11.933   7.557   0.828 -0.1819 -0.2796  0.1016
19512W        W38366  10.326   8.607  14.988  0.0974 -0.2471 -0.1725
19513W        W38367   7.336   6.740  15.258  0.2298  0.2879 -0.0525
19514W        W38368   8.988  12.019  12.077  0.2924  0.0029 -0.1924
19515W        W38369   5.715  10.144   0.092  0.1310  0.1930  0.0141
19516W        W38370   1.768   4.714  16.013  0.2037 -0.2497 -0.1550
19517W        W38371   2.411   1.193   3.764  0.1161 -0.1138 -0.0735
19518W        W38372   3.499  13.280  12.020 -0.2231  0.1046 -0.1906
19519W        W38373   3.678   4.153   0.142  0.2924  0.0093 -0.1456
19520W        W38374   5.346   8.456   1.026 -0.0975  0.0466 -0.1485
19521W        W38375  13.698  13.133  12.378 -0.1322 -0.0590  0.0505
19522W        W38376   0.211   1.757   2.447 -0.0061  0.3216  0.5325
19523W        W38377   0.202   8.655  15.472 -0.2695 -0.2075  0.1424
19524W        W38378  14.355  15.951  14.677 -0.1350 -0.2500 -0.3529
19525W        W38379  12.379   9.202   4.854 -0.1156 -0.0834  0.1336
19526W        W38380   0.934  13.710   3.441 -0.1767  0.0467  0.0032
19527W        W38381   7.145  11.356  13.460 -0.1413  0.0357 -0.1419
19528W        W38382  16.248   0.624  14.173  0.0327  0.2152 -0.0791
19529W        W38383  12.427   1.586   2.630  0.2296  0.0576 -0.1573
19530W        W38384   3.846  14.156  15.271 -0.1950 -0.1427  0.2151
19531W        W38385   4.025   8.633  10.102  0.1745 -0.0375 -0.0792
19532W        W38386   5.705  14.845  13.104  0.0083  0.0667  0.2463
19533W        W38387  15.832  15.863   5.775 -0.1049 -0.2139  0.1533
19534W        W38388   5.502   8.505   3.942 -0.1338 -0.2849 -0.2278
19535W        W38389  13.476  15.194   3.998  0.0142  0.1870  0.0192
19536W        W38390  15.647   6.089  12.708  0.0398  0.0658 -0.4571
19537W        W38391  14.168  13.575  15.987 -0.0235 -0.0673 -0.0778
19538W        W38392  13.196  17.643   1.359 -0.3119  0.3920 -0.0193
19539W        W38393   4.911   5.453   0.190 -0.1685 -0.1739 -0.2029
19540W        W38394  11.882  14.636  15.312 -0.0149  0.0515  0.0759
19541W        W38395  15.807  15.163  13.750 -0.2565  0.1922 -0.0832
19542W        W38396  16.151   0.781   3.934 -0.0629 -0.2423 -0.1381
19543W        W38397   2.895   8.197  11.654  0.3674 -0.1150  0.0179
19544W        W38398   2.949  11.336  15.500 -0.0415 -0.3328 -0.2942
19545W        W38399   8.285  17.611   0.894  0.0737 -0.1674  0.0028
19546W        W38400   7.730  15.749  12.583 -0.2455 -0.0840 -0.1919
19547W        W38401   9.108   4.649   2.251  0.0357  0.1602  0.0423
19548W        W38402  11.110  14.367  12.489  0.1329 -0.0359 -0.1274
19549W        W38403   4.878   3.512  14.724  0.3191 -0.0733  0.1701
19550W        W38404  14.809   7.789   4.327  0.0017 -0.0787  0.2778
19551W        W38405   3.421   4.377  11.863  0.0689  0.0912  0.1325
19552W        W38406   5.720  12.409   2.936 -0.1778  0.0177  0.1848
19553W        W38407  13.171  10.421   2.489  0.1588  0.2297  0.0149
19554W        W38408  17.844  13.917   5.137  0.1782  0.2451 -0.1442
19555W        W38409  11.755  11.499  13.529 -0.2282 -0.2050  0.2434
19556W        W38410   7.486   8.616   2.647  0.0392  0.2359  0.0148
19557W        W38411   4.566   9.362   0.227 -0.0327  0.2931  0.3718
19558W        W38412   8.913   4.231   1.416  0.1903 -0.1434  0.1333
19559W        W38413  12.846   8.682  11.934 -0.3866 -0.2486 -0.1458
19560W        W38414   3.913   4.261  11.993  0.1710  0.2292 -0.4332
19561W        W38415  14.269  14.802  13.667  0.1502 -0.0512  0.1543
19562W        W38416   7.927   3.659  14.594  0.0954 -0.2805  0.0213
19563W        W38417   4.860  16.550  16.109 -0.4395 -0.0947  0.1470
19564W        W38418  15.823  15.019  11.060 -0.2098  0.0830  0.1165
19565W        W38419   7.099  17.269   3.778  0.0380  0.5818  0.0795
19566W        W38420   6.928   7.880   1.436 -0.5436  0.1680 -0.1280
19567W        W38421   6.344   0.580   2.876 -0.1943 -0.1894  0.3757
19568W        W38422  10.905  15.545   2.543 -0.1738  0.0960 -0.0027
19569W        W38423   3.371  10.128   3.898  0.0736 -0.0980 -0.1946
19570W        W38424   4.918  11.280  13.355  0.2924  0.4694 -0.0978
19571W        W38425   5.115   7.250  12.752  0.0663 -0.0568  0.2012
19572W        W38426   2.556   8.823   2.603  0.1604 -0.1904 -0.1667
19573W        W38427  14.968  17.062   2.080 -0.2492 -0.0460  0.0241
19574W        W38428   0.957  11.942  12.394  0.1181  0.0016 -0.2148
19575W        W38429   3.259  15.178  15.708  0.1026 -0.1939 -0.3512
19576W        W38430   7.470  15.815   0.783  0.1388 -0.2300 -0.1511
19577W        W38431  14.100   7.261  15.038  0.2982  0.2652  0.0249
19578W        W38432   1.967   6.254   2.743  0.1063 -0.2309  0.1641
19579W        W38433   5.597  14.520  12.751 -0.0701  0.1313 -0.1748
19580W        W38434  14.846   1.014   3.851 -0.1158 -0.1259  0.1547
19581W        W38435   2.816   6.985  14.004 -0.0609  0.3232 -0.0596
19582W        W38436  12.606   9.873   3.552 -0.1776  0.0007 -0.0562
19583W        W38437  17.456  16.377  13.065 -0.1302  0.2050  0.0831
19584W        W38438  16.626  12.639  13.148  0.1737 -0.0151 -0.1998
19585W        W38439   7.107  13.954  15.884 -0.0933  0.1653  0.0509
19586W        W38440  14.164   1.265   2.655  0.3006 -0.2217  0.0421
19587W        W38441  15.297   8.572  14.661  0.0918  0.0150 -0.3886
19588W        W38442   1.265   6.541  15.177  0.2266 -0.1092 -0.0326
19589W        W38443  16.199  11.311  12.855 -0.2183  0.2707  0.0876
19590W        W38444  16.818   3.035  13.745  0.1086 -0.2267 -0.1822
19591W        W38445   6.100   5.495   2.281 -0.1097  0.1162 -0.0239
19592W        W38446   3.435   7.013  10.709  0.0797  0.0098  0.0004
19593W        W38447   0.470  10.262   2.290  0.2334 -0.3892 -0.0582
19594W        W38448  16.233  11.932   2.653 -0.4367 -0.0670  0.0902
19595W        W38449  15.846  11.219   3.546  0.0798 -0.2280 -0.3604
19596W        W38450  11.960  12.974   4.501  0.0245  0.1606  0.2222
19597W        W38451   4.447   3.249  13.998 -0.1217  0.1290 -0.0950
19598W        W38452  17.269   3.821  14.847  0.0275 -0.0495  0.1026
19599W        W38453  13.813  15.957  16.007  0.0910  0.0301  0.0240
19600W        W38454   0.329  17.017  12.467 -0.2944  0.0407  0.0270
19601W        W38455   4.592  17.071   1.855 -0.2430  0.2453 -0.0790
19602W        W38456   4.105   5.045   0.196 -0.1993 -0.0729 -0.1520
19603W        W38457  10.154   3.395  14.718  0.1814  0.4071  0.1318
19604W        W38458   1.554   2.954  13.328 -0.0287  0.1297 -0.0632
19605W        W38459   5.864   8.355   2.296  0.1863 -0.4717  0.1430
19606W        W38460   6.099  13.429   5.542  0.2087  0.2473  0.0330
19607W        W38461   4.930   6.203  15.151  0.2247 -0.1125  0.2360
19608W        W38462   7.117   4.326  15.201  0.1429  0.2369 -0.1134
19609W        W38463  15.251   3.455   3.569  0.2215  0.2479  0.1654
19610W        W38464   1.350   0.258   3.491  0.2705 -0.0586  0.0564
19611W        W38465   8.515  10.053   0.355 -0.0651  0.1096 -0.2110
19612W        W38466  11.557  13.026  12.310  0.0697  0.0554  0.4440
19613W        W38467  10.200  17.975  14.778  0.0764  0.3185  0.2066
19614W        W38468  14.969   2.590  13.316  0.1270 -0.1471  0.2366
19615W        W38469   5.144  12.578   1.847 -0.1199  0.1220  0.0769
19616W        W38470  13.025  15.390  12.612 -0.0103 -0.0794 -0.1099
19617W        W38471   0.508   9.340   3.047 -0.3255  0.2210  0.1285
19618W        W38472   0.503  15.937  10.793  0.3722  0.0756 -0.2042
19619W        W38473  15.945  14.895  15.178 -0.0967 -0.2745 -0.0041
19620W        W38474   2.266  13.822   2.334  0.2195  0.1823 -0.0830
19621W        W38475   4.317  13.133  13.562  0.0497 -0.0040  0.0456
19622W        W38476  17.070   2.707   2.744 -0.0643  0.4223  0.1801
19623W        W38477   3.908   4.284  13.975  0.0896 -0.3105  0.2959
19624W        W38478  17.776  14.707   4.557  0.0219  0.1214 -0.0004
19625W        W38479   3.311  14.395  12.009  0.1953 -0.0964 -0.2297
19626W        W38480   8.202  16.792   1.323 -0.0187 -0.1873  0.0539
19627W        W38481  17.085  11.165  11.972  0.2076 -0.1791 -0.0692
19628W        W38482   1.098  13.263  16.035 -0.1652  0.1247  0.1055
19629W        W38483   4.166   8.333   3.523 -0.0067 -0.0004  0.2711
19630W        W38484  13.981   5.538   0.596  0.0058 -0.1621  0.4212
19631W        W38485   4.805   9.429   2.149 -0.1374 -0.0211  0.2097
19632W        W38486   2.159   7.880   0.210 -0.2442  0.0721  0.0304
19633W        W38487  12.386  17.717  14.879 -0.5890 -0.1295  0.0247
19634W        W38488  14.558   6.690   1.189  0.0386 -0.0569  0.0850
19635W        W38489  15.407   2.464  16.168  0.2293  0.0455 -0.0727
19636W        W38490   0.793  14.700  14.941  0.2081  0.0585  0.2470
19637W        W38491   4.795   3.170   0.047 -0.1614 -0.2453  0.2490
19638W        W38492   7.216  15.830  12.537  0.0678  0.0318 -0.0232
19639W        W38493   7.325  16.453  13.136 -0.0486  0.1469 -0.3757
19640W        W38494   6.075   7.692   4.053  0.0189  0.2576 -0.2141
19641W        W38495  12.559  11.049  13.180 -0.1423 -0.2028 -0.2020
19642W        W38496  16.360   5.703  11.126 -0.2701  0.2076  0.0146
19643W        W38497   6.071   2.582   0.838 -0.2946 -0.0904 -0.3290
19644W        W38498  15.021   2.447   3.352 -0.0762 -0.0181  0.0360
19645W        W38499   6.433   5.193  13.810 -0.0522  0.0861  0.0560
19646W        W38500  17.784   0.269   2.438  0.0922 -0.0072 -0.0838
19647W        W38501  10.549  15.453  15.903 -0.3092  0.0124  0.1414
19648W        W38502  15.488   6.201  11.026 -0.1887 -0.1087  0.1367
19649W        W38503  16.982   9.398   2.827  0.0429 -0.0065 -0.0636
19650W        W38504  10.879  17.674  14.125 -0.3521 -0.0907 -0.0570
19651W        W38505  15.333  10.375  16.009 -0.3699 -0.0850  0.1215
19652W        W38506  12.401  12.751   0.709  0.1302  0.1521  0.0169
19653W        W38507   9.512  13.800   4.143  0.2241 -0.3121  0.1104
19654W        W38508   9.986   6.599  14.422  0.0303 -0.1234  0.0239
19655W        W38509   6.833  16.739  12.311  0.0216  0.0671 -0.1727
19656W        W38510  11.879   5.111  11.656 -0.1652 -0.0100 -0.0350
19657W        W38511  15.044   8.667   4.007 -0.2623  0.1188  0.1760
19658W        W38512   6.992   2.105  12.210  0.1468  0.4664 -0.0142
19659W        W38513  11.894   2.250  13.423 -0.1451 -0.1577 -0.0933
19660W        W38514  16.522   1.751  11.281 -0.3211 -0.1296 -0.0063
19661W        W38515  15.681   6.177   0.475  0.2720 -0.2770  0.0445
19662W        W38516  17.361   8.851  13.391  0.0931  0.0617 -0.0362
19663W        W38517   5.680   1.462   4.515 -0.1263 -0.3539  0.1274
19664W        W38518  16.139   6.199  13.441 -0.1997 -0.1195  0.1138
19665W        W38519  15.124  12.702  14.178 -0.0362 -0.1937 -0.2019
19666W        W38520   6.524  13.157   3.977  0.0778  0.1178  0.0635
19667W        W38521  13.817   0.132   1.686 -0.1405  0.4519  0.1149
19668W        W38522  13.044  11.178   0.985  0.0140  0.0916  0.1002
19669W        W38523  10.249  11.574   1.951 -0.0513 -0.0971  0.0084
19670W        W38524  13.245   5.910   2.529 -0.0809 -0.1153  0.0460
19671W        W38525  12.326  11.061   4.211  0.0543 -0.2384 -0.1074
19672W        W38526  13.667   4.608   4.518  0.1128  0.0958 -0.1975
19673W        W38527  16.432  11.812   1.498  0.0701 -0.0462  0.4695
19674W        W38528  10.244   4.471   0.156  0.1741 -0.1524  0.0534
19675W        W38529  14.256  13.916   3.760  0.2164  0.1934  0.0602
19676W        W38530  14.017  11.798   0.120  0.3548  0.0856 -0.0445
19677W        W38531   6.645   1.562   0.121 -0.0385 -0.2596 -0.0421
19678W        W38532  10.089   9.714   5.154 -0.1953 -0.0211 -0.1326
19679W        W38533  16.347   6.813  13.275  0.3384  0.1265 -0.1401
19680W        W38534   7.181  16.000  14.284  0.0168  0.0783 -0.1385
19681W        W38535   4.103  10.646   0.898 -0.1830 -0.3832  0.2490
19682W        W38536   8.725  14.969  11.928  0.1447 -0.2470 -0.2017
19683W        W38537  17.478  14.284   2.380  0.1746 -0.0057 -0.1779
19684W        W38538  12.132   3.477  11.417 -0.0784 -0.0232 -0.1899
19685W        W38539  13.451   8.451   4.817  0.1884 -0.0660 -0.1325
19686W        W38540   9.397   7.002   0.343 -0.1062  0.1877  0.1443
19687W        W38541   7.115   1.443  15.032 -0.0253  0.1531  0.1711
19688W        W38542   8.424   7.350   2.472  0.2223 -0.0904 -0.3177
19689W        W38543  13.711  11.023   3.394 -0.3449 -0.0817 -0.3006
19690W        W38544  13.668  10.138  12.246 -0.5463 -0.1006  0.1776
19691W        W38545   2.896   2.653  13.554 -0.2140  0.1918 -0.0054
19692W        W38546   2.549  10.799  14.739  0.1795 -0.3843  0.1721
19693W        W38547  15.257  17.603  14.948  0.0034 -0.1441  0.0896
19694W        W38548  16.111  17.782  13.188  0.1087  0.0329  0.1071
19695W        W38549  15.775   5.542   1.447 -0.0852 -0.0487  0.3872
19696W        W38550   5.844   8.363   4.314  0.1681 -0.1984 -0.0189
19697W        W38551   8.839   9.266  12.532 -0.0417  0.0798 -0.2050
19698W        W38552   2.870   7.516  13.215  0.1236 -0.1327 -0.0290
19699W        W38553  13.608  11.308   0.243  0.2943  0.0473 -0.0879
19700W        W38554  17.921   8.065  15.109  0.0769  0.0981  0.2007
19701W        W38555  15.364   8.725   4.397  0.1224 -0.0893 -0.2084
19702W        W38556   1.535  17.016  12.157  0.1608 -0.2275 -0.0055
19703W        W38557   0.807  17.673   2.246 -0.1674 -0.0074  0.1012
19704W        W38558  11.000   5.846  13.213 -0.0580  0.0080 -0.0182
19705W        W38559  11.242   5.974   2.459  0.0636 -0.0562  0.4726
19706W        W38560   9.241   9.742  12.955  0.0299  0.1156 -0.0487
19707W        W38561   0.528   8.583   3.736 -0.0901  0.0366 -0.0573
19708W        W38562   9.285  11.828  15.336 -0.1200 -0.0194 -0.2513
19709W        W38563  17.418  11.286  10.329  0.0168 -0.0514 -0.0020
19710W        W38564   2.598   6.379  12.724  0.0966 -0.1327  0.0724
19711W        W38565   7.138   3.214  13.665  0.0830  0.3111  0.1578
19712W        W38566   9.760  10.164   4.617 -0.0111 -0.0118 -0.2528
19713W        W38567  14.290   1.287  13.884 -0.0061 -0.2276 -0.2378
19714W        W38568   1.511   7.298   0.059  0.2217 -0.1360  0.0681
19715W        W38569   3.195   7.003  14.331  0.2503  0.0194  0.1864
19716W        W38570   9.929  17.330   2.886 -0.0575 -0.4339  0.0563
19717W        W38571   3.026   6.247  12.912 -0.0015  0.1724 -0.0797
19718W        W38572  11.298   4.776   4.548 -0.0835  0.0185 -0.0498
19719W        W38573   2.379  10.996  15.546 -0.1351  0.1283 -0.1304
19720W        W38574   7.239   6.176  15.221  0.1169  0.1519  0.2982
19721W        W38575  15.788   4.284   0.354  0.0444 -0.2921  0.2768
19722W        W38576  16.651   1.219   4.567  0.2867  0.0260  0.1250
19723W        W38577  10.501   5.954  12.453 -0.0142  0.0962 -0.1172
19724W        W38578  10.933   8.869   2.678  0.3041  0.0963  0.3739
19725W        W38579   6.307   1.157   3.685 -0.0771 -0.0300  0.1744
19726W        W38580  12.193  17.106   1.838 -0.1779 -0.0810 -0.2105
19727W        W38581   8.622  17.967   3.085  0.1241  0.2165 -0.1294
19728W        W38582   7.558  12.428   0.438  0.1382 -0.1022  0.3153
19729W        W38583  16.799   8.558  14.561  0.2129 -0.1116 -0.0064
19730W        W38584  11.495  15.968  13.174 -0.0731 -0.1650 -0.2511
19731W        W38585  17.382   4.470   0.801  0.0292  0.2697  0.1332
19732W        W38586  15.464  12.187  13.195 -0.2112  0.0749 -0.4251
19733W        W38587  10.653   3.040   2.630  0.1118  0.2594 -0.0498
19734W        W38588   1.825   4.460   2.628 -0.2012  0.2384 -0.2005
19735W        W38589   4.191   2.285   2.017  0.0355 -0.0179  0.2860
19736W        W38590   8.187  12.974   4.543  0.0679  0.1135  0.2104
19737W        W38591   7.751   2.088   4.549  0.2620  0.0729 -0.2499
19738W        W38592   8.937   2.202  14.242 -0.0946 -0.0729  0.2916
19739W        W38593   0.240  14.164  13.529  0.1383  0.2570 -0.1985
19740W        W38594   3.788  17.509   4.870  0.1715  0.3176  0.1650
19741W        W38595  14.359   9.851   1.599 -0.1521  0.0852  0.0710
19742W        W38596  15.154  11.786  14.741  0.4209  0.0600  0.0002
19743W        W38597  16.234  15.728   1.492 -0.0893  0.0699 -0.2785
19744W        W38598  12.196  15.544   5.385  0.3143  0.1519  0.0215
19745W        W38599   3.464  12.197   1.657 -0.2379 -0.3292 -0.1950
19746W        W38600  10.234  12.690   1.412 -0.0711 -0.0928 -0.1189
19747W        W38601   9.468  12.792  15.067 -0.1444 -0.0415 -0.2501
19748W        W38602  14.950   9.839   0.256  0.0253 -0.2568  0.1193
19749W        W38603  13.106  15.328   1.455 -0.1667 -0.1073  0.1413
19750W        W38604   8.635   5.193   4.976 -0.2891  0.2305 -0.1035
19751W        W38605   4.355  16.565   2.549  0.0885  0.0893  0.1300
19752W        W38606   2.547  13.593   4.452  0.1728  0.3593  0.0630
19753W        W38607  16.787   5.903  11.760 -0.2859 -0.0387 -0.2452
19754W        W38608  17.720  10.300   2.003  0.0640  0.0349  0.1377
19755W        W38609  11.330  11.300   4.378  0.0583 -0.0515 -0.1029
19756W        W38610   2.652   3.846  12.230 -0.4311 -0.0215  0.0042
19757W        W38611  17.375  11.423   1.188  0.0344 -0.1162 -0.2935
19758W        W38612  13.725  17.798   2.185 -0.2340 -0.1178  0.1006
19759W        W38613  10.577  11.743   1.542  0.2255 -0.0173  0.1397
19760W        W38614   7.515   1.750  12.330 -0.2217 -0.0283  0.1035
19761W        W38615   5.086   5.318   3.098 -0.2675 -0.0069  0.0610
19762W        W38616  15.903  15.783  15.773 -0.0943  0.1164  0.1678
19763W        W38617  12.752   9.764  12.878  0.1602  0.0512 -0.0318
19764W        W38618  11.776   0.533  12.010 -0.0793  0.3501 -0.2814
19765W        W38619   4.512   4.733  12.565 -0.2381  0.0544  0.2545
19766W        W38620  17.406  12.432   4.125  0.0337 -0.2446  0.2614
19767W        W38621   9.805  12.746  15.541  0.1892 -0.0809 -0.1435
19768W        W38622  12.242   2.555  11.439 -0.0074  0.0985 -0.4148
19769W        W38623  15.978  16.900  14.793 -0.1012  0.0696  0.2383
19770W        W38624  16.044   3.309   4.734 -0.1326  0.1375  0.1538
19771W        W38625  16.250  15.761  10.499 -0.3468  0.0084  0.2205
19772W        W38626   2.586   6.396  12.123 -0.1914  0.1669 -0.2391
19773W        W38627  11.568  11.504   2.173 -0.1052 -0.1697  0.1788
19774W        W38628  11.861  11.212  12.661 -0.3009  0.1384  0.2748
19775W        W38629   7.213  16.455  12.573  0.1277 -0.4171  0.3681
19776W        W38630  18.024   4.951  14.291  0.0485  0.1399 -0.3285
19777W        W38631   9.648   5.432   3.802  0.0459 -0.0197  0.1358
19778W        W38632   4.215  10.991   3.025  0.1113 -0.2407  0.3191
19779W        W38633  12.464   6.522   2.768 -0.3713  0.2737 -0.0923
19780W        W38634  10.833   8.920  14.269 -0.2231  0.2190 -0.3889
19781W        W38635  15.536  14.866   0.621  0.1730 -0.0826 -0.1020
19782W        W38636  10.894   8.091  13.032 -0.0279 -0.3350 -0.1677
19783W        W38637  11.298   4.857  12.684 -0.1858  0.1044 -0.1138
19784W        W38638   5.538   9.849  15.979 -0.2609  0.2388  0.2159
19785W        W38639   3.766   2.264   0.120 -0.1807 -0.0928 -0.0697
19786W        W38640   1.361   5.990   0.389  0.0516 -0.1129  0.0430
19787W        W38641  10.655  17.477  14.888  0.2122  0.1512  0.1502
19788W        W38642  16.681   4.507   4.421 -0.0204 -0.0743 -0.0428
19789W        W38643  13.301  13.214   4.435  0.2088 -0.1742 -0.0485
19790W        W38644   6.488  17.848  14.406 -0.1243  0.0899 -0.1452
19791W        W38645   5.660   4.689  13.794 -0.2025 -0.0974 -0.0781
19792W        W38646   3.119  14.875   5.497 -0.0133 -0.5369 -0.2524
19793W        W38647   8.054  10.049  13.835 -0.1512  0.0695 -0.2112
19794W        W38648   7.688   5.179   0.195  0.0332 -0.0456 -0.0551
19795W        W38649  12.221  15.633   2.748  0.1288  0.0046 -0.0742
19796W        W38650  10.421   3.438   2.593 -0.1136  0.1276 -0.3695
19797W        W38651  10.579  17.265   1.120 -0.0557 -0.2342 -0.0046
19798W        W38652  11.129  11.336   3.167 -0.0083  0.1511  0.1864
19799W        W38653  17.304  12.176  11.047  0.2274  0.2333 -0.1448
19800W        W38654   3.491  10.559  14.340  0.2553  0.1672 -0.2322
19801W        W38655   9.824   8.380   2.927  0.1899 -0.1851 -0.0929
19802W        W38656   2.100  16.478  16.116  0.0985  0.1630  0.0519
19803W        W38657   6.127  10.374  13.442 -0.2353 -0.2507 -0.0257
19804W        W38658  13.808  12.599   2.514  0.0029  0.1672  0.1054
19805W        W38659   4.526  17.839  13.173 -0.2459  0.2824  0.2372
19806W        W38660   2.005  15.057   3.295 -0.2850  0.1035  0.0390
19807W        W38661   4.595   1.326   2.216 -0.1994 -0.0346 -0.2240
19808W        W38662  15.264   5.620   1.572  0.3571  0.1080  0.1072
19809W        W38663  10.916  14.430  14.237 -0.0448 -0.0868  0.0056
19810W        W38664   7.210   9.724   3.975 -0.0529  0.1096  0.0737
19811W        W38665  11.052  15.875  14.469  0.0810  0.0026 -0.1133
19812W        W38666   0.455   9.128  11.658  0.1590 -0.1503  0.1966
19813W        W38667   3.629   7.824  14.789 -0.2056  0.0545  0.1019
19814W        W38668  10.773   6.766   0.854  0.2475 -0.1438  0.0623
19815W        W38669   1.962   5.265  13.909  0.0730  0.1838 -0.0949
19816W        W38670   0.890   5.531   2.448 -0.0123 -0.0288  0.2118
19817W        W38671  14.820  12.534  13.041 -0.0594  0.0620  0.4480
19818W        W38672   2.121   6.865   4.548 -0.1346 -0.0768 -0.0898
19819W        W38673  17.544   3.665  12.159 -0.2057  0.2540 -0.0956
19820W        W38674   4.964   8.098  12.248  0.1404 -0.1180 -0.1976
19821W        W38675   4.038   6.790   5.223 -0.0532 -0.0942  0.0560
19822W        W38676  12.407   1.035   4.069  0.0037 -0.0782 -0.0063
19823W        W38677   6.069   4.977   3.902 -0.0061 -0.0435  0.2391
19824W        W38678   7.716   5.272  11.284 -0.1649  0.0262 -0.0815
19825W        W38679   5.806  13.090  15.475 -0.1916 -0.1522 -0.0593
19826W        W38680   6.343   1.629  11.103  0.2724  0.1400 -0.0776
19827W        W38681  11.097   5.927  11.831 -0.0506 -0.2258 -0.4516
19828W        W38682  13.763  13.817   0.876  0.0958 -0.1806 -0.2074
19829W        W38683   2.260   4.541   2.209  0.3423  0.2341  0.0831
19830W        W38684   9.833  14.422  15.395  0.1000  0.1535  0.1088
19831W        W38685   5.882  11.529  11.924  0.1135  0.4842  0.2364
19832W        W38686   0.760   1.826   4.178  0.4520 -0.1627  0.3612
19833W        W38687  16.372   8.573   1.715  0.0376 -0.0650 -0.3514
19834W        W38688   6.469   7.004   0.592  0.0786 -0.2688 -0.1066
19835W        W38689   9.809   9.374   2.306 -0.0671 -0.0566 -0.2355
19836W        W38690   6.140  13.724  12.049 -0.1510 -0.1625 -0.2030
19837W        W38691   9.419   6.634  14.305 -0.1377  0.0902  0.3505
19838W        W38692   8.688   7.656  16.107  0.1144  0.1081 -0.3741
19839W        W38693  15.290   1.510  14.680 -0.0135  0.0112  0.1075
19840W        W38694  11.014  14.536  13.735  0.1558  0.0115 -0.1928
19841W        W38695   3.859   3.210   2.080 -0.0999 -0.1044  0.0450
19842W        W38696   5.747   0.027   5.237 -0.1923 -0.0334 -0.0919
19843W        W38697   7.564   5.273   2.189  0.1381 -0.0666  0.1442
19844W        W38698  14.931  15.905  12.578 -0.2668 -0.0955  0.1170
19845W        W38699   3.245   2.917  13.288 -0.0490 -0.0158 -0.1467
19846W        W38700  10.570  11.653  12.870 -0.1657  0.0847 -0.1446
19847W        W38701   4.086  16.650  13.079 -0.1598  0.1568 -0.1674
19848W        W38702   5.487  16.064   0.777  0.0443  0.2767 -0.2567
19849W        W38703   8.580   3.387   3.482  0.1613 -0.2658  0.0462
19850W        W38704   2.838   9.138  14.727 -0.0190  0.3027  0.0470
19851W        W38705   8.214   7.170   2.010  0.2185  0.3788 -0.5382
19852W        W38706  15.227   1.910  14.961 -0.1087  0.0864  0.2352
19853W        W38707   0.543   2.313   4.232 -0.3367  0.1268  0.2095
19854W        W38708   6.767   6.343  15.080  0.0380 -0.3982 -0.0641
19855W        W38709  13.498  17.146   1.604  0.0650  0.0681  0.3321
19856W        W38710  14.110  10.042   3.031 -0.0270 -0.5593  0.1483
19857W        W38711   1.607   2.778  11.794  0.3006 -0.2970 -0.0258
19858W        W38712   5.181   9.852  14.724  0.1960 -0.1028  0.2233
19859W        W38713  14.043   9.248  16.054 -0.1568  0.0770  0.0285
19860W        W38714   7.669  15.190   0.233 -0.0032 -0.2631 -0.3530
19861W        W38715   0.214  13.740  12.811  0.0104  0.0396  0.3117
19862W        W38716   0.314   7.820  11.207  0.0621 -0.1427  0.0962
19863W        W38717  12.355  13.425  11.638 -0.0738  0.1889 -0.0690
19864W        W38718   9.464  10.869   2.580  0.1790  0.1569  0.0078
19865W        W38719   4.129   7.911   3.758  0.0912 -0.1618 -0.0962
19866W        W38720  10.097  17.504  14.648 -0.2458  0.3187 -0.0717
19867W        W38721  11.969   9.967   4.786 -0.3165 -0.2586 -0.0130
19868W        W38722  17.330  12.819   4.390  0.0639 -0.2724  0.0930
19869W        W38723  10.625  14.552   0.080  0.0282  0.3104 -0.2362
19870W        W38724   1.969  10.592  14.759 -0.3437 -0.1404  0.0804
19871W        W38725  14.778   4.683  16.036  0.0533  0.0849 -0.0849
19872W        W38726   7.323   9.408  13.907  0.0637  0.0937 -0.0887
19873W        W38727   2.256   5.123   3.969 -0.0568  0.2666  0.2254
19874W        W38728  12.955   8.838   2.278 -0.1953  0.2310  0.2119
19875W        W38729   9.424   1.808   3.732 -0.6068  0.1130 -0.0473
19876W        W38730   0.922   7.281   1.401  0.2210  0.2030 -0.0699
19877W        W38731  12.926   9.324  14.389  0.0007 -0.0258  0.1066
19878W        W38732   1.912  15.525   2.207  0.0259 -0.0637  0.0477
19879W        W38733   3.721  10.069   4.387 -0.2953 -0.2427 -0.0880
19880W        W38734  13.686  10.617  12.162 -0.1011  0.1214  0.1088
19881W        W38735  16.811  15.854  13.374 -0.0973 -0.1082  0.0506
19882W        W38736   5.113   7.825  13.493  0.0810  0.2317  0.2104
19883W        W38737   6.749  14.083   2.574  0.2016  0.1711  0.1201
19884W        W38738  16.907  16.107  11.941 -0.3931  0.1517 -0.3131
19885W        W38739  16.475   7.619   1.187 -0.3786  0.0682 -0.3147
19886W        W38740  12.082   9.516  14.258 -0.1883  0.2786  0.0333
19887W        W38741  11.376   5.708   3.711 -0.2522 -0.1249 -0.1932
19888W        W38742  15.151   2.948   3.577 -0.0159  0.2577  0.0583
19889W        W38743   6.715   2.813  16.202  0.2504  0.0216 -0.2217
19890W        W38744   6.818  12.992  12.920 -0.0257 -0.2241  0.3085
19891W        W38745  11.938  13.616   1.075 -0.1386  0.1462  0.2298
19892W        W38746  11.539  14.210  14.850  0.2077 -0.4649 -0.0980
19893W        W38747  15.861   2.160   1.692 -0.3530 -0.1534 -0.0447
19894W        W38748  13.231  16.811  11.842  0.1694 -0.2231  0.1324
19895W        W38749   8.274  14.453   1.652  0.0238  0.0506 -0.2293
19896W        W38750  11.383   0.626  15.098  0.2058  0.3393  0.1209
19897W        W38751   0.924   2.697   2.608 -0.0488  0.1133  0.2160
19898W        W38752   7.130   4.734   3.388  0.1406 -0.2265 -0.0523
19899W        W38753   2.385   2.254   4.408 -0.1853  0.0004 -0.0633
19900W        W38754   4.916  14.578  14.366  0.0649  0.0851  0.1037
19901W        W38755   8.256  12.713   0.180 -0.0161  0.4126  0.1319
19902W        W38756   9.027   6.632  13.863  0.0941 -0.0579  0.1080
19903W        W38757  10.929   9.474  15.919 -0.1947 -0.1073  0.4637
19904W        W38758  14.036   2.747   4.227  0.0506 -0.1321 -0.0184
19905W        W38759   9.314  11.240  14.205  0.0998 -0.2000 -0.1414
19906W        W38760   8.535   0.806  11.830 -0.2044  0.4359  0.1562
19907W        W38761  12.826   0.490   5.253 -0.1985  0.1766 -0.0253
19908W        W38762   8.480  16.870   3.240  0.1856  0.0827  0.0811
19909W        W38763  17.576  14.768  12.024 -0.0149  0.0832 -0.0534
19910W        W38764  16.803   6.065   0.633  0.1805  0.1181 -0.1908
19911W        W38765   8.136  17.121  10.611 -0.1303  0.2624 -0.1376
19912W        W38766   8.888  17.602  11.807 -0.1249  0.0212  0.2033
19913W        W38767  14.360  15.613  12.267  0.1295 -0.0503 -0.0447
19914W        W38768   8.162   1.228  15.185 -0.2112  0.0303 -0.3911
19915W        W38769   8.008  16.391  13.779 -0.2987  0.0559 -0.0692
19916W        W38770  16.513  13.797   1.104 -0.0154 -0.3541  0.0504
19917W        W38771   7.235  12.185  14.489 -0.0416  0.2073 -0.1682
19918W        W38772  13.511   6.227   5.073  0.2917 -0.0529 -0.1272
19919W        W38773   7.787  13.373  15.517 -0.2418 -0.1097  0.0278
19920W        W38774   4.079  12.331  11.427 -0.0932 -0.0758 -0.0610
19921W        W38775  14.385   2.582  12.038  0.0662  0.1464 -0.3601
19922W        W38776   9.415  10.280  15.154  0.3527 -0.0370 -0.3663
19923W        W38777  11.891   1.460   1.342  0.0871 -0.0570 -0.2213
19924W        W38778   2.250  12.291   1.320 -0.0711 -0.0310 -0.0403
19925W        W38779  14.004  13.144  15.642  0.0137 -0.0570 -0.1006
19926W        W38780  10.518  17.822  13.857  0.2331  0.1659  0.0658
19927W        W38781  13.152   8.767   3.896 -0.0681  0.1824 -0.1322
19928W        W38782   4.088   5.444  14.939 -0.2997  0.0518  0.0031
19929W        W38783  12.218   9.304   3.349  0.0809  0.2721 -0.1535
19930W        W38784   1.424   5.069   0.258  0.0804  0.1477  0.2116
19931W        W38785  14.854   8.106   0.246 -0.1701  0.0685 -0.2047
19932W        W38786  12.290   5.155  12.118 -0.0292  0.4174  0.1871
19933W        W38787  16.115   3.764  15.389  0.2112 -0.3121  0.2503
19934W        W38788   9.817   9.746  13.642 -0.0247 -0.1690  0.2454
19935W        W38789   7.241   8.425  14.129  0.2367  0.0675  0.3155
19936W        W38790   2.215  13.216  13.254 -0.1258 -0.0061 -0.1307
19937W        W38791  12.971  17.098  14.660 -0.1371 -0.1137  0.1403
19938W        W38792  10.622   6.922  13.785  0.1297  0.0409  0.3276
19939W        W38793  16.205  17.091  12.285 -0.2091  0.1030  0.0171
19940W        W38794   1.724  14.407  16.026 -0.0887 -0.2233 -0.3456
19941W        W38795  15.082   2.825  16.045 -0.2409 -0.0900  0.2725
19942W        W38796   5.685  12.056  12.579  0.0997  0.3601 -0.0302
19943W        W38797  12.992   9.441  12.610 -0.0284  0.0146  0.4660
19944W        W38798   4.710  14.972   4.278  0.0763 -0.3147  0.0790
19945W        W38799   5.348   9.075   3.734 -0.0068 -0.0514  0.0758
19946W        W38800   4.990  16.086   0.122 -0.1611  0.2469 -0.0793
19947W        W38801   3.408   8.530  11.803 -0.0767  0.0155  0.0958
19948W        W38802   4.576  12.800  13.236 -0.0539  0.0982  0.0027
19949W        W38803   2.705  17.596   1.128 -0.1262  0.1296  0.2343
19950W        W38804   2.960   2.066   2.633 -0.1706  0.2159  0.0875
19951W        W38805  17.045  13.983   2.299  0.1691  0.2624  0.2013
19952W        W38806   8.337  11.092  13.252  0.1658 -0.0930  0.0375
19953W        W38807   4.732   5.533   4.416  0.0870 -0.0882 -0.0048
19954W        W38808   0.964  15.354   1.924 -0.2070  0.0422  0.1532
19955W        W38809   5.939   2.847  14.557 -0.1611  0.2476  0.0863
19956W        W38810   0.937   2.251  14.675  0.0746 -0.1881  0.0183
19957W        W38811   5.615  15.071   1.175 -0.1285  0.1782 -0.2187
19958W        W38812   6.993   3.106   4.253 -0.1540 -0.1245  0.3326
19959W        W38813   5.473   7.077  13.558  0.1497 -0.0901 -0.0281
19960W        W38814   5.753  11.797  13.039 -0.1483  0.1226  0.1703
19961W        W38815  13.671  16.661  12.618  0.0995 -0.1799 -0.2760
19962W        W38816   6.828  16.986  15.490  0.0308 -0.0983 -0.0343
19963W        W38817  13.437   9.277   4.017  0.1182 -0.0966 -0.1512
19964W        W38818   9.907  13.507  12.505  0.1706  0.0622 -0.2702
19965W        W38819   7.691   2.188   3.659  0.1970  0.2212  0.2078
19966W        W38820  14.894  12.768  13.567  0.0013  0.1421  0.3057
19967W        W38821   6.261   8.236  12.548 -0.0890  0.3067 -0.2135
19968W        W38822   4.180   8.102   4.594 -0.1128  0.0865 -0.0210
19969W        W38823   3.605   7.330   1.679 -0.0022 -0.2269  0.0495
19970W        W38824  17.151   4.016  15.335  0.0045  0.0343 -0.1108
19971W        W38825   1.742   4.320   0.041 -0.3001 -0.0388 -0.0141
19972W        W38826   0.888  13.099  12.939  0.0793  0.2544 -0.0014
19973W        W38827  13.191   4.966  13.766 -0.2329  0.1423  0.0978
19974W        W38828   9.229  13.284   4.780  0.0732  0.0493 -0.1053
19975W        W38829   6.440  11.158   5.825  0.1178 -0.1928 -0.0920
19976W        W38830  18.026  11.078  14.427 -0.0932 -0.0229  0.2102
19977W        W38831   2.243   7.708   4.342 -0.0509  0.1639 -0.0585
19978W        W38832  13.636  16.797  12.107 -0.0070 -0.0066  0.2590
19979W        W38833   8.364  16.180   4.903 -0.2105 -0.2770  0.0281
19980W        W38834   0.113  10.812   0.971  0.0384  0.0508 -0.4710
19981W        W38835  18.028  13.317  12.974  0.1482 -0.2099 -0.0849
19982W        W38836   4.397   8.688   2.056 -0.1169  0.0543  0.0165
19983W        W38837  17.492  12.782  10.912 -0.2865  0.0625  0.0560
19984W        W38838  13.882   6.871  12.412 -0.2872 -0.1094  0.2791
19985W        W38839   8.640   3.820  11.314  0.0479 -0.0604  0.1408
19986W        W38840  11.030  12.572  14.575  0.0316 -0.3772  0.1954
19987W        W38841   3.496  15.062   2.816 -0.0922 -0.2335  0.5863
19988W        W38842  10.392   5.594   3.494  0.3069  0.4080  0.2562
19989W        W38843  14.628  17.409   0.409  0.2507  0.1237  0.1646
19990W        W38844   3.383   3.532  10.839  0.1654  0.0758 -0.0220
19991W        W38845  14.820   6.965  11.430 -0.0985 -0.3669  0.2506
19992W        W38846   6.714   8.221  14.237  0.1434 -0.1199 -0.1762
19993W        W38847   4.676   0.914  16.114  0.1459 -0.0647 -0.1282
19994W        W38848  17.137   7.309   1.272 -0.0381  0.0835  0.0424
19995W        W38849  13.453  14.446  14.790  0.0752  0.3300 -0.0620
19996W        W38850   5.699  17.411   0.725 -0.0016  0.1324 -0.1031
19997W        W38851  12.225  16.558   1.758 -0.0520  0.2728 -0.3672
19998W        W38852   9.431   2.239  15.771  0.1543  0.0288  0.0688
19999W        W38853   3.288   8.775   1.283 -0.0535  0.0520  0.1417
20000W        W38854  13.681   8.872   4.095 -0.2080  0.1770  0.0685
20001W        W38855   6.168   0.645  12.109 -0.1991  0.0670 -0.2365
20002W        W38856  11.746   1.663   0.098  0.4128 -0.0338 -0.3173
20003W        W38857   4.487   8.736  15.867  0.1831  0.1093 -0.2258
20004W        W38858  11.423  17.679  14.622  0.1010  0.0454  0.3238
20005W        W38859   0.908   6.162  15.897  0.1370 -0.2857 -0.0894
20006W        W38860   6.725  15.103   4.444 -0.4131 -0.0721  0.3692
20007W        W38861   3.432   1.410   5.816 -0.1021  0.0230 -0.0023
20008W        W38862   1.379  10.558   1.425 -0.0822  0.2969 -0.0101
20009W        W38863   5.837  16.497  16.123  0.0820  0.3699 -0.4514
20010W        W38864  11.884  10.251  15.499 -0.2201 -0.0408 -0.1777
20011W        W38865   4.035   0.419   4.497  0.4247 -0.0966 -0.3508
20012W        W38866   7.945  10.191   1.041  0.1677  0.2352  0.1592
20013W        W38867   7.072  17.546   5.221 -0.2508 -0.1518 -0.0684
20014W        W38868   6.045   6.106  14.642  0.1280 -0.1462  0.0374
20015W        W38869   6.089  14.131   1.535  0.0275 -0.0001 -0.1966
20016W        W38870   1.782   4.945  10.898 -0.1952 -0.1715 -0.1751
20017W        W38871   4.508  12.465   4.571  0.1156 -0.1245  0.1347
20018W        W38872   0.403  12.068  12.273  0.0241 -0.2398  0.0155
20019W        W38873  15.198  10.995  14.138  0.1524 -0.0919 -0.1973
20020W        W38874   2.218  12.770   3.315  0.0828  0.1614  0.1195
20021W        W38875  14.154  16.117  12.647 -0.0326 -0.1254  0.2566
20022W        W38876  12.740   9.110   0.960 -0.2008 -0.1117  0.0115
20023W        W38877   6.634   8.093  13.736  0.0222  0.0431  0.1600
20024W        W38878   3.834  14.484   1.015  0.1789  0.1861 -0.1738
20025W        W38879   0.426  15.831   0.503  0.2513 -0.3606  0.2746
20026W        W38880   8.238  16.014   2.133  0.0395 -0.3656  0.0228
20027W        W38881   7.673  15.022  12.693 -0.2254 -0.0565  0.1960
20028W        W38882   4.723   6.019  14.615  0.1673  0.0590  0.0621
20029W        W38883  17.232  14.813   1.754 -0.3281 -0.2882  0.0511
20030W        W38884   7.522   6.556   4.588 -0.3004 -0.2970 -0.2339
20031W        W38885  12.888  15.512   4.710 -0.0313 -0.0559  0.1451
20032W        W38886  13.497  17.034  13.244  0.0730 -0.0593 -0.2555
20033W        W38887   2.678  16.226   0.603 -0.0264  0.2088  0.1576
20034W        W38888  13.101  15.879   1.540 -0.0928  0.0150 -0.1442
20035W        W38889  11.305   5.651  16.001  0.0668 -0.1603 -0.1762
20036W        W38890   5.899  11.931   1.564 -0.0684  0.0818 -0.0546
20037W        W38891  12.528   3.968  15.163 -0.2384 -0.0387 -0.1259
20038W        W38892   7.528   7.531  13.912 -0.0491  0.1093  0.0190
20039W        W38893   8.826  17.430  14.000 -0.0018 -0.2970  0.0267
20040W        W38894  14.218   0.509  12.686  0.1120 -0.2143  0.1142
20041W        W38895  15.057   9.108   4.634  0.0907 -0.2330 -0.1235
20042W        W38896   9.151  13.321   6.054  0.2634 -0.3837  0.0804
20043W        W38897  15.222   4.548  13.461 -0.0797  0.3326  0.0113
20044W        W38898   6.990   6.135  14.232  0.2091 -0.0945 -0.1280
20045W        W38899  16.311   1.606   0.454  0.0230  0.0477 -0.1094
20046W        W38900   6.393  15.700  11.826  0.0117 -0.0242 -0.4007
20047W        W38901  13.744   8.971   3.604 -0.2257 -0.1023 -0.0343
20048W        W38902  10.910   9.744  13.493 -0.1441  0.2530  0.3020
20049W        W38903  16.337  13.324  12.329 -0.1894 -0.2051  0.0034
20050W        W38904  17.640  11.472   5.245 -0.0343 -0.0984  0.1956
20051W        W38905  14.547   3.324  13.410 -0.0154  0.0385  0.0465
20052W        W38906   8.359  17.174  13.984  0.1057 -0.2489 -0.2073
20053W        W38907  17.384  12.904   3.818 -0.2855 -0.0489 -0.0096
20054W        W38908  10.736  14.521   5.142  0.0544 -0.0130  0.0763
20055W        W38909  16.534  17.200  11.936  0.4162  0.2524  0.1480
20056W        W38910   3.849  15.778  13.224  0.3151 -0.2476 -0.0428
20057W        W38911  17.525  11.210  12.159 -0.2389 -0.2117 -0.1618
20058W        W38912   4.403   3.824   1.024 -0.2974 -0.1139  0.1433
20059W        W38913   5.458   4.097   2.098 -0.1620  0.3336 -0.0823
20060W        W38914  16.201   4.179  11.408  0.0186  0.0691 -0.0924
20061W        W38915   8.188  13.866  11.381 -0.1144  0.1734  0.0395
20062W        W38916  15.872   7.588   1.280  0.0773  0.0623 -0.1360
20063W        W38917  15.055   8.812   1.490  0.1039  0.2924 -0.3621
20064W        W38918   8.597  12.816  15.985 -0.1097  0.1650  0.1770
20065W        W38919   0.714   8.063   3.662 -0.3937 -0.1405 -0.2681
20066W        W38920  14.651   5.527   1.002 -0.0507 -0.3940  0.0350
20067W        W38921  12.578   6.138   0.960 -0.2229  0.1861  0.0618
20068W        W38922   1.132   3.487   2.243  0.0454  0.0598 -0.2869
20069W        W38923   7.006   7.057  10.838 -0.3496  0.2605  0.1018
20070W        W38924  16.226  14.276   4.702  0.0797 -0.1954 -0.0948
20071W        W38925  13.189   3.754   3.513  0.2434  0.1419 -0.0400
20072W        W38926  12.805   7.819   4.654 -0.2231  0.1953  0.2100
20073W        W38927  15.310  10.525  13.132  0.0177 -0.1125 -0.1359
20074W        W38928   9.880  15.563   2.716  0.4902 -0.3157 -0.0261
20075W        W38929  10.933   7.748   1.619  0.0396 -0.1090  0.2060
20076W        W38930   7.543  15.664   3.273 -0.0590 -0.3547  0.1734
20077W        W38931   1.186   1.864   5.096 -0.2573  0.3046  0.1083
20078W        W38932   9.187  16.781   0.538  0.0030  0.1800 -0.0292
20079W        W38933   9.208  15.147   0.837 -0.0561  0.2617 -0.0182
20080W        W38934  15.591   0.499  12.261 -0.0278 -0.1147 -0.1379
20081W        W38935  16.694   2.698   2.193 -0.0310 -0.1122  0.2021
20082W        W38936   7.571   1.425   3.404 -0.1482  0.1778  0.1256
20083W        W38937  14.092  10.943   4.044  0.0310 -0.1244  0.2802
20084W        W38938   1.812   4.483   3.849  0.1005  0.1187 -0.0252
20085W        W38939   8.704  13.109  13.719  0.0819  0.1087  0.2103
20086W        W38940  14.662   3.429  15.989  0.1332  0.0922 -0.1806
20087W        W38941  17.117  13.043   4.881  0.0794  0.2014  0.0688
20088W        W38942  17.989   6.284   5.212 -0.0112 -0.2036  0.1377
20089W        W38943  12.628   0.283   1.480  0.0614 -0.1135 -0.2844
20090W        W38944   4.574  14.188   1.249  0.1024  0.2139  0.2403
20091W        W38945   2.046  14.533   4.343  0.1633 -0.0287  0.0583
20092W        W38946   3.822  11.165   3.382  0.0019 -0.0051  0.1292
20093W        W38947  12.458   3.975   0.699 -0.1048  0.2497 -0.0264
20094W        W38948   9.271   1.039   3.125 -0.1944  0.0517 -0.2433
20095W        W38949   2.455   7.595  14.431  0.0573 -0.0785 -0.0494
20096W        W38950   8.674  14.750  10.482  0.0749  0.1260 -0.2983
20097W        W38951  14.126  17.020  12.435 -0.0167  0.0128 -0.1078
20098W        W38952  17.222   8.099  13.687 -0.1406 -0.0198 -0.1755
20099W        W38953  10.730   2.420   0.923 -0.1213  0.0708 -0.0396
20100W        W38954   6.908   4.775  16.067 -0.0449 -0.0650 -0.1920
20101W        W38955   7.588   8.091  11.447 -0.1049  0.0052 -0.1461
20102W        W38956   9.067  10.917  15.670  0.1866 -0.0346  0.2145
20103W        W38957  17.156  16.785   3.952 -0.1707  0.3103 -0.2191
20104W        W38958   9.446   9.488  11.978 -0.1405 -0.1512  0.2534
20105W        W38959   1.874   8.436  15.364 -0.0620  0.1966 -0.0544
20106W        W38960   7.935  10.222  13.352  0.0382 -0.2367 -0.0903
20107W        W38961  10.632  10.300  16.178 -0.0962  0.3653  0.1283
20108W        W38962   7.833  16.578   1.001 -0.0525  0.0562  0.0690
20109W        W38963   8.744  11.423  16.042  0.2651 -0.2188 -0.0180
20110W        W38964   2.132   0.406  13.608 -0.0961  0.0346  0.2272
20111W        W38965  15.740   5.592   4.194  0.0620  0.2274  0.3142
20112W        W38966   7.347  10.050  11.433  0.0321  0.0848  0.2363
20113W        W38967   8.008  11.701  15.027  0.1933  0.1032 -0.2431
20114W        W38968  15.903  14.442   0.562  0.2300  0.0512 -0.3822
20115W        W38969  15.313  17.203   0.580  0.0219 -0.0917 -0.0822
20116W        W38970  12.600  17.828   2.874  0.0356  0.0420 -0.1697
20117W        W38971  15.677  12.024  12.716  0.2197  0.1761  0.2293
20118W        W38972   4.426   0.353   4.812  0.0770 -0.0761 -0.0485
20119W        W38973  16.393   3.377  15.291  0.0461 -0.1660 -0.1148
20120W        W38974  12.770   7.455   4.183 -0.2928 -0.0682 -0.1900
20121W        W38975   3.182  11.570   1.126  0.1082 -0.1965 -0.0430
20122W        W38976  16.332   9.943   1.501 -0.2510 -0.0716  0.1959
20123W        W38977  13.589  11.869  12.623 -0.0254 -0.0303 -0.0814
20124W        W38978  10.859  11.099   1.641 -0.4022 -0.2293 -0.0462
20125W        W38979  11.129  17.491   4.095 -0.0246  0.1468  0.3754
20126W        W38980   9.569  11.982  15.862  0.0290 -0.2534 -0.0773
20127W        W38981   3.551  14.950  12.664  0.1232  0.0047 -0.1105
20128W        W38982   8.840   2.484   5.185  0.0019  0.0384 -0.0344
20129W        W38983  16.302  15.233  14.889 -0.0451  0.2077  0.3512
20130W        W38984  13.831  14.845  14.056  0.0148  0.3316  0.0566
20131W        W38985   8.444   4.636  16.006 -0.0685 -0.0318 -0.0083
20132W        W38986   3.786   5.548  14.480 -0.1198  0.0629 -0.0588
20133W        W38987   7.955   0.571   1.079 -0.2060 -0.2483  0.0579
20134W        W38988  15.505   7.722  14.527  0.1001  0.3060 -0.1114
20135W        W38989  13.216  14.752   3.874  0.0403 -0.1046 -0.2712
20136W        W38990  16.222  13.723   1.517 -0.0013  0.2256 -0.3214
20137W        W38991   8.343   6.197   4.005 -0.0150 -0.2161 -0.0614
20138W        W38992  14.906   8.903   3.544 -0.0918  0.1005  0.2495
20139W        W38993   3.122   6.906   2.166  0.1102 -0.0966  0.0840
20140W        W38994   5.383   1.428  13.570  0.1424 -0.2256  0.2238
20141W        W38995  16.176   7.882   4.036  0.1569  0.1699 -0.2926
20142W        W38996   0.773   8.459   1.697  0.0338  0.1873 -0.3008
20143W        W38997   7.715  12.699   5.212  0.1069 -0.0166 -0.0289
20144W        W38998   1.466  17.788   3.539  0.1609  0.2200  0.2073
20145W        W38999  16.962  17.977   2.820  0.1458 -0.1492 -0.2426
20146W        W39000   4.076   4.370   3.100  0.0649 -0.3620 -0.3440
20147W        W39001  13.416  11.151  10.434  0.0366 -0.0170  0.0197
20148W        W39002  13.412   7.023   1.776  0.2254  0.0592  0.0163
20149W        W39003  11.475  17.785   2.007 -0.0259  0.1237 -0.1619
20150W        W39004   8.085   6.512  13.369 -0.2680 -0.0814 -0.0868
20151W        W39005  17.199  17.917   2.392 -0.1500 -0.0363 -0.0502
20152W        W39006   6.859   4.244  12.224  0.0141 -0.1420 -0.1410
20153W        W39007   7.935   2.479   0.955 -0.1139 -0.1182 -0.1302
20154W        W39008   0.258  14.597  13.802  0.1424 -0.2375 -0.0722
20155W        W39009   7.127  15.236  11.984  0.0119  0.0847  0.1180
20156W        W39010  16.541   4.004  16.122  0.0683 -0.1291 -0.2700
20157W        W39011   3.176   8.315   4.084 -0.1205 -0.0416  0.1650
20158W        W39012  17.610  11.367   1.734  0.0833 -0.0435 -0.1027
20159W        W39013  17.573   7.924   0.268  0.0504 -0.0715  0.0694
20160W        W39014  14.325  14.940   1.918 -0.2809  0.1543 -0.1564
20161W        W39015   8.527  11.527   5.270  0.1047 -0.0328 -0.0229
20162W        W39016   5.069   8.645   0.083  0.1051 -0.0288 -0.0381
20163W        W39017   4.761   3.948   3.012  0.0016 -0.1605  0.0742
20164W        W39018  17.687   7.260   1.115 -0.0244 -0.2018 -0.3029
20165W        W39019   1.507  17.163   2.796  0.2646 -0.3225  0.1593
20166W        W39020   0.584  16.446   2.981 -0.2173 -0.3135  0.2122
20167W        W39021  14.060   3.107   1.797 -0.2649 -0.0229 -0.1312
20168W        W39022  14.176  16.661  13.284 -0.2062  0.1373  0.0076
20169W        W39023   9.938   2.553  13.221 -0.0165 -0.0593 -0.1574
20170W        W39024  14.320  14.589  12.039  0.0299 -0.0293  0.3030
20171W        W39025   9.695   4.706   4.690  0.1769  0.2178 -0.3475
20172W        W39026   7.335  11.469   1.146 -0.1860  0.1220 -0.2458
20173W        W39027   6.055   5.850   4.199 -0.1426  0.3125  0.2184
20174W        W39028  16.638  10.624   3.753  0.0119 -0.1966  0.0244
20175W        W39029   1.116   1.301  11.962 -0.0161  0.2319  0.2855
20176W        W39030   6.788  13.198   4.490 -0.1660  0.0920  0.0588
20177W        W39031   3.234   7.049   0.823  0.0921  0.0447 -0.3474
20178W        W39032   9.666  11.428  16.060  0.1265 -0.2752 -0.3695
20179W        W39033   6.842   8.771  13.436  0.1314  0.0307  0.1595
20180W        W39034   4.692  12.141   2.713  0.0666 -0.1700 -0.0817
20181W        W39035  17.089  11.155  13.125  0.3874  0.1172  0.0357
20182W        W39036   0.981   1.968   0.557  0.0952  0.0447  0.0501
20183W        W39037   4.161   2.288  11.311 -0.0883  0.3246  0.0586
20184W        W39038  14.679   8.914  14.587 -0.1479 -0.2182 -0.0820
20185W        W39039   2.348  10.102   1.252  0.0288 -0.0012  0.3947
20186W        W39040   6.170   9.022   2.017 -0.1247  0.0941  0.0513
20187W        W39041  17.204   4.847  12.802  0.3094  0.1773 -0.0049
20188W        W39042  12.452  12.991   3.704 -0.1734 -0.0854 -0.1708
20189W        W39043   4.662  17.442   3.616 -0.0030 -0.0247 -0.2064
20190W        W39044   9.724   3.861   4.270  0.0529 -0.4101  0.0021
20191W        W39045  13.681  11.406  14.813 -0.1969 -0.0932 -0.0367
20192W        W39046   6.065   9.690  12.240  0.1529 -0.0148  0.0334
20193W        W39047  10.983  13.286  14.121 -0.0949 -0.0658  0.1059
20194W        W39048   6.642   9.426   4.018  0.0699  0.0777  0.1226
20195W        W39049   4.192   4.994   1.286  0.1930 -0.0889  0.1040
20196W        W39050  17.854   6.945   3.511 -0.0412 -0.0629  0.1415
20197W        W39051   7.881   1.112  16.185  0.0575  0.2017 -0.1469
20198W        W39052   9.148   3.047  14.064 -0.0227 -0.1474 -0.1105
20199W        W39053  15.354   2.475  14.668  0.0345 -0.0726  0.2115
20200W        W39054   4.010  15.150   2.898 -0.1901  0.0326 -0.2804
20201W        W39055  15.316  17.738  15.555  0.3381 -0.0948  0.0939
20202W        W39056  12.659   6.858  12.106 -0.0115  0.0318  0.0223
20203W        W39057   6.223  16.408   1.223 -0.0583 -0.4618  0.0508
20204W        W39058  11.754  15.882  14.634  0.1839  0.1120  0.0596
20205W        W39059  16.853   4.101   5.238  0.0732 -0.1409 -0.0626
20206W        W39060  15.599  13.279   5.084 -0.1968  0.1042 -0.0960
20207W        W39061  10.734  13.963  14.301  0.0540  0.1735  0.0454
20208W        W39062   0.595  16.562  14.372 -0.1042 -0.0110  0.0282
20209W        W39063  16.396   1.592   4.242 -0.0150 -0.0710 -0.2291
20210W        W39064   4.993  10.621   3.843  0.2294 -0.0710 -0.1287
20211W        W39065   6.079   8.267   3.344  0.2752 -0.1872  0.0481
20212W        W39066   5.953  15.647   3.451  0.4929 -0.2605 -0.0146
20213W        W39067  11.685  17.360  12.919  0.0359 -0.1557 -0.1062
20214W        W39068  13.668  16.573   3.330  0.3624  0.0962 -0.3161
20215W        W39069  17.489   2.207  15.133  0.0481 -0.2778 -0.0466
20216W        W39070  17.611  14.859   0.022  0.3049  0.0991  0.0764
20217W        W39071  12.859   0.029  12.514  0.2400  0.0373  0.1579
20218W        W39072   1.094  12.463   3.863 -0.1484  0.0359 -0.0061
20219W        W39073  16.313   9.381  15.603  0.1519 -0.2324 -0.0691
20220W        W39074   8.662   0.947  14.280  0.2550  0.1435 -0.2347
20221W        W39075   6.657   1.788  15.100 -0.1357  0.0021  0.0150
20222W        W39076   2.878  17.504  15.604 -0.2938 -0.0961  0.0069
20223W        W39077  15.840   3.694   1.135  0.2846  0.0365 -0.2006
20224W        W39078  10.491  16.235   1.656  0.0509  0.1102 -0.1254
20225W        W39079   4.946   8.682   4.634  0.1450  0.0425 -0.2024
20226W        W39080   2.682   3.796   3.596  0.0197  0.2078  0.1817
20227W        W39081   4.695   3.789  12.564 -0.0706 -0.1701 -0.1849
20228W        W39082   1.053   3.919   2.104 -0.0683  0.0284 -0.1737
20229W        W39083  12.884  17.985   1.058 -0.1520 -0.2440 -0.2858
20230W        W39084  13.747  12.210   0.119  0.1630  0.0013 -0.0917
20231W        W39085  16.178   3.232   3.353  0.0690  0.0330 -0.0316
20232W        W39086  13.710   2.468  13.459  0.0670 -0.0167 -0.1102
20233W        W39087  11.224  16.496   1.355  0.1170 -0.2563  0.1559
20234W        W39088  14.377  13.962   0.386  0.1068 -0.0178  0.1019
20235W        W39089   1.402  14.740  15.719 -0.0024 -0.1124  0.2701
20236W        W39090   4.556  16.040   0.642  0.1256 -0.0671 -0.1081
20237W        W39091  11.134  10.374   4.419  0.1700  0.0484 -0.2371
20238W        W39092  11.212   4.582  12.210 -0.1352 -0.1416  0.1570
20239W        W39093   2.986   1.163   0.237 -0.1245 -0.1803  0.1298
20240W        W39094   6.846   9.351   1.719  0.1416  0.0409  0.0848
20241W        W39095  11.296  17.853  11.658 -0.2633 -0.2564  0.0489
20242W        W39096  12.672  10.776  14.185 -0.0894 -0.0282  0.2923
20243W        W39097   0.770   2.607  14.281 -0.0635 -0.0335  0.1224
20244W        W39098  13.450   8.115  16.103  0.1960 -0.0758 -0.0943
20245W        W39099  12.089   7.914   4.280 -0.3118  0.1513  0.0759
20246W        W39100   7.282   9.688   4.516  0.1100 -0.2863 -0.0572
20247W        W39101   6.643   5.858  12.604 -0.0410  0.0478  0.0484
20248W        W39102  13.332  15.058  14.576 -0.1420 -0.0508  0.3369
20249W        W39103   2.100   9.141  11.559 -0.1800 -0.0113 -0.4096
20250W        W39104  13.982  14.876  12.360  0.0733 -0.1824 -0.6231
20251W        W39105   9.692  16.327   1.188 -0.0549  0.1810 -0.2555
20252W        W39106   9.590   7.634   0.070  0.0571 -0.1246 -0.1097
20253W        W39107  14.294   4.416   1.760  0.3969 -0.1151  0.2810
20254W        W39108   9.517   3.152   1.063  0.0182 -0.1312 -0.0606
20255W        W39109   7.356   9.421   0.513  0.1428 -0.1180  0.1551
20256W        W39110  13.217  14.754   1.022 -0.1967 -0.0076  0.1115
20257W        W39111  13.283  15.388   5.026  0.0165  0.0523 -0.3015
20258W        W39112  17.001   0.936   4.272 -0.2016 -0.0906  0.1826
20259W        W39113   1.245  14.284  15.595 -0.0376 -0.1618  0.1331
20260W        W39114   6.986   6.972  15.509 -0.1826 -0.1378 -0.0694
20261W        W39115   7.522  12.435   1.928  0.4598 -0.2067  0.0773
20262W        W39116  11.210   6.496   2.094 -0.2486  0.1472 -0.1184
20263W        W39117   8.645  12.144   3.296 -0.2537  0.0798 -0.1313
20264W        W39118   0.939   4.332  13.411  0.0285 -0.0915  0.0687
20265W        W39119   7.239   2.145   0.571 -0.0167 -0.1785 -0.0811
20266W        W39120  14.979   5.230  11.281  0.0669  0.2574 -0.2209
20267W        W39121  15.453  16.654  14.773  0.0329  0.1170  0.2671
20268W        W39122  17.590   5.073  16.074 -0.0298 -0.2402  0.0223
20269W        W39123   0.102  15.156  10.857  0.2210  0.0937 -0.3136
20270W        W39124  13.233   2.724   2.871  0.1902  0.1775 -0.1659
20271W        W39125  13.764   7.124  14.681  0.0219 -0.4096 -0.0252
20272W        W39126  13.743  17.086   4.415  0.0311 -0.1960  0.1350
20273W        W39127   0.583   0.078  14.898  0.2038  0.1496  0.0267
20274W        W39128  10.124   0.128  13.962 -0.0168 -0.0571  0.1109
20275W        W39129  16.241  11.300   3.980  0.3257  0.1355 -0.0762
20276W        W39130  11.083   0.869   1.111 -0.1527 -0.0504 -0.3484
20277W        W39131   0.310   4.519   1.180  0.4993 -0.1557  0.0751
20278W        W39132  17.714   7.132  11.292 -0.1841  0.1435 -0.1970
20279W        W39133   8.545  10.297   4.429 -0.1414  0.0460 -0.1884
20280W        W39134   7.140  11.970  13.433 -0.1489 -0.1421  0.0710
20281W        W39135   6.335   0.813   2.198 -0.0891  0.0863 -0.1188
20282W        W39136  16.792   1.500  13.438  0.2666  0.1603  0.1135
20283W        W39137  17.592  15.120   4.806 -0.2222  0.0188  0.0206
20284W        W39138   5.883  14.797   4.663  0.2118  0.0980 -0.3228
20285W        W39139  13.321   9.287  13.601  0.1189 -0.2020  0.2612
20286W        W39140   5.241  16.226  14.104 -0.2010  0.0849 -0.1571
20287W        W39141  11.846  16.865   0.367 -0.4853 -0.0641 -0.0827
20288W        W39142   7.971   7.726  11.716 -0.0548  0.1137 -0.2109
20289W        W39143  17.823  14.529  15.162 -0.1418 -0.1625 -0.2142
20290W        W39144  11.072   8.207   1.450  0.2706  0.0955 -0.1540
20291W        W39145  10.955  11.633  14.662 -0.0980  0.1404  0.0451
20292W        W39146   9.088  12.728  13.505 -0.1989 -0.0438  0.1102
20293W        W39147  15.920  11.724   2.323 -0.1000 -0.1776  0.0368
20294W        W39148   2.525   5.210  12.798 -0.1231  0.0597 -0.2355
20295W        W39149   4.250   8.901  14.710  0.0627  0.0677 -0.1798
20296W        W39150  10.762  16.109   0.316  0.3581  0.2979 -0.0058
20297W        W39151   7.147  17.996   0.852 -0.0686  0.1266 -0.0458
20298W        W39152  16.428  13.683  12.782 -0.0472 -0.1479 -0.1173
20299W        W39153   3.149   2.660   4.048  0.3186  0.1103 -0.1251
20300W        W39154   6.998   8.809  14.828 -0.0029  0.2342  0.2168
20301W        W39155   3.059  14.483   3.383 -0.0735 -0.1588  0.2923
20302W        W39156   5.554   8.272   3.142  0.4081  0.0593 -0.2039
20303W        W39157   6.385  15.912   3.320 -0.0177 -0.0818  0.2669
20304W        W39158  17.152  11.174   2.574 -0.1658  0.0868 -0.2824
20305W        W39159  15.398  15.975  13.259 -0.1332  0.2669  0.1686
20306W        W39160  14.437   4.405   0.093 -0.1599  0.0837 -0.1560
20307W        W39161   8.070  16.862  15.217  0.2853  0.1260 -0.0432
20308W        W39162   4.014   9.580   2.608 -0.0550 -0.3106  0.1054
20309W        W39163   4.836   4.901   0.693 -0.3314  0.1810  0.0548
20310W        W39164   3.515  12.088  16.170 -0.2318 -0.0805 -0.0285
20311W        W39165  15.767  11.656   3.802  0.2026 -0.2734  0.0886
20312W        W39166  16.179   2.786   2.004  0.2035  0.4368  0.1908
20313W        W39167   3.231   0.049   4.010  0.1909 -0.0202  0.0461
20314W        W39168   5.237  11.081   5.324  0.2366  0.1294 -0.0698
20315W        W39169   3.687   8.308  12.714 -0.1887  0.0525 -0.2846
20316W        W39170  17.874   2.865  16.167  0.1356  0.0876  0.0083
20317W        W39171  17.327   4.357   0.274  0.1781 -0.2175  0.0492
20318W        W39172  14.049   0.633  13.372  0.4102 -0.0560 -0.0098
20319W        W39173  17.775   2.764   3.404 -0.2430  0.0078  0.0126
20320W        W39174   7.605  15.205  11.803 -0.0616 -0.1420 -0.1198
20321W        W39175   9.463  14.615  14.524  0.2333  0.1929 -0.1086
20322W        W39176  14.622  14.032  14.934 -0.2917  0.3797  0.0484
20323W        W39177   6.692  10.737  13.171 -0.1205 -0.0339  0.2421
20324W        W39178  17.305  13.234   0.597  0.1906 -0.0224 -0.0193
20325W        W39179   8.901  17.138  15.703 -0.2292  0.1276  0.0944
20326W        W39180   7.087  11.106   1.575  0.0058  0.2273 -0.0084
20327W        W39181   3.136   7.846   1.750 -0.0486  0.2131 -0.1682
20328W        W39182   8.995  12.572   2.057 -0.0330 -0.1422  0.1869
20329W        W39183   6.789  10.429   2.795  0.1699 -0.0238  0.0555
20330W        W39184   0.474  12.383   4.691  0.0253  0.1291 -0.3224
20331W        W39185   2.591  13.230  11.783  0.0926  0.1901  0.1268
20332W        W39186   2.098   9.374   2.400 -0.0475  0.0380 -0.0937
20333W        W39187  13.599   4.806   1.819  0.0273 -0.0871 -0.1744
20334W        W39188   4.460   7.987   2.255 -0.0617  0.1433 -0.4124
20335W        W39189  11.431  11.735  11.720  0.0398  0.1877 -0.0804
20336W        W39190  16.752  10.778  13.268 -0.2539  0.3452 -0.0129
20337W        W39191  12.233   9.849   3.274 -0.0262 -0.2631 -0.0186
20338W        W39192   5.114  12.884   3.378 -0.3075 -0.0163 -0.1512
20339W        W39193   2.950  15.128  13.842 -0.0994  0.0850 -0.0061
20340W        W39194   7.272   7.681  11.498 -0.2460 -0.0016 -0.1510
20341W        W39195   2.163   6.773   2.578  0.1054  0.1632  0.3801
20342W        W39196   1.267   0.689   1.990  0.1280 -0.1412 -0.1772
20343W        W39197  12.757   6.364  16.015 -0.0238 -0.0712 -0.3248
20344W        W39198   4.915   8.522  14.271  0.3056  0.1598 -0.1106
20345W        W39199   2.593  10.422   2.033  0.2909  0.0016 -0.2750
20346W        W39200   3.489   9.287   4.859  0.2233  0.0699 -0.0009
20347W        W39201   5.364   4.211  14.933 -0.3012  0.4563 -0.4903
20348W        W39202  16.266  17.529   0.163  0.2681  0.0713 -0.2620
20349W        W39203   1.629   7.725  15.459  0.1198 -0.0475 -0.0028
20350W        W39204   9.007   9.371  11.809  0.1145 -0.1520  0.2498
20351W        W39205   5.335  13.579  11.367  0.3094 -0.0137  0.2497
20352W        W39206   6.542   8.288   3.112 -0.0571 -0.1566  0.0170
20353W        W39207  17.232  11.669  14.422 -0.1464 -0.1743 -0.0113
20354W        W39208   1.824   5.936   2.042 -0.0826  0.1496 -0.2582
20355W        W39209  10.453   9.241  15.934 -0.1858  0.0723  0.1760
20356W        W39210   8.974  17.019  12.866  0.1095  0.0771  0.1392
20357W        W39211  14.670  12.509   2.368  0.0419  0.1893  0.0233
20358W        W39212   4.264   6.688  15.253  0.1374  0.1627  0.3088
20359W        W39213   8.611  13.101   0.826  0.1625  0.0521 -0.0611
20360W        W39214  11.697   9.968   3.419 -0.5792 -0.1474  0.2066
20361W        W39215  15.330   0.922   1.103 -0.1565 -0.0498  0.0731
20362W        W39216   7.417   3.836   2.627  0.3690  0.2201 -0.1602
20363W        W39217   2.537  13.776  11.976 -0.0404  0.0340  0.0704
20364W        W39218  10.098   9.277   3.758  0.0492 -0.0015  0.0144
20365W        W39219  12.078   5.404   1.266  0.0655  0.0335  0.1744
20366W        W39220   3.258   5.655   3.519  0.0309 -0.0356  0.1460
20367W        W39221   7.256  15.709   4.948  0.3609  0.1602 -0.2074
20368W        W39222   2.066  13.167   0.121  0.0228  0.0492  0.2868
20369W        W39223  12.502   0.079  13.970 -0.2689  0.0064  0.0768
20370W        W39224   6.570  15.891   2.047  0.0514  0.0113  0.1586
20371W        W39225  11.403  17.110   4.189 -0.1614  0.4194  0.1358
20372W        W39226   5.362  15.714  13.884  0.2854  0.3811  0.0548
20373W        W39227   9.735  10.640  13.409 -0.0295  0.1466  0.1393
20374W        W39228   1.070  16.417  16.052 -0.1436 -0.2087 -0.2065
20375W        W39229  14.879  15.378  13.838 -0.1226 -0.0430 -0.0204
20376W        W39230   9.965  14.249  13.343  0.0181  0.2489  0.4619
20377W        W39231  13.323   1.692   1.207  0.0650  0.1980 -0.3014
20378W        W39232   3.830  16.402  12.641 -0.0263 -0.0229 -0.0190
20379W        W39233  16.259  16.416   2.830  0.2743 -0.2313  0.0290
20380W        W39234  13.439  10.236   1.009  0.0332  0.1229  0.0745
20381W        W39235   2.313   8.705   3.853 -0.3252 -0.0198  0.0536
20382W        W39236  17.119   1.244  13.162 -0.0223 -0.1178  0.3997
20383W        W39237   1.351  12.580  15.031  0.1469 -0.1450  0.1636
20384W        W39238   8.287  14.295  13.111  0.1530 -0.0326  0.0101
20385W        W39239  11.968  13.703   1.876 -0.1588 -0.2244  0.1158
20386W        W39240  14.566   6.320   0.884 -0.0502  0.1695  0.0918
20387W        W39241  16.349  12.711   5.447 -0.0467 -0.0880 -0.1529
20388W        W39242   0.649   6.011  14.739 -0.0626 -0.0175  0.2288
20389W        W39243   5.888   1.330   0.458  0.1031 -0.0328  0.0076
20390W        W39244  11.383   5.606   2.191  0.1411  0.0923  0.1745
20391W        W39245   6.592  14.702  11.829  0.0515  0.3483  0.0385
20392W        W39246   6.569   7.989  13.228 -0.0379 -0.0753  0.0732
20393W        W39247   0.466   8.291   1.214 -0.1076  0.0882  0.2679
20394W        W39248   7.701   0.992   2.281 -0.1958  0.0558  0.0572
20395W        W39249   9.427  17.454  11.745 -0.0150  0.0605 -0.0330
20396W        W39250  12.373  11.627   3.429  0.3580  0.0237  0.0600
20397W        W39251   6.295   2.110  15.631 -0.1845 -0.0303  0.1774
20398W        W39252  13.747   7.476   3.792 -0.1105 -0.0823  0.0058
20399W        W39253   6.318   2.393  11.688  0.0125  0.1054 -0.2110
20400W        W39254  10.919   2.892   4.265  0.3292  0.0410 -0.0918
20401W        W39255  14.130  11.030   3.160  0.0654 -0.1389  0.0328
20402W        W39256  17.084   5.272  12.537  0.2378 -0.0381 -0.3498
20403W        W39257   4.355  10.095  11.239 -0.1579 -0.1574  0.2018
20404W        W39258   7.682   2.497   3.998  0.2432 -0.1125 -0.4026
20405W        W39259   4.201  15.752  16.033  0.0064  0.1743  0.1273
20406W        W39260  11.161   8.479  14.952  0.0401 -0.1436 -0.2283
20407W        W39261  17.463   7.592  13.575 -0.0572  0.1833 -0.1255
20408W        W39262   7.011   0.505  13.517 -0.0099  0.0111 -0.0061
20409W        W39263  15.526  12.360  14.123  0.0349  0.0328  0.0202
20410W        W39264  16.191  14.161  14.599  0.1859 -0.1133 -0.0008
20411W        W39265  11.930   1.439   2.441 -0.1874 -0.1845 -0.1526
20412W        W39266   8.077  17.638  11.418 -0.1584 -0.1849  0.1814
20413W        W39267  13.793  13.849  15.676 -0.2194 -0.0697 -0.0773
20414W        W39268  14.981  16.812   3.381  0.1547  0.1826  0.0896
20415W        W39269   4.993   1.161   4.939 -0.1099  0.2864  0.0920
20416W        W39270   1.351   3.220   2.607 -0.3733 -0.0573  0.3525
20417W        W39271  15.882  13.327  14.247  0.1546 -0.1227  0.2886
20418W        W39272   6.671   4.872   0.292  0.1413  0.0060 -0.0855
20419W        W39273   8.894   6.439  12.833  0.0487  0.0331 -0.2934
20420W        W39274   7.780  16.490  14.493  0.0872  0.0520  0.2034
20421W        W39275  10.962   6.505  14.376 -0.2646 -0.3280 -0.2161
20422W        W39276   8.915  16.957   0.139 -0.0133 -0.0835 -0.0348
20423W        W39277  14.077  15.266  13.985 -0.0298  0.1010  0.0706
20424W        W39278   2.275   6.325  11.687  0.1836 -0.2001 -0.0742
20425W        W39279   4.212   5.179  12.038 -0.1592  0.1525 -0.0210
20426W        W39280   7.780   4.236  13.019  0.2277 -0.0933 -0.1913
20427W        W39281  15.975  17.868  11.811  0.1406  0.3211 -0.1406
20428W        W39282   7.596   5.226   2.683 -0.1855 -0.0620  0.0245
20429W        W39283   5.612   1.352  10.545 -0.2308 -0.0042  0.0702
20430W        W39284  12.827  12.313  11.873 -0.1102 -0.0175  0.2973
20431W        W39285  11.874  11.908  15.191 -0.1443 -0.0655 -0.1850
20432W        W39286   7.313   1.482  15.587 -0.2207  0.2745  0.2435
20433W        W39287   4.027   5.948   1.164 -0.1257 -0.1665 -0.0270
20434W        W39288   6.399  11.252   4.453  0.0793  0.3006  0.0130
20435W        W39289  17.063   1.090   1.661  0.0795 -0.0398  0.0896
20436W        W39290  16.141  13.628   0.255 -0.4500  0.4221  0.1941
20437W        W39291  16.200   7.123  15.554 -0.0752 -0.0612 -0.0711
20438W        W39292  14.097  10.875  12.066  0.1162 -0.0401 -0.4664
20439W        W39293   1.494  13.150  11.108  0.1045 -0.0622  0.0724
20440W        W39294   2.496   9.935   1.972 -0.0177  0.0784  0.0154
20441W        W39295   9.123   5.286  15.392  0.1796  0.1250  0.1094
20442W        W39296   6.646  13.824  12.895  0.2067 -0.3361 -0.0105
20443W        W39297   1.855   6.409   1.694  0.2522  0.1779 -0.0045
20444W        W39298   5.258  17.519  14.827 -0.0677  0.1551 -0.0672
20445W        W39299  13.309  12.989   3.291 -0.0747 -0.0204  0.1694
20446W        W39300  13.529   5.467  13.654 -0.1406  0.0355 -0.0432
20447W        W39301   8.066  10.475   1.889  0.1631 -0.0748 -0.1041
20448W        W39302   7.226  13.737   0.120 -0.1211  0.0666  0.1530
20449W        W39303  11.586   4.055  13.747 -0.0198  0.0366  0.0601
20450W        W39304  16.194  10.824   3.894  0.1417  0.0344 -0.1039
20451W        W39305   4.929   0.714   4.307  0.1434 -0.0649 -0.3267
20452W        W39306   9.781   1.193  11.624 -0.2790 -0.0806 -0.0207
20453W        W39307   7.702   5.990  14.504 -0.0946  0.2258  0.0115
20454W        W39308   3.921   1.422   4.116  0.0828 -0.1097  0.2502
20455W        W39309   8.297  17.368  11.864  0.3027 -0.0882 -0.1273
20456W        W39310   1.682   8.047  13.812 -0.0348  0.3696  0.1643
20457W        W39311  16.474   7.988  12.152 -0.1671 -0.0838  0.0992
20458W        W39312   4.364  15.741  14.358  0.0392 -0.0280  0.1085
20459W        W39313   3.043  16.604  11.763  0.0768 -0.3463 -0.0195
20460W        W39314  12.067   1.236  14.192  0.1326 -0.0276  0.0093
20461W        W39315   7.686   7.744   3.668  0.0815  0.0347 -0.0648
20462W        W39316  14.029  11.015   1.150  0.1191 -0.2831  0.0907
20463W        W39317  17.708  13.154   4.066 -0.0599 -0.0197  0.0218
20464W        W39318   1.223   4.408  11.773 -0.0719 -0.1468 -0.1229
20465W        W39319  14.798   7.691   1.234  0.0074 -0.1215  0.2174
20466W        W39320   6.030   1.937  12.135  0.2098  0.0900 -0.1382
20467W        W39321  15.478   1.432   2.137 -0.0839 -0.0869  0.0551
20468W        W39322  17.819  10.990   0.104 -0.1806 -0.0960  0.2926
20469W        W39323  10.841  15.169   3.702 -0.0729  0.0480  0.1647
20470W        W39324   5.633  11.647   0.442  0.0989  0.2079  0.1303
20471W        W39325   4.900  13.797  14.539 -0.3954  0.2858 -0.0490
20472W        W39326   2.432   1.886   2.084  0.0606 -0.2134  0.2451
20473W        W39327  16.834  10.290   2.125  0.4654 -0.0127 -0.1884
20474W        W39328   6.575   5.943   1.944 -0.1309 -0.2064  0.0569
20475W        W39329   5.710   4.245   4.392 -0.0577 -0.0482  0.0933
20476W        W39330  16.923   7.977  15.358 -0.0378 -0.1053 -0.5669
20477W        W39331   0.361  12.830   3.159  0.0777  0.0423  0.0369
20478W        W39332  16.205  17.229  13.922 -0.0928  0.2111 -0.0345
20479W        W39333   8.857   9.499  15.222 -0.0108 -0.0059  0.2130
20480W        W39334   3.507   8.303   1.015  0.0561 -0.0805 -0.3584
20481W        W39335   4.923   4.408  15.274  0.0358 -0.0305  0.0859
20482W        W39336  13.874   5.505  11.419 -0.0951  0.2019  0.1588
20483W        W39337   6.165   2.761   3.203 -0.2142 -0.0874  0.3577
20484W        W39338   5.507  17.830   5.673  0.0603  0.1591  0.2580
20485W        W39339   9.217   2.486   3.961 -0.2930  0.1047 -0.0444
20486W        W39340   8.297   3.890   0.738  0.1641  0.0314  0.2786
20487W        W39341   9.052  11.991   4.917  0.1756 -0.0884  0.0678
20488W        W39342  17.539  12.898   0.237  0.0751  0.1519  0.0658
20489W        W39343   7.223   5.210   3.433 -0.0378  0.1492 -0.0631
20490W        W39344  12.085   4.637   0.032  0.0969 -0.0907 -0.0339
20491W        W39345   7.425  14.762   4.913 -0.0567  0.0752 -0.0608
20492W        W39346   0.211   7.608   1.615  0.0713 -0.1363  0.1448
20493W        W39347  12.059  12.573  14.640 -0.1832  0.3291 -0.1677
20494W        W39348   3.475   6.014  14.401 -0.0289 -0.0744 -0.0799
20495W        W39349   4.007  17.876  14.040  0.0469 -0.2086 -0.3070
20496W        W39350   7.619   9.652  15.844 -0.0095  0.0549 -0.1243
20497W        W39351   1.766   9.984   0.086  0.1107  0.0148  0.4855
20498W        W39352   8.101   3.957  12.111  0.1195 -0.0660 -0.0110
20499W        W39353   1.915   1.263   1.423 -0.0282 -0.1389 -0.0416
20500W        W39354   0.490   9.382   1.612  0.0120 -0.1367 -0.0532
20501W        W39355   8.643   0.378   3.296 -0.0264 -0.0644  0.3027
20502W        W39356  17.947  10.116   3.172 -0.0228 -0.1750 -0.1764
20503W        W39357  15.963   9.216   2.806 -0.0027  0.0830  0.1159
20504W        W39358  13.184  16.904  13.642 -0.0058  0.1190 -0.3413
20505W        W39359   8.488   1.348   4.741 -0.0881  0.0879  0.1613
20506W        W39360  16.904  11.081   1.162 -0.0061  0.0008  0.0907
20507W        W39361   4.673   4.660  13.920  0.1919 -0.1158  0.1245
20508W        W39362   6.211  17.849   4.404  0.1050 -0.1251  0.0629
20509W        W39363  17.992  14.783   5.613 -0.0500 -0.0032  0.0311
20510W        W39364  11.195  10.769  14.308 -0.1173  0.2923 -0.3162
20511W        W39365   2.276  16.343   4.611  0.1830 -0.4057 -0.0730
20512W        W39366  16.814   7.698  15.021  0.0364 -0.1638  0.0232
20513W        W39367   0.312   8.474  13.406  0.1238  0.0367  0.0925
20514W        W39368  14.210   7.807  11.457 -0.3720  0.0295 -0.3417
20515W        W39369  14.725   5.256   2.824  0.0168 -0.3040 -0.0154
20516W        W39370   9.293  15.059   2.484  0.1260 -0.1480  0.1608
20517W        W39371   9.365   1.042   0.002 -0.1325 -0.0215  0.0125
20518W        W39372   8.937   4.394  15.171 -0.1149 -0.1353  0.2697
20519W        W39373  11.085  10.926  12.371 -0.2679  0.0707 -0.0493
20520W        W39374   1.933   7.814   3.553  0.1585  0.1589  0.1392
20521W        W39375   8.472   7.203  15.586  0.0706  0.3189  0.2680
20522W        W39376  13.979   9.656   0.122 -0.0220  0.0995 -0.0332
20523W        W39377   7.966  13.720   5.984  0.3995 -0.1159  0.1017
20524W        W39378   4.554   6.860  15.758  0.2676  0.0153  0.2129
20525W        W39379   8.389   8.518   2.395  0.0372  0.0532 -0.1915
20526W        W39380  12.697   6.561   1.163  0.2192 -0.0274 -0.0157
20527W        W39381  16.794  13.379  12.452 -0.0330  0.0055 -0.3566
20528W        W39382   2.029   8.012   4.768 -0.1861 -0.0388  0.2126
20529W        W39383   2.423  10.689   4.720  0.2937  0.0562 -0.1130
20530W        W39384   8.106   6.636  11.405  0.0004  0.1940 -0.2849
20531W        W39385   6.097  13.872   3.679 -0.2588 -0.1974 -0.1219
20532W        W39386  16.696   7.171  15.258  0.0958  0.1580 -0.3170
20533W        W39387  17.223   5.874   3.138 -0.1110  0.0164 -0.0002
20534W        W39388  10.798   7.344  15.411 -0.0617  0.1206  0.1020
20535W        W39389   0.524   1.981  12.922  0.3515  0.0736  0.0217
20536W        W39390   8.613  16.132  11.778 -0.2464 -0.0843 -0.0165
20537W        W39391  16.695   7.403   5.327 -0.1213  0.0888  0.0898
20538W        W39392  12.908   4.162   3.320  0.2831  0.1088 -0.0079
20539W        W39393  16.244   9.990  13.578 -0.1019 -0.1789 -0.1988
20540W        W39394   1.963  17.547  16.053  0.1697  0.0586 -0.1719
20541W        W39395   7.621  10.300   0.589 -0.0547 -0.1423 -0.1773
20542W        W39396   1.433   5.847  14.647  0.1273  0.4638 -0.0152
20543W        W39397   6.711  11.413  14.853 -0.0881  0.3054  0.2521
20544W        W39398   9.198  16.187  14.841  0.3393  0.0373 -0.0382
20545W        W39399  15.285   6.434   3.040  0.1458  0.1268 -0.1853
20546W        W39400   5.574   5.212  14.615 -0.0041 -0.1783  0.0094
20547W        W39401   8.922  16.095  15.785 -0.1724 -0.1094  0.1697
20548W        W39402  11.234  17.874   1.344  0.0385 -0.0249  0.1086
20549W        W39403   5.655   4.777  15.786 -0.0865  0.0848  0.1656
20550W        W39404   0.912   6.495   2.147 -0.2687 -0.1799 -0.1330
20551W        W39405   5.902  14.489  11.793  0.1556 -0.0848 -0.2589
20552W        W39406  13.643   7.113  15.417  0.2450 -0.3075  0.0931
20553W        W39407   7.233   9.082  11.175 -0.4898  0.0746 -0.0667
20554W        W39408  17.280   7.177  14.399  0.1264  0.2197 -0.0313
20555W        W39409  15.556   1.087   3.132 -0.1001  0.0606 -0.0034
20556W        W39410  11.202  14.586   3.039 -0.2914  0.1100  0.0512
20557W        W39411   0.982   2.571  11.678 -0.1761  0.0638 -0.0983
20558W        W39412   1.414   0.040   3.950 -0.0319 -0.0360 -0.1293
20559W        W39413   4.170  10.630  14.599 -0.1567  0.0557 -0.0654
20560W        W39414  13.801   8.745  11.517  0.1044 -0.0837 -0.1519
20561W        W39415  15.687  10.287   4.739 -0.2851 -0.0080  0.0694
20562W        W39416  12.437   7.201  14.519  0.3647  0.2601 -0.0678
20563W        W39417  16.910   2.489   0.729  0.0637 -0.3406  0.0067
20564W        W39418  15.892   8.990  13.946 -0.1257 -0.0922 -0.4359
20565W        W39419   3.625  11.750   1.333 -0.2060 -0.0420  0.0194
20566W        W39420   7.299  13.193  13.100 -0.0167 -0.0769  0.4604
20567W        W39421   0.797  14.081  10.851  0.0641  0.1111  0.1877
20568W        W39422  11.916  13.928   2.809 -0.2370 -0.2040  0.0470
20569W        W39423  16.860  14.834  14.771 -0.0913 -0.2246  0.1538
20570W        W39424   1.319   4.571  14.365 -0.1990  0.0231 -0.1877
20571W        W39425   6.874  14.956  14.753 -0.2205 -0.1368 -0.0362
20572W        W39426   6.799   3.532  14.009  0.1834  0.0117 -0.0318
20573W        W39427  10.709   9.342   0.123 -0.0549  0.0382  0.1749
20574W        W39428   3.447  12.116   2.466  0.1293  0.4223  0.0024
20575W        W39429   5.540  13.410   1.733  0.2615 -0.3068 -0.0551
20576W        W39430  16.814   2.090  16.219 -0.3706  0.3434  0.0049
20577W        W39431  12.143   7.746  13.588  0.0615  0.2291 -0.0581
20578W        W39432  11.870   4.070   3.383 -0.2024  0.1144  0.1558
20579W        W39433   3.935   1.874  12.313 -0.1164  0.0868  0.3918
20580W        W39434  14.233   4.963  11.300 -0.0654 -0.2495 -0.2424
20581W        W39435  10.996  10.272  14.313 -0.0334  0.0015 -0.1171
20582W        W39436  13.330   9.862  11.685 -0.1066 -0.2592 -0.0303
20583W        W39437   3.823  17.648  16.085 -0.4243 -0.2467 -0.0544
20584W        W39438   5.924   3.336   2.396 -0.0132 -0.2911  0.1160
20585W        W39439   5.841  12.638  12.628  0.1614 -0.0990 -0.0114
20586W        W39440  10.431  12.694   0.116  0.1344  0.1514 -0.0272
20587W        W39441  16.073   6.282  11.688  0.0494 -0.0388  0.3085
20588W        W39442   4.747  13.281   4.331  0.0392 -0.3679  0.2060
20589W        W39443  11.221   4.482  11.724  0.3691  0.0230 -0.2272
20590W        W39444   9.014   3.426   2.064 -0.0477  0.3758 -0.0042
20591W        W39445   8.571  10.825   4.418  0.1132  0.0609 -0.0798
20592W        W39446  12.347   4.398   2.705 -0.0120  0.0233 -0.0118
20593W        W39447   5.191  17.874  14.415 -0.3450  0.1033 -0.0834
20594W        W39448   4.850   1.263   1.747 -0.0232  0.0758 -0.1371
20595W        W39449  10.632  10.293  12.275  0.0064  0.0752 -0.0379
20596W        W39450  17.995  10.901  12.448  0.3164  0.0367 -0.2646
20597W        W39451  17.069   5.365   3.146  0.1101  0.1946  0.0331
20598W        W39452   9.990   7.996  13.194 -0.3115 -0.3582 -0.2136
20599W        W39453   7.226  17.690  14.399  0.1791 -0.1203  0.2360
20600W        W39454   3.580   2.585  13.044 -0.2129 -0.0405 -0.2030
20601W        W39455   6.548  16.635  15.114  0.0562  0.0054  0.0544
20602W        W39456  11.904   7.787   3.725  0.0828 -0.4547  0.1174
20603W        W39457  15.035   5.289   1.265 -0.1007 -0.1838  0.1214
20604W        W39458  10.932  12.884  14.966 -0.1355  0.0942 -0.0193
20605W        W39459  14.323  17.933  13.796  0.0160 -0.0019  0.1625
20606W        W39460   9.549  17.046   1.571 -0.0826  0.1939 -0.1327
20607W        W39461  14.774   5.644  14.261 -0.0452 -0.0030  0.1801
20608W        W39462   5.460   9.344  15.930  0.1814 -0.2314 -0.0707
20609W        W39463   6.129  12.360   0.173 -0.3340  0.2368  0.0135
20610W        W39464   3.501   9.869  12.722  0.2214  0.0371  0.1359
20611W        W39465   7.793   6.710  14.314  0.0833 -0.3269  0.1643
20612W        W39466   5.307  11.587   2.372 -0.1468 -0.1280  0.3250
20613W        W39467  12.820   2.255  14.577 -0.1346  0.1428  0.1963
20614W        W39468   9.743  10.382  15.726 -0.2459  0.3014  0.1377
20615W        W39469   5.021  17.379   2.559  0.0588 -0.1517 -0.0704
20616W        W39470   0.241   3.048   3.414 -0.2369  0.0958  0.1686
20617W        W39471  16.106   1.436   1.352  0.0797  0.0943 -0.1737
20618W        W39472   1.321  11.400   4.965  0.5131 -0.2206  0.1658
20619W        W39473  11.324  10.687   0.897 -0.3013  0.0385  0.1987
20620W        W39474  14.325   8.146   3.627 -0.1857 -0.2393  0.0270
20621W        W39475   6.585  10.236  13.324  0.0181 -0.0394 -0.1221
20622W        W39476  13.994   4.479  14.054  0.0164  0.1081  0.0381
20623W        W39477  16.675  13.546   4.439 -0.0105  0.2532 -0.0905
20624W        W39478  16.999   5.810   0.058 -0.0860  0.2115  0.0069
20625W        W39479  16.957  14.515   4.189 -0.3479  0.2108  0.0473
20626W        W39480  17.746   3.725   0.254  0.2472  0.1897  0.2560
20627W        W39481  13.127  12.061   0.699  0.0770 -0.0620  0.1132
20628W        W39482  18.037  15.320   1.787  0.1044  0.0727  0.0406
20629W        W39483  10.326  15.585   1.636 -0.0861 -0.4958 -0.2373
20630W        W39484   6.367  11.477  12.291 -0.3184  0.1206  0.5905
20631W        W39485  13.744   8.116   1.929 -0.0826 -0.0064 -0.2483
20632W        W39486   6.161   5.858  13.681  0.1913  0.1376 -0.2056
20633W        W39487   1.035   9.021  11.796  0.2658 -0.0145  0.2680
20634W        W39488   0.046  13.255   0.445  0.0073 -0.2734  0.0403
20635W        W39489  13.343   9.125   0.984  0.0703  0.0561 -0.0875
20636W        W39490  11.484   5.657   4.253  0.0592 -0.1812  0.2326
20637W        W39491   6.524   5.037   5.080  0.2095 -0.0405  0.2935
20638W        W39492  10.374  13.378   3.643  0.2976 -0.0335  0.1029
20639W        W39493   5.965  12.907   1.856  0.0446  0.2081  0.0885
20640W        W39494   8.432   0.008  13.936 -0.1319  0.0863  0.0505
20641W        W39495  13.052   1.832   4.778  0.0915 -0.1263  0.2169
20642W        W39496   3.397   8.117   2.174 -0.0752  0.1338 -0.1848
20643W        W39497   0.749  17.210  15.796  0.0041 -0.2464 -0.2442
20644W        W39498   0.139  17.854   1.127  0.2719  0.1597 -0.1292
20645W        W39499   6.807  16.382   1.158  0.0659  0.0087 -0.0454
20646W        W39500  14.508  16.161  11.364 -0.0358 -0.0172  0.2079
20647W        W39501   5.064  16.631   3.344  0.0567 -0.0151  0.0972
20648W        W39502   3.539   6.983  12.923  0.0126  0.2000  0.0410
20649W        W39503   4.989   9.569   3.701 -0.1389  0.0676 -0.0546
20650W        W39504   6.617   4.137   4.124  0.0408 -0.0153  0.3081
20651W        W39505   0.189   8.948  13.311  0.0082 -0.4399  0.0464
20652W        W39506  13.821   6.697   2.648 -0.2095  0.0487  0.1694
20653W        W39507   0.786   5.672   1.978 -0.2247 -0.0809 -0.0174
20654W        W39508  12.984   3.595  14.900  0.1345  0.1219 -0.0372
20655W        W39509  13.695  17.071   3.392 -0.1714 -0.0667 -0.1716
20656W        W39510   9.052   4.895  12.085  0.1149 -0.0210  0.2935
20657W        W39511  11.673  10.675  15.655 -0.0984  0.1383  0.1880
20658W        W39512  14.643   2.342  13.056  0.0242 -0.2440  0.3089
20659W        W39513  17.404   8.515  14.447 -0.1484 -0.0371  0.2221
20660W        W39514  17.810  13.549   4.412 -0.1811  0.0554 -0.0409
20661W        W39515   1.671   7.785  11.249  0.2137  0.1523 -0.1253
20662W        W39516  12.498   8.514  16.217  0.3253  0.1951  0.0511
20663W        W39517   2.533   4.892   1.884  0.2287 -0.0301  0.2319
20664W        W39518  10.878   8.900  13.347  0.1764  0.0841  0.2496
20665W        W39519  16.374   3.940   3.838 -0.2989  0.3115 -0.1565
20666W        W39520  15.421   8.449   2.815  0.1082 -0.0154 -0.1180
20667W        W39521   1.006  12.643  15.616  0.3934 -0.0436  0.2585
20668W        W39522  15.029  10.031  12.710  0.0046 -0.2839  0.0933
20669W        W39523  15.127  11.867   3.291 -0.1023 -0.1016 -0.0604
20670W        W39524   7.161  17.021   0.388 -0.1959 -0.2659 -0.0584
20671W        W39525   2.181   2.935   2.166 -0.0265  0.3597 -0.1715
20672W        W39526   7.389  15.701  14.717  0.0283  0.1040 -0.1297
20673W        W39527  12.717   8.876  11.198  0.0654  0.1051  0.0719
20674W        W39528   3.406   8.103  14.433 -0.1654  0.2296  0.1657
20675W        W39529  11.179   7.667  15.248 -0.1743 -0.0148 -0.1040
20676W        W39530   9.315   1.996  12.602  0.1321 -0.0641 -0.2157
20677W        W39531   0.770   7.791  11.419  0.1567 -0.1909  0.1013
20678W        W39532   6.119   8.042   1.978  0.0640  0.2368  0.0385
20679W        W39533   5.196  18.005  12.576  0.1819  0.1477  0.1264
20680W        W39534   1.548   9.232  13.140 -0.1484  0.3149 -0.0262
20681W        W39535  10.503  10.015   5.017  0.3346 -0.0205  0.0826
20682W        W39536   6.924  16.550  10.807  0.4522  0.1194  0.2973
20683W        W39537   5.758   1.406  16.141  0.1375  0.1774  0.1228
20684W        W39538   4.439  13.398  12.226  0.1182  0.1635 -0.3596
20685W        W39539  17.153   8.180   3.490 -0.2739  0.0318 -0.0263
20686W        W39540  17.512   4.149  11.997  0.1001  0.2811  0.1133
20687W        W39541   5.273   7.505  14.348  0.1496 -0.2094 -0.1044
20688W        W39542   8.006  12.075   4.025 -0.2237 -0.0823  0.1620
20689W        W39543  15.091  13.191   3.321  0.0611 -0.1729 -0.1074
20690W        W39544  12.252  12.952   3.222 -0.2526 -0.1565  0.1887
20691W        W39545  12.107  13.578   3.952  0.3485 -0.1268  0.0703
20692W        W39546  18.028  10.098   0.203  0.2095  0.1557 -0.2441
20693W        W39547  13.397  17.266   3.044 -0.0622  0.3902 -0.2411
20694W        W39548   3.756   1.396  13.494  0.1165 -0.0550  0.0505
20695W        W39549  15.436   5.366   3.384  0.0894  0.3051  0.0788
20696W        W39550  11.674   0.717   3.566  0.0792 -0.1786 -0.1081
20697W        W39551   7.052   6.784   4.519  0.0656  0.0308 -0.0047
20698W        W39552  17.261  15.418   3.710  0.3829 -0.1433  0.1050
20699W        W39553   8.036   8.099   0.296 -0.3123  0.2055 -0.1378
20700W        W39554   5.450   4.337  12.300  0.0251  0.2821  0.1310
20701W        W39555  13.843  17.418  13.353 -0.0418  0.2554  0.1128
20702W        W39556  11.933  12.992  13.288  0.0648 -0.1109  0.2084
20703W        W39557  13.689  13.948  11.977  0.0022 -0.2977 -0.0259
20704W        W39558  10.522  10.812  14.038 -0.3207  0.1010 -0.0081
20705W        W39559  10.405   9.931  11.795 -0.0719 -0.0831  0.0483
20706W        W39560   4.620  10.004   2.764  0.3228  0.3030  0.0229
20707W        W39561  16.899   1.438   2.752  0.1024 -0.0321 -0.0196
20708W        W39562   2.297   5.404  15.927  0.2006 -0.0200 -0.2074
20709W        W39563  16.855  10.210   0.757 -0.2823  0.0318 -0.2768
20710W        W39564   7.493   5.829  11.728 -0.0130  0.1404 -0.0851
20711W        W39565  14.568  12.355   2.907 -0.1325 -0.0201  0.2257
20712W        W39566   2.986  10.002  12.867  0.0097  0.1427  0.1263
20713W        W39567  15.440   0.045   5.033 -0.1010  0.0704 -0.3628
20714W        W39568   7.865   8.311   2.924  0.1565  0.2892  0.1468
20715W        W39569   7.512   0.677   1.899  0.1960 -0.2326 -0.0019
20716W        W39570  15.013   7.457  11.604 -0.2056  0.0271  0.1440
20717W        W39571   0.989   8.929   1.681  0.0126 -0.0668 -0.2434
20718W        W39572   9.583   8.597   1.190  0.0819  0.2878  0.1296
20719W        W39573   1.941   2.921   0.591  0.0476  0.0533 -0.1087
20720W        W39574  10.397   3.013   4.510  0.0426 -0.0382  0.1211
20721W        W39575  14.849  15.791  14.642 -0.2028  0.0858 -0.0434
20722W        W39576   1.149   3.141   1.869 -0.1233  0.2711  0.1275
20723W        W39577  15.279  14.380   2.134 -0.1601 -0.1615 -0.1115
20724W        W39578   9.679  13.095  14.630  0.2133  0.2847 -0.3929
20725W        W39579   7.758   8.057  15.635  0.0202  0.1981  0.2628
20726W        W39580   8.731   6.282  14.106  0.1209  0.2734  0.2954
20727W        W39581   4.067  13.953   1.305  0.2090  0.2900  0.0842
20728W        W39582  17.907   3.814  14.013  0.2920 -0.2272  0.0650
20729W        W39583  14.270   0.751  15.628  0.2953 -0.0403  0.1280
20730W        W39584   6.508   2.803   0.686 -0.1827  0.0392  0.0640
20731W        W39585  10.048  15.731   1.192 -0.1051 -0.0948  0.0411
20732W        W39586  12.701  11.967  13.065 -0.0329 -0.2596 -0.2133
20733W        W39587   4.102  11.072   0.559  0.2072 -0.0718 -0.2143
20734W        W39588  13.910   7.984   3.845  0.0792 -0.1152 -0.2054
20735W        W39589   9.687   8.512  12.525  0.0596 -0.3451  0.2240
20736W        W39590   1.903  16.995   2.548 -0.0640 -0.0204 -0.0782
20737W        W39591  10.337   4.651  12.677 -0.0207  0.2434 -0.0494
20738W        W39592   5.344  10.692  12.632 -0.1046 -0.1688  0.1495
20739W        W39593  16.857   3.319  13.270  0.0190 -0.0701  0.3281
20740W        W39594   0.143   6.627   2.451 -0.2112 -0.0328  0.3449
20741W        W39595  16.617   6.355  14.014  0.2721 -0.2415  0.1986
20742W        W39596   8.487   5.980   0.020  0.1235  0.2854 -0.0337
20743W        W39597  12.322   5.806   3.923 -0.2347  0.0726  0.0125
20744W        W39598   3.247  15.756  15.104 -0.1124  0.0223  0.0007
20745W        W39599   5.539  11.292  13.677  0.0412  0.1852 -0.1459
20746W        W39600   8.742   2.994  13.678  0.1420 -0.0689 -0.0899
20747W        W39601  16.915   3.849  15.795 -0.0783 -0.0421  0.2446
20748W        W39602  15.394  10.343  13.578 -0.0164  0.0990  0.3087
20749W        W39603  16.025  16.438   1.312  0.0200 -0.2013 -0.2395
20750W        W39604   7.422   0.767   4.179  0.2846 -0.4380 -0.0317
20751W        W39605   6.774   0.006   4.176  0.3503  0.0401 -0.0877
20752W        W39606   1.455   0.648   3.874  0.0335  0.1794 -0.0386
20753W        W39607  14.970   9.757   2.384  0.0488 -0.0490  0.1605
20754W        W39608   2.113  16.419  14.629 -0.0424 -0.3194 -0.3287
20755W        W39609  11.988   1.064  11.982 -0.0060  0.2122 -0.1512
20756W        W39610  12.535   2.976  14.038 -0.1167 -0.3767  0.1521
20757W        W39611   2.325   5.920  15.864  0.1016  0.0248 -0.0176
20758W        W39612   5.791   3.661  13.855 -0.0812 -0.2282 -0.1207
20759W        W39613  13.130  13.587  12.984  0.3117  0.0906 -0.0141
20760W        W39614  17.772   2.148   1.600  0.1005 -0.0344 -0.1315
20761W        W39615  17.518   7.132   2.993 -0.1285  0.0448  0.0671
20762W        W39616   2.023  16.842  12.254  0.1693 -0.1188 -0.1016
20763W        W39617  15.060   0.882   0.118 -0.1307  0.2909  0.0594
20764W        W39618  10.774  10.833   4.621 -0.1327 -0.0846 -0.1479
20765W        W39619  10.921   0.935  13.070  0.2398 -0.0735  0.3337
20766W        W39620   0.741   4.177  15.253 -0.0346 -0.6587  0.3223
20767W        W39621   7.983  12.779   3.869  0.0595 -0.2682 -0.0459
20768W        W39622   6.048  13.937  13.985 -0.1748 -0.2487  0.3527
20769W        W39623  13.284  12.693   0.206 -0.2201  0.0583  0.1307
20770W        W39624   1.813  17.827   2.275  0.1452 -0.0538  0.1882
20771W        W39625   4.412   0.422  15.685  0.1782  0.0981 -0.4030
20772W        W39626  14.795  10.322   0.654  0.1038 -0.5457  0.0493
20773W        W39627  14.614  12.574  11.068  0.3654 -0.1930  0.1287
20774W        W39628   2.201   1.476  12.264 -0.1281 -0.1282  0.4121
20775W        W39629   9.931   3.675  11.485 -0.1691  0.3238 -0.1055
20776W        W39630   2.933   3.819   1.393 -0.0885  0.0163  0.2513
20777W        W39631   8.913   1.130  11.520 -0.0580  0.1205 -0.4738
20778W        W39632  10.974   3.588  14.154  0.0892 -0.0714 -0.0143
20779W        W39633   4.290  15.204   4.519  0.1130 -0.1897  0.0659
20780W        W39634   3.451   2.954  11.558 -0.1582 -0.1267 -0.0504
20781W        W39635   2.886   3.615  15.583 -0.3007 -0.3884  0.0178
20782W        W39636   5.888   9.926   2.107 -0.1187 -0.0469 -0.1890
20783W        W39637   2.283   0.219  14.515  0.0273 -0.3431 -0.4159
20784W        W39638   9.188  11.639   1.060  0.0970  0.3065 -0.0459
20785W        W39639  13.174   2.219  15.345  0.2132  0.0471 -0.2794
20786W        W39640  17.552  12.896   3.046 -0.1725  0.2054 -0.0404
20787W        W39641   4.185   5.501  12.809  0.4312  0.0210  0.1821
20788W        W39642   9.223   7.693  15.418  0.0653 -0.2886  0.1268
20789W        W39643   9.659   7.063   4.709  0.1143 -0.1331  0.0347
20790W        W39644   6.110  10.206  12.900 -0.0733  0.1319  0.1663
20791W        W39645  17.870   9.777  13.565  0.0045  0.0722 -0.2826
20792W        W39646   2.147  16.590  11.837  0.4357 -0.0726  0.1134
20793W        W39647   1.628   2.764  15.751  0.1935 -0.0693  0.0447
20794W        W39648   9.772  10.630  14.453 -0.0193  0.0575 -0.0187
20795W        W39649  15.700   5.674   1.925  0.1804 -0.1833 -0.0435
20796W        W39650  10.636   9.831   0.162 -0.4170  0.0186 -0.0241
20797W        W39651   8.140   6.282  16.125 -0.1238 -0.0342 -0.1317
20798W        W39652  17.928   9.212   3.778  0.0556 -0.1927 -0.0709
20799W        W39653  15.140   9.741   3.544  0.0262  0.0425  0.0153
20800W        W39654  13.206  11.190  15.416  0.0577  0.3513 -0.0496
20801W        W39655  13.181   7.512  13.121  0.0431  0.2024 -0.0083
20802W        W39656  17.924  16.575   2.412 -0.2270  0.1845  0.2354
20803W        W39657  14.062   1.805  15.132 -0.1793 -0.2294 -0.0453
20804W        W39658   7.019   2.313   4.928  0.0791 -0.1861 -0.0985
20805W        W39659  14.672   1.217  12.192  0.0636  0.0975  0.1413
20806W        W39660   1.258   6.332  16.222 -0.1443  0.2327 -0.2317
20807W        W39661   7.015  15.434   0.934 -0.0048  0.2373 -0.0707
20808W        W39662   6.535   8.537   1.636 -0.2497 -0.0695  0.0651
20809W        W39663  16.766   5.068  13.008  0.1621 -0.0451  0.1798
20810W        W39664   5.668  10.194  14.233 -0.0871  0.2917 -0.0800
20811W        W39665  10.295   1.554  14.246 -0.1856  0.3690 -0.2603
20812W        W39666   1.275  13.920  12.835 -0.1280  0.4905  0.1110
20813W        W39667  16.834  15.699   4.979 -0.3592 -0.4466  0.2415
20814W        W39668  12.932  16.830   2.563  0.3199  0.0546 -0.1896
20815W        W39669  16.575   9.498  13.404  0.1107 -0.1191 -0.2323
20816W        W39670   0.282   4.136   2.526  0.0709  0.1168  0.1007
20817W        W39671  11.337  16.998  14.272  0.0692  0.1271  0.2673
20818W        W39672   5.569   2.587   0.081 -0.2131 -0.1839 -0.2549
20819W        W39673   0.834   3.248   2.675 -0.1096 -0.0770 -0.0930
20820W        W39674   7.578   3.161   3.471 -0.1418  0.2501 -0.0416
20821W        W39675   7.321  16.331   5.650  0.3173 -0.0309 -0.1289
20822W        W39676   0.544  12.917  14.877 -0.3512  0.0696  0.0235
20823W        W39677  15.961  10.209  12.728 -0.0208 -0.0208  0.0050
20824W        W39678   8.873  12.113   3.753 -0.1083 -0.1084  0.2478
20825W        W39679   2.947  10.316  11.622 -0.0799 -0.0439 -0.1541
20826W        W39680   9.326   9.022   0.868  0.0676  0.1204 -0.2589
20827W        W39681  17.054   6.143  15.381 -0.1123  0.0186  0.0177
20828W        W39682  14.718  10.667   2.034 -0.0835  0.1328 -0.0823
20829W        W39683   5.059   4.582   5.124 -0.1415  0.0650  0.1154
20830W        W39684  15.039   6.754   1.133 -0.0972  0.0324  0.0208
20831W        W39685   7.045   7.067   1.104  0.1001  0.0611  0.0592
20832W        W39686  14.827   6.600  15.298 -0.1244 -0.1679 -0.2341
20833W        W39687  16.283   3.758  12.269  0.0211  0.1306  0.0046
20834W        W39688  15.023  17.387  11.890  0.2494  0.1393  0.1565
20835W        W39689  12.788  14.849  11.923 -0.2214 -0.1568 -0.0421
20836W        W39690  14.267  17.026   2.681  0.0483  0.0004  0.3203
20837W        W39691  16.329  15.889   2.635 -0.0477 -0.1319  0.1993
20838W        W39692  11.777   4.678   4.281  0.3312 -0.0669 -0.1003
20839W        W39693  17.189  11.937  15.685  0.0522 -0.1622 -0.3424
20840W        W39694   7.263  17.482  13.918  0.1833  0.0193  0.0978
20841W        W39695  11.076  13.579  14.613 -0.2488 -0.0903 -0.2224
20842W        W39696  14.270   4.768   3.354 -0.0729  0.0753  0.2902
20843W        W39697  10.253  14.443   4.933  0.3207 -0.1518 -0.1361
20844W        W39698  11.743   8.867  14.708 -0.1409  0.3270  0.0644
20845W        W39699  14.528   0.609   4.420 -0.2932 -0.3556  0.0003
20846W        W39700  16.916   6.647  12.615  0.1145  0.2887 -0.1098
20847W        W39701   0.658  14.687  11.942 -0.0353 -0.1223  0.3905
20848W        W39702   1.975   2.731  13.232  0.1173 -0.3600  0.0663
20849W        W39703  16.830  15.765   2.876  0.0690  0.2526  0.3085
20850W        W39704   7.125  16.287  15.656 -0.2459  0.1204  0.2540
20851W        W39705   7.668   9.676  11.370  0.2670  0.1406 -0.0006
20852W        W39706   5.220   7.165   2.460  0.3318  0.0759  0.0054
20853W        W39707  13.691  15.556   1.442  0.0176  0.1405  0.0994
20854W        W39708   6.826   7.329   3.451  0.3936 -0.0306 -0.2282
20855W        W39709  11.748   9.960  12.678 -0.1251  0.2875  0.1108
20856W        W39710   5.300  17.338  13.300 -0.0532 -0.3312  0.2103
20857W        W39711   8.697   5.511  12.562 -0.0154 -0.1915  0.1681
20858W        W39712   1.542   5.164  16.025 -0.1342 -0.1063  0.0131
20859W        W39713  10.073   3.062   2.759  0.0541  0.2081 -0.0321
20860W        W39714   5.366   0.094  13.591 -0.0585 -0.1231 -0.2452
20861W        W39715  12.865   4.478   4.100  0.0594 -0.0586  0.0830
20862W        W39716  10.552  10.244   1.187  0.1795  0.0330  0.1062
20863W        W39717  15.690  13.267  15.244  0.1339  0.3691 -0.1771
20864W        W39718   4.676   4.474   3.201 -0.0202  0.2110  0.0579
20865W        W39719   8.735   0.351   0.464 -0.2281 -0.2563 -0.1541
20866W        W39720   9.417   9.115  11.605  0.1127 -0.0934  0.2178
20867W        W39721   6.358   7.415   5.420  0.1016 -0.4285 -0.0125
20868W        W39722  13.792   7.160   2.344  0.1299 -0.2411 -0.1980
20869W        W39723  11.937   2.657  14.592 -0.0708  0.1742 -0.0858
20870W        W39724   1.205  16.791  13.248 -0.1741 -0.2804 -0.2232
20871W        W39725  10.199  10.358  15.860  0.2406  0.2008  0.1345
20872W        W39726  14.855   2.156  12.621 -0.1595 -0.2160  0.0336
20873W        W39727  10.368   2.133  15.474  0.1763  0.2043 -0.0213
20874W        W39728   4.701   5.422  12.047 -0.0386 -0.4039 -0.1805
20875W        W39729  17.467  10.306  12.156 -0.1013  0.3786  0.1551
20876W        W39730  17.515  17.676  15.734 -0.2850  0.3639 -0.1730
20877W        W39731   1.017   0.975   0.043  0.0694  0.0979  0.0521
20878W        W39732  12.407   3.160   3.386  0.3024  0.2721 -0.0979
20879W        W39733  11.309   9.809  15.066 -0.0299 -0.3111  0.3465
20880W        W39734  17.508   8.397  14.939 -0.0161 -0.3793  0.1862
20881W        W39735  13.393   0.936  12.548  0.0227 -0.0087 -0.3123
20882W        W39736  15.264   4.076  14.554  0.0615 -0.1066 -0.0704
20883W        W39737  14.535   2.200  14.146  0.0468 -0.0379 -0.2999
20884W        W39738  14.637  16.337   3.109 -0.1939  0.1205  0.1942
20885W        W39739   5.303  12.067  11.648 -0.3178 -0.0991  0.0312
20886W        W39740   4.308  17.487  15.946  0.0165  0.0659  0.0393
20887W        W39741   7.078   0.454  14.089 -0.0775  0.0893 -0.0423
20888W        W39742   1.668  11.304  15.999 -0.0321 -0.3157 -0.0260
20889W        W39743   0.427   9.605   2.079  0.1812 -0.1632  0.3500
20890W        W39744   4.021  13.565  13.522 -0.1580 -0.0563  0.0908
20891W        W39745   5.133  13.525   1.052 -0.0971 -0.1322  0.1804
20892W        W39746  17.392   9.698   0.728 -0.2513  0.2234 -0.1614
20893W        W39747   6.956   5.868  11.758  0.1304  0.0149  0.1783
20894W        W39748   3.592   2.931  14.306  0.0713  0.0050  0.2394
20895W        W39749   8.212  10.850  16.058 -0.2210 -0.1321  0.3165
20896W        W39750  17.700  15.806  14.590  0.0031  0.0442 -0.0124
20897W        W39751  16.596  17.083   2.211 -0.0978  0.2078  0.0661
20898W        W39752  15.674   8.775  14.357 -0.0119 -0.2282 -0.0576
20899W        W39753  13.741   1.060   3.418  0.0802  0.0162  0.0675
20900W        W39754  17.544  17.297   5.762  0.0992  0.0089  0.2531
20901W        W39755   8.589  11.495  13.172 -0.1421 -0.2438 -0.4911
20902W        W39756  10.142   8.767   3.852  0.1614 -0.2858 -0.2793
20903W        W39757   1.034  14.290  12.627 -0.2348 -0.0035 -0.0272
20904W        W39758   1.781  18.010  16.133  0.0432 -0.0204  0.1205
20905W        W39759   1.749  14.701   0.243  0.0353  0.0444 -0.1146
20906W        W39760  11.145  14.549   4.337  0.3213  0.2696  0.0960
20907W        W39761   9.500  17.974  16.039  0.1193 -0.0028 -0.0067
20908W        W39762   5.198  13.078   4.573 -0.0979 -0.0782 -0.0105
20909W        W39763   0.961   4.886   4.225 -0.0519  0.1166  0.2259
20910W        W39764  16.598  10.489  16.155 -0.0116 -0.1547  0.0125
20911W        W39765   2.583  12.424   2.583  0.0376 -0.2001 -0.1076
20912W        W39766  16.394  14.676   1.365  0.1485 -0.1490  0.0648
20913W        W39767   8.617  16.741  12.575  0.0338  0.1985 -0.0904
20914W        W39768  12.070   0.168   4.015 -0.2923 -0.0165 -0.3069
20915W        W39769   6.588  11.359   3.129 -0.1786  0.0956  0.2804
20916W        W39770   1.456  13.550  13.577  0.0816  0.0011 -0.3012
20917W        W39771   3.594   3.927  12.152  0.0687  0.2348 -0.2693
20918W        W39772   3.044   2.321   0.058 -0.1182  0.0667  0.3462
20919W        W39773   8.355  15.589   0.477  0.0153 -0.1328 -0.1212
20920W        W39774  15.693   1.901   2.207 -0.1758  0.0814  0.3936
20921W        W39775   8.005  12.226  10.312 -0.1416  0.1161  0.6175
20922W        W39776   0.257  14.155   2.313  0.0296  0.1944  0.1926
20923W        W39777  16.262   6.597  11.154 -0.0805  0.0702  0.1039
20924W        W39778   0.037   4.471   0.597 -0.4659 -0.3438 -0.0925
20925W        W39779   7.104  17.235  16.164 -0.1206  0.4331  0.0934
20926W        W39780   1.784   5.260  14.359  0.0115 -0.0775 -0.1989
20927W        W39781   3.547   8.324  13.996 -0.3085  0.1456  0.0539
20928W        W39782   4.524  10.352   0.895 -0.0696 -0.3794  0.1282
20929W        W39783  13.092   7.248  12.088 -0.0601  0.0822 -0.3184
20930W        W39784   2.832  17.115   2.609  0.0130  0.2290  0.2880
20931W        W39785  11.901  17.681  14.698  0.2607  0.1217 -0.0909
20932W        W39786   6.229  11.728   3.852 -0.1485  0.1564 -0.1736
20933W        W39787  15.606  13.978   3.345  0.2515  0.0686  0.1158
20934W        W39788  10.332  13.566  12.203  0.3901 -0.0215  0.2445
20935W        W39789  11.520   7.058  15.959 -0.1295 -0.0203  0.0881
20936W        W39790  12.023   9.607  13.668 -0.3121 -0.1230 -0.1511
20937W        W39791  10.398  15.585   2.604  0.0146  0.1909 -0.1777
20938W        W39792   6.478   7.167  13.658  0.1099  0.0925  0.0642
20939W        W39793   7.563  17.783   2.006  0.1035 -0.0566  0.0593
20940W        W39794  13.455   6.506   4.704 -0.1473  0.0235  0.3458
20941W        W39795   4.916  16.631  14.279 -0.1098 -0.0096 -0.1217
20942W        W39796   6.133   9.870   0.372 -0.2878 -0.1290  0.4126
20943W        W39797  10.565  15.821  13.253  0.0672  0.0719  0.1159
20944W        W39798   2.820  17.381  14.761 -0.3062 -0.1567  0.0071
20945W        W39799  15.853   8.746   0.484  0.1426  0.1206 -0.0764
20946W        W39800   4.490  12.191   3.672  0.2218 -0.0828  0.1719
20947W        W39801  12.070   0.426  13.601 -0.0926  0.1132 -0.1331
20948W        W39802   0.107  12.999   0.030 -0.2729  0.0728  0.0517
20949W        W39803   9.104   3.948  14.511  0.0850 -0.0302  0.0060
20950W        W39804  16.849  17.671   4.069 -0.0823 -0.0183 -0.1382
20951W        W39805   9.235   0.181   0.257 -0.0902 -0.1746 -0.1827
20952W        W39806  15.800   2.122  16.214  0.1592 -0.1442 -0.0434
20953W        W39807   2.490  13.742  15.138 -0.2014 -0.0475  0.0119
20954W        W39808   3.674   3.665  13.083  0.0305 -0.2969  0.2807
20955W        W39809   1.555   9.650  15.570  0.1779  0.3175 -0.1766
20956W        W39810   0.969   4.854  12.894  0.0230  0.1081 -0.0902
20957W        W39811  10.352  14.179  12.207 -0.0770 -0.0349  0.0789
20958W        W39812  10.445   3.306   0.962  0.0496  0.0877 -0.1947
20959W        W39813  11.336   4.581   4.086 -0.0292  0.2055 -0.2117
20960W        W39814   2.731   5.032  15.086  0.0616 -0.0287  0.1053
20961W        W39815   4.184   9.460  16.109  0.0445 -0.1285  0.0261
20962W        W39816   9.996   9.855  14.521  0.0461 -0.2085  0.0213
20963W        W39817   6.937   0.792   0.668 -0.2485  0.1505  0.0547
20964W        W39818  14.697   8.359  15.915 -0.2477  0.0236  0.1796
20965W        W39819   8.762   7.417   5.138  0.3462 -0.1249 -0.0246
20966W        W39820  10.189   6.415  11.852 -0.0056  0.2264 -0.1483
20967W        W39821   7.208  11.365   3.668  0.1717  0.0415 -0.0360
20968W        W39822   6.475  12.909  14.874  0.1279 -0.3613  0.2390
20969W        W39823   0.441   6.304   3.101  0.0414 -0.0477 -0.2406
20970W        W39824   0.271  12.724  11.680 -0.0408 -0.0765  0.0096
20971W        W39825   6.534  10.400  13.844  0.0050  0.0070 -0.1004
20972W        W39826  14.905  15.108   4.416 -0.1155  0.0823 -0.2615
20973W        W39827  11.328  12.225   1.093 -0.1009 -0.2537 -0.3520
20974W        W39828  13.143   9.942   1.634  0.0805 -0.2164  0.0301
20975W        W39829   3.378  10.000  12.240 -0.0216 -0.0781  0.0012
20976W        W39830   6.996   9.787  13.860 -0.1605 -0.1675 -0.1279
20977W        W39831  13.438   2.565   4.382  0.1236 -0.0827 -0.1538
20978W        W39832   4.618  16.163   2.276 -0.3068  0.0552 -0.1367
20979W        W39833  13.929  17.359   1.803  0.0161 -0.1202 -0.1985
20980W        W39834  13.638   7.352  12.239 -0.0308 -0.1543  0.1183
20981W        W39835   0.876  12.220   1.844 -0.0114 -0.1589  0.1561
20982W        W39836  14.216   6.731  14.180  0.1366 -0.3672 -0.2861
20983W        W39837  17.667  12.211   0.676  0.2398 -0.1729  0.0333
20984W        W39838   7.405  17.536  13.046  0.2049  0.1525 -0.0906
20985W        W39839   4.532   1.659   2.737  0.0033  0.0560 -0.0704
20986W        W39840   9.686   6.368   1.684 -0.0405  0.0593 -0.2363
20987W        W39841   7.582  11.627   3.230 -0.0931  0.1931 -0.1817
20988W        W39842  12.193   8.561  12.937  0.0035  0.1249  0.0177
20989W        W39843   5.986   0.912  13.687  0.1539  0.0493  0.1004
20990W        W39844   5.223   0.131  15.432  0.1641 -0.2982 -0.3115
20991W        W39845   2.743   9.189   1.607 -0.0655 -0.2502 -0.0635
20992W        W39846   5.210  12.707  16.064 -0.1715  0.4351 -0.3331
20993W        W39847   7.361   6.153   4.306  0.1136  0.2399  0.0664
20994W        W39848   4.968  16.066   1.544  0.0846  0.0869  0.0393
20995W        W39849   6.166   0.678  15.484 -0.0157  0.0982  0.2509
20996W        W39850  16.340   6.605   2.215  0.1169 -0.0454 -0.3226
20997W        W39851  14.284   1.422  14.553 -0.0571  0.1816  0.1032
20998W        W39852   4.198  11.235  12.177 -0.2889  0.0034 -0.3952
20999W        W39853  10.897  11.981  13.188 -0.0154  0.3679 -0.0862
21000W        W39854   7.577  14.499  12.638 -0.1135  0.0354  0.0311
21001W        W39855   0.356  15.302   0.124 -0.1115 -0.1757 -0.1309
21002W        W39856  13.683   9.058  14.992 -0.2453  0.1334  0.1315
21003W        W39857   4.359   6.200   0.573  0.0638 -0.3123 -0.1171
21004W        W39858   9.513  10.829  15.978 -0.0626 -0.3002  0.1148
21005W        W39859   5.699  13.540  14.687 -0.2665  0.0019  0.2781
21006W        W39860  12.674  12.248  14.082  0.1221 -0.2141  0.0102
21007W        W39861   6.498   8.058  14.729  0.0437 -0.0355  0.0139
21008W        W39862   0.454  10.349   0.191 -0.0191 -0.1702  0.1944
21009W        W39863  14.536  12.430  13.381  0.3633  0.1197  0.1795
21010W        W39864   4.584   7.742  13.522 -0.0060 -0.1757  0.0917
21011W        W39865  11.768  11.921   1.287 -0.3909 -0.0902  0.0813
21012W        W39866   7.502   1.755   0.681  0.3852 -0.0477 -0.1430
21013W        W39867  10.579  11.249  14.265  0.1950  0.1896 -0.0021
21014W        W39868  10.797   9.171   1.819 -0.0614 -0.4974  0.1958
21015W        W39869   9.914  11.307   4.952 -0.1546 -0.4419 -0.1922
21016W        W39870  14.137   3.356  14.281 -0.0695  0.0840  0.1904
21017W        W39871   7.546  16.970   2.966  0.0599 -0.1305  0.1167
21018W        W39872   7.172  10.602   4.284 -0.1045  0.1074  0.3141
21019W        W39873   4.440   1.992  14.836  0.2450  0.2405 -0.3408
21020W        W39874   7.836  14.357   4.158 -0.0632  0.3209 -0.2392
21021W        W39875   0.364   3.723  11.822  0.0311  0.0981 -0.0783
21022W        W39876  16.585  17.113   1.407 -0.1724  0.1112 -0.1626
21023W        W39877   7.403   5.280  13.090 -0.1469 -0.0368  0.1106
21024W        W39878   3.352   3.753  15.944 -0.1709 -0.0095 -0.1843
21025W        W39879  17.211   4.630  15.438 -0.0149 -0.0902 -0.2008
21026W        W39880  12.899  14.824  13.746  0.0395 -0.3178  0.2239
21027W        W39881   8.606   9.590   3.903  0.0667  0.1074 -0.1933
21028W        W39882  14.347  15.063   3.595 -0.1551  0.1678 -0.3792
21029W        W39883   4.561  10.096  12.860 -0.1243  0.1515  0.1389
21030W        W39884  12.268  11.146  13.573 -0.4324 -0.1873 -0.0517
21031W        W39885   8.183   3.230   4.291 -0.0056 -0.1524 -0.2062
21032W        W39886  12.107  10.916  12.229 -0.3418 -0.0718  0.1230
21033W        W39887   2.922   6.708  16.158  0.4333  0.2457 -0.0043
21034W        W39888  15.049   0.485  15.081 -0.2241 -0.2217 -0.4582
21035W        W39889   8.849   9.592  13.677  0.0341  0.0294  0.0751
21036W        W39890   4.561   8.695   3.917  0.1130 -0.0166  0.0621
21037W        W39891   0.386  11.633  12.774 -0.0027  0.0991  0.3677
21038W        W39892  10.683   8.838  13.816 -0.1133  0.3188  0.0657
21039W        W39893  13.654  16.700   1.403  0.0779  0.2042  0.1079
21040W        W39894  14.630   5.542  13.460  0.0713  0.0558  0.1576
21041W        W39895   4.661   5.320  15.511  0.0033  0.0953  0.2062
21042W        W39896   7.770   0.290   3.876  0.0317 -0.0973  0.2236
21043W        W39897   4.134   9.050   2.475  0.2401  0.3111  0.0734
21044W        W39898   7.010  11.253   0.016 -0.6080  0.0857 -0.2104
21045W        W39899   1.928  14.311  12.044 -0.1260  0.0200 -0.1876
21046W        W39900  11.651   1.178  15.898 -0.1736 -0.0150  0.0270
21047W        W39901  11.962   1.434   2.942  0.0865 -0.1640  0.1257
21048W        W39902   5.824   5.631  15.957  0.1636 -0.1129 -0.0522
21049W        W39903   1.337  15.417   2.862 -0.2030 -0.0983 -0.1517
21050W        W39904   0.546   8.640  11.713  0.1352  0.1463 -0.3801
21051W        W39905   4.894  12.355   4.035 -0.0520 -0.0444  0.1461
21052W        W39906   8.006  13.158  12.356 -0.0108  0.2265  0.0975
21053W        W39907  15.695  16.131   3.585  0.0473 -0.0449  0.3013
21054W        W39908   1.100   0.824  13.135  0.4266 -0.1891 -0.1560
21055W        W39909  14.530   3.679   2.370  0.0767  0.0551 -0.0088
21056W        W39910   0.062   6.875   2.064  0.0456 -0.0133 -0.0098
21057W        W39911   9.498   6.264   2.115 -0.4778 -0.1841  0.1838
21058W        W39912   4.396  17.377  11.845 -0.2259  0.0576 -0.0334
21059W        W39913   1.425   5.646   2.846  0.0785 -0.1347 -0.0026
21060W        W39914   6.434  13.384  15.004 -0.0675  0.0089  0.1375
21061W        W39915   7.850  13.068  13.085 -0.1574  0.1993 -0.0865
21062W        W39916  14.917   3.352   1.008  0.2509 -0.1186  0.3206
21063W        W39917   1.035   3.236  13.197  0.1050 -0.0280 -0.0156
21064W        W39918   1.821   8.593  14.783 -0.1484  0.0016 -0.1109
21065W        W39919  15.123  15.707   0.209  0.1065  0.1458  0.1787
21066W        W39920   4.965   9.947  12.580  0.1223  0.2047  0.0767
21067W        W39921   9.941  16.477  12.991 -0.1038  0.0916 -0.3230
21068W        W39922  12.640  11.658  12.662 -0.1929 -0.1304  0.1429
21069W        W39923  11.209  13.751   3.375  0.1383  0.0101  0.0346
21070W        W39924  11.245   8.441   3.437  0.1093  0.2240 -0.1712
21071W        W39925  15.211  17.117   2.998 -0.2426 -0.1525 -0.0918
21072W        W39926   6.681   1.387   4.098 -0.1058 -0.1171 -0.0031
21073W        W39927  10.852  15.846  15.618 -0.0969 -0.2827 -0.0359
21074W        W39928  10.417   0.347   0.030  0.4461  0.2633  0.1612
21075W        W39929   2.220   6.491  14.440 -0.1413 -0.1022  0.1230
21076W        W39930   3.833  15.487   0.629 -0.3130 -0.2319 -0.1324
21077W        W39931  10.197  15.434   5.007 -0.0512  0.2860  0.2022
21078W        W39932  17.793   1.661  13.979  0.0406 -0.2171 -0.3202
21079W        W39933  13.471  14.474   3.475 -0.4039  0.4131  0.0346
21080W        W39934  18.031   2.427  10.926 -0.0613  0.2650  0.0029
21081W        W39935  17.104  13.892  13.772  0.0122 -0.0697  0.0453
21082W        W39936  12.071  12.212   3.335 -0.0190 -0.0720 -0.1456
21083W        W39937   7.259   2.821  13.247 -0.0561  0.0444 -0.2700
21084W        W39938  14.351   1.669   1.320  0.1296 -0.0283 -0.1546
21085W        W39939  15.911  16.479  14.325  0.1168 -0.2289  0.2790
21086W        W39940  17.284   4.556   3.091 -0.0013  0.2260 -0.2914
21087W        W39941   9.444  14.082   4.996 -0.0977 -0.0214  0.1319
21088W        W39942   6.457  17.262   4.455 -0.0209 -0.0110 -0.0649
21089W        W39943  13.281   5.226   1.197  0.0376  0.1278  0.1418
21090W        W39944  17.970   1.002   1.801  0.3835 -0.0802  0.1017
21091W        W39945  15.108   3.864   3.325  0.1091  0.0514  0.0387
21092W        W39946   4.389  12.558   4.055 -0.1031 -0.0236  0.1934
21093W        W39947  14.652  16.399  12.738  0.0063  0.1383 -0.1148
21094W        W39948   0.540   1.879  12.459 -0.0772  0.1274 -0.0469
21095W        W39949  12.441  12.983   1.660  0.0007 -0.0807 -0.1922
21096W        W39950  10.884  16.277  14.681  0.2565  0.0928  0.2536
21097W        W39951  17.679  15.686   5.267  0.0707  0.2537 -0.2216
21098W        W39952   3.371  16.273  15.146  0.3484 -0.0402 -0.0168
21099W        W39953   4.432   9.722   1.765 -0.1649  0.0467 -0.3344
21100W        W39954  14.548  12.678  12.122  0.3521  0.0789 -0.0821
21101W        W39955   8.597   3.696   4.248  0.3054  0.0054  0.0836
21102W        W39956   2.446   7.949   2.932 -0.1696 -0.0466 -0.0045
21103W        W39957   8.126   6.340  12.247 -0.0956  0.0187 -0.1660
21104W        W39958  12.779  14.235  15.740  0.0531 -0.0669  0.0152
21105W        W39959  13.435   0.121  15.191  0.0997 -0.3450  0.0144
21106W        W39960  17.122  14.409  15.559 -0.1334 -0.0921 -0.3126
21107W        W39961  10.464  17.900   3.624  0.0169  0.0510 -0.0508
21108W        W39962   8.835   7.219  14.512  0.4587 -0.2116  0.1330
21109W        W39963   5.938   7.564  15.501 -0.0479  0.2003 -0.0357
21110W        W39964   7.233  16.596   0.159  0.0049  0.1288 -0.2196
21111W        W39965  16.875  13.504  12.964 -0.0454  0.0495 -0.1928
21112W        W39966   5.866  13.779   1.833 -0.3629  0.1412 -0.0148
21113W        W39967   8.650  16.334   4.102  0.1659  0.2128  0.2263
21114W        W39968   7.626   4.165  14.523 -0.1098 -0.1876 -0.0097
21115W        W39969  13.107  16.775   1.577 -0.0006  0.2192 -0.3345
21116W        W39970   7.405  12.688   3.831 -0.1377  0.0445  0.1845
21117W        W39971   8.888  16.047   3.043  0.0128 -0.0807 -0.2017
21118W        W39972   1.373   1.238  16.066 -0.1733 -0.3248 -0.3024
21119W        W39973  10.166   4.433  15.893 -0.1267 -0.3130 -0.1404
21120W        W39974   4.540   9.958  12.324  0.4365  0.0745 -0.0816
21121W        W39975   1.758  10.048   4.292  0.2537 -0.0330 -0.1772
21122W        W39976   7.818  14.266   3.250 -0.0567 -0.1616 -0.1463
21123W        W39977   7.347   7.345  15.852 -0.0473  0.0157  0.1051
21124W        W39978   0.342  10.036  15.911  0.0117 -0.2512  0.0185
21125W        W39979   9.732   9.687   2.718 -0.1448  0.0852 -0.0187
21126W        W39980  15.482   5.576   0.107  0.0989  0.2562  0.0984
21127W        W39981  15.484  13.774  12.192 -0.0463 -0.3154  0.3242
21128W        W39982  13.103   7.067   2.916  0.0658 -0.5803  0.1122
21129W        W39983   6.083   7.506   2.115 -0.1514  0.0221 -0.1290
21130W        W39984  10.144   2.418   4.204 -0.2689  0.0819 -0.1286
21131W        W39985  14.713  17.098  14.304 -0.0015  0.0919  0.1571
21132W        W39986  11.556   8.399  14.621 -0.0247  0.2383 -0.1117
21133W        W39987  12.209  15.907   2.271  0.1380 -0.0266 -0.1006
21134W        W39988  15.113  17.593  13.295  0.1034 -0.1416 -0.2708
21135W        W39989   2.560   2.454  11.725 -0.0894  0.1857  0.1332
21136W        W39990   6.826   1.114  12.798  0.0575 -0.0444 -0.0845
21137W        W39991   3.346   0.130  15.975  0.2626 -0.0069  0.2439
21138W        W39992   9.860  16.563   0.299  0.1265 -0.5653  0.1734
21139W        W39993   8.823  16.893  13.933  0.0448 -0.2318 -0.0884
21140W        W39994  11.938   6.037  11.081 -0.2243  0.0210 -0.1612
21141W        W39995  11.387  12.275   2.817 -0.0295 -0.0095  0.0062
21142W        W39996   7.575  13.283   1.548 -0.1015  0.3569 -0.3006
21143W        W39997   7.605  12.010  15.951 -0.1391  0.1814 -0.0129
21144W        W39998  13.871   5.589   5.456 -0.0063 -0.1566 -0.1022
21145W        W39999   7.639   8.449   4.137  0.1189  0.0526  0.2170
21146W        W40000   4.789  10.308   1.954  0.0462  0.0047 -0.0495
21147W        W40001   9.983  12.976  15.076  0.3577 -0.2608 -0.3171
21148W        W40002  13.601   0.090   4.672 -0.1837 -0.2406 -0.1055
21149W        W40003   2.154  11.099   2.423 -0.1150  0.2701  0.0527
21150W        W40004   3.700   9.924  15.452 -0.1007  0.0450 -0.0159
21151W        W40005   3.110  17.134  13.222 -0.2777 -0.3499 -0.0020
21152W        W40006  10.409  13.722   1.012 -0.4083  0.0186 -0.3086
21153W        W40007  13.036   3.317  12.081 -0.1163  0.0381 -0.1120
21154W        W40008   2.415   1.324   5.842 -0.2150 -0.3229 -0.0468
21155W        W40009  10.614   4.973  13.049  0.0200  0.2476  0.0299
21156W        W40010  12.146   2.950   0.101  0.2278  0.3269  0.2462
21157W        W40011   8.400   7.805   1.008 -0.1007  0.3905 -0.0321
21158W        W40012  12.342  14.055   4.708 -0.1412  0.1903 -0.3269
21159W        W40013  12.456   6.750  15.133  0.0680  0.5723 -0.2289
21160W        W40014  15.600  17.603  12.739  0.0201 -0.2003 -0.1750
21161W        W40015  14.063   9.239   0.364  0.1389  0.1489  0.1430
21162W        W40016   8.200  11.977   1.694 -0.3503 -0.1347  0.0478
21163W        W40017   9.807  16.380   2.704  0.1484 -0.1189 -0.0061
21164W        W40018   5.786  17.121  15.106  0.2475  0.0793  0.1139
21165W        W40019   5.391  17.217   2.060 -0.1414 -0.0647 -0.2834
21166W        W40020  17.779   0.836  11.710  0.0541  0.0713 -0.2285
21167W        W40021   8.925  16.980   3.444  0.1920  0.0373  0.0779
21168W        W40022   0.166  15.979  13.580 -0.1748 -0.0169  0.0035
21169W        W40023   6.348  10.577   1.470 -0.2123  0.3150  0.0870
21170W        W40024   1.034  10.376   1.128  0.1082  0.2504  0.0773
21171W        W40025  13.422  17.484  13.038  0.4484 -0.2005 -0.1141
21172W        W40026  16.304  12.780   1.341  0.1323  0.1268  0.0806
21173W        W40027  10.136  17.258   4.443 -0.4715  0.2673  0.0769
21174W        W40028   0.682   8.872  14.269 -0.0179 -0.1096 -0.0582
21175W        W40029   9.773  10.034   4.004  0.0799 -0.0719 -0.1415
21176W        W40030  16.349  11.782  14.063  0.4443  0.1712  0.1657
21177W        W40031   6.894   5.130   3.025 -0.1792 -0.0044  0.5059
21178W        W40032   3.971   9.389  15.304  0.0597 -0.1079 -0.0626
21179W        W40033   9.490   7.639  14.929  0.1425 -0.1741 -0.0950
21180W        W40034   1.278   0.629   4.681  0.2381 -0.1067  0.0621
21181W        W40035  14.397  16.473  14.857  0.0506  0.2636  0.0413
21182W        W40036   5.051   7.641  15.698 -0.0213  0.2006 -0.2486
21183W        W40037   3.726   5.122   2.809  0.0068 -0.1780 -0.0697
21184W        W40038  17.158   8.098  14.614 -0.0194 -0.1529  0.0465
21185W        W40039   7.680  17.194  12.528  0.0555  0.0768 -0.0761
21186W        W40040  13.741   8.153   4.549 -0.0110  0.1204  0.1528
21187W        W40041  11.661  17.944   4.904 -0.0960 -0.0790 -0.2391
21188W        W40042   7.023  13.137   2.585  0.0733  0.1243  0.4686
21189W        W40043   8.077   1.592  13.996  0.1029  0.0779  0.2381
21190W        W40044   6.353  13.890  12.488 -0.0357  0.0142 -0.1107
21191W        W40045  13.719   0.722   1.045  0.0337 -0.3539 -0.0977
21192W        W40046   2.750   8.745  15.535  0.0503 -0.3072 -0.0826
21193W        W40047  14.186   5.704   3.896 -0.0959  0.0857  0.1062
21194W        W40048   5.806   7.601   0.913  0.0512  0.0796  0.0425
21195W        W40049   1.621  15.880  14.135  0.1894  0.0594  0.0306
21196W        W40050   3.615   7.478   1.041  0.1147 -0.1518 -0.0674
21197W        W40051   0.642  17.335   1.896 -0.0062  0.0399 -0.1203
21198W        W40052  15.968  16.436   3.278 -0.2214 -0.1439 -0.2060
21199W        W40053   3.269  16.945   2.489  0.0289 -0.1218 -0.1055
21200W        W40054  13.204  17.961   3.770  0.0406 -0.1345 -0.0681
21201W        W40055  17.979   4.717   3.160  0.0721  0.0587 -0.2035
21202W        W40056   4.396   2.660  13.539 -0.3861  0.0135  0.2932
21203W        W40057   7.585   7.598  14.468  0.0923  0.0256 -0.2280
21204W        W40058   8.211  13.313   3.243 -0.0911  0.1946  0.0737
21205W        W40059   4.473  15.793   4.595 -0.3873  0.0767  0.1604
21206W        W40060   1.532  13.526   2.123  0.1439 -0.1264 -0.1126
21207W        W40061  13.856   9.161   9.950  0.2086  0.0913  0.1479
21208W        W40062  14.483   4.762  11.849  0.2765 -0.0088  0.0208
21209W        W40063  15.578  15.883  12.727  0.0791 -0.0021 -0.0143
21210W        W40064   4.843  10.256   4.543  0.0423 -0.2276 -0.1816
21211W        W40065   5.760  13.552  15.705 -0.2275 -0.0882 -0.1910
21212W        W40066  10.903   8.085   2.005 -0.0090 -0.1141 -0.3193
21213W        W40067  10.861   4.918  13.515 -0.1639 -0.1102 -0.5779
21214W        W40068  10.900  10.030  12.994 -0.1230 -0.0578 -0.1855
21215W        W40069   8.118  17.681   4.454 -0.0377  0.1913 -0.0963
21216W        W40070   4.068  11.249   3.801 -0.0978 -0.0143 -0.5714
21217W        W40071   8.008   9.730   3.944 -0.3474  0.0913  0.1690
21218W        W40072  14.219  12.594   0.008  0.0464 -0.1719  0.0431
21219W        W40073   4.153   8.827   3.301 -0.0543  0.0571 -0.1009
21220W        W40074   5.547  17.262   2.563 -0.1359 -0.1948  0.1212
21221W        W40075  16.939   8.497  12.495  0.1374  0.2410  0.1647
21222W        W40076   6.919   7.883  15.059 -0.1544 -0.1026  0.0292
21223W        W40077   3.895  11.574  13.472  0.0279 -0.0523  0.0378
21224W        W40078  17.792   0.888   0.020 -0.1721  0.0409  0.0136
21225W        W40079  12.160   3.563   2.491 -0.1244  0.2124  0.2366
21226W        W40080  12.842  14.152  11.442 -0.4101 -0.2775  0.2785
21227W        W40081   5.467  10.169   3.949 -0.1784  0.0670 -0.0780
21228W        W40082   9.942   6.007   2.709 -0.0615 -0.2968  0.0799
21229W        W40083   8.927  14.346  15.935  0.2160  0.1322  0.0425
21230W        W40084  15.198   9.418  13.943  0.0336 -0.0728  0.1370
21231W        W40085  13.468   8.425   2.664  0.0274 -0.3133  0.0621
21232W        W40086   2.891  14.420  14.611  0.0030  0.0378  0.1810
21233W        W40087   9.012   4.068  11.522  0.0741 -0.1620 -0.2485
21234W        W40088   1.952   3.979   2.148  0.0836  0.1098 -0.1668
21235W        W40089  14.941   5.864  12.493  0.0449 -0.3600  0.0737
21236W        W40090   7.550  15.251   2.964  0.0106 -0.0466 -0.5315
21237W        W40091   3.680   8.989  13.586 -0.0580  0.6251 -0.1282
21238W        W40092  11.218   8.481  13.231 -0.0746  0.0522  0.2991
21239W        W40093  12.066  14.793   2.771 -0.0544  0.1325 -0.2040
21240W        W40094  16.907   6.832  10.870  0.1532  0.0733 -0.0703
21241W        W40095   8.154  11.556  12.237  0.2666 -0.0729  0.0103
21242W        W40096  11.059  12.537   5.382  0.0838 -0.2785  0.1551
21243W        W40097  11.534  15.442   1.047 -0.0031 -0.1266 -0.1175
21244W        W40098   3.826  13.666  15.291  0.1702 -0.1984 -0.0764
21245W        W40099  16.440   7.283   4.344  0.1472 -0.4263 -0.0177
21246W        W40100   2.212  12.347  13.827  0.3315  0.0338  0.0353
21247W        W40101  16.705  14.449  12.040  0.1660 -0.1453  0.2194
21248W        W40102   5.138   8.174   3.778  0.1212 -0.0467  0.1084
21249W        W40103   1.945  17.489   2.672 -0.2278 -0.1987  0.1458
21250W        W40104  13.086   5.482  14.700  0.1061  0.2888 -0.0642
21251W        W40105   4.590   1.496  13.944  0.1945  0.0254  0.0746
21252W        W40106   7.586   6.434  15.619 -0.0797  0.0993  0.0663
21253W        W40107  10.564  10.148   3.145 -0.2012  0.0749  0.2049
21254W        W40108   9.240  16.520  11.863 -0.1341  0.0721 -0.1912
21255W        W40109  15.548   5.895   1.159  0.0761 -0.1098 -0.0469
21256W        W40110  16.844  16.203  13.761 -0.1831  0.2193 -0.2309
21257W        W40111  10.022  11.191   3.842  0.1163  0.1187 -0.1139
21258W        W40112  16.931   0.794  14.878 -0.2853 -0.1391 -0.1049
21259W        W40113   5.669  10.638   0.083  0.1481 -0.5257  0.1782
21260W        W40114   7.219  16.071   3.203 -0.0317  0.2196 -0.2803
21261W        W40115  10.425  16.127  14.861  0.0946  0.1348 -0.1193
21262W        W40116   6.646   1.221   5.063  0.2073  0.1784 -0.3658
21263W        W40117  10.926   7.106  15.890 -0.0387  0.0493 -0.1105
21264W        W40118   7.333   1.543   1.297  0.2156  0.4370  0.0796
21265W        W40119  10.435  17.511   2.493  0.4008 -0.1447 -0.0923
21266W        W40120  10.818   9.343   2.965  0.0793  0.0270 -0.0410
21267W        W40121   0.554   1.088   4.950 -0.1275 -0.1608  0.0317
21268W        W40122   0.918   2.187  13.660  0.2233  0.2086  0.3248
21269W        W40123   3.084  16.695   0.555  0.0097  0.0571  0.5469
21270W        W40124  10.657  13.050   0.426 -0.2269 -0.2128  0.2386
21271W        W40125   0.190   5.439  11.326 -0.1402 -0.2051  0.0774
21272W        W40126  14.975  16.108   1.173 -0.3860  0.0910 -0.1917
21273W        W40127   2.400   0.533   0.415  0.1474  0.0804 -0.0639
21274W        W40128   6.803   5.530   3.286  0.1341  0.0612 -0.0705
21275W        W40129   5.989  15.151   2.554 -0.0695 -0.2178  0.1004
21276W        W40130  16.854  16.429  15.886 -0.0476 -0.1144 -0.0053
21277W        W40131  11.024   7.488  11.783 -0.1990 -0.0449  0.0233
21278W        W40132   1.194   1.396  15.164 -0.0268 -0.3425 -0.1753
21279W        W40133   6.434  10.995  15.084 -0.0106  0.2377  0.0000
21280W        W40134   1.038  11.083   3.293  0.2905 -0.1605 -0.2180
21281W        W40135   9.935  14.450  11.370 -0.4203 -0.1121  0.1133
21282W        W40136   6.262  15.642   1.683 -0.0834  0.1117  0.1570
21283W        W40137  16.742  13.024   1.343  0.2539 -0.0719 -0.1042
21284W        W40138   9.451   4.945  11.688 -0.0700  0.2445  0.1175
21285W        W40139   4.102   5.768   0.704 -0.2714  0.1115  0.1413
21286W        W40140   2.583   7.438   1.433 -0.3230  0.1286 -0.4675
21287W        W40141  17.535   8.102  15.907 -0.3446 -0.1012 -0.1670
21288W        W40142   0.904   4.175   4.434 -0.1911  0.1834 -0.0641
21289W        W40143   4.079   7.306   3.881 -0.2052  0.0859  0.0516
21290W        W40144   7.592  10.521  11.569  0.0199  0.1962 -0.0695
21291W        W40145   3.206  12.981   4.362 -0.0630  0.1677  0.1147
21292W        W40146   1.893   2.427   0.542 -0.1949 -0.0612  0.0507
21293W        W40147  10.133  12.509  13.352  0.0481 -0.0272 -0.1521
21294W        W40148   3.433  14.361   3.701  0.1233 -0.1204 -0.1091
21295W        W40149  17.163   7.778   0.067  0.0183  0.0425  0.2021
21296W        W40150  10.577   2.920  12.445  0.1083 -0.3036 -0.1388
21297W        W40151   5.851  15.306   0.770 -0.0156  0.1406 -0.2131
21298W        W40152  14.990   5.238   0.760 -0.1603  0.5072 -0.2835
21299W        W40153  10.318   4.181  15.065 -0.0629 -0.1480 -0.0151
21300W        W40154  11.421   8.711   4.499  0.0210 -0.0966 -0.0393
21301W        W40155   9.460   9.388  13.761 -0.2856  0.0704 -0.0290
21302W        W40156   1.585   7.504  12.454 -0.0158  0.2886  0.0550
21303W        W40157   0.105   6.581   3.838 -0.1313  0.0983 -0.2718
21304W        W40158   4.683   9.950  14.909 -0.0493 -0.2027 -0.0206
21305W        W40159   2.998  17.956   0.936  0.4662  0.1773  0.2171
21306W        W40160   5.257  13.034  14.190 -0.3021  0.0261  0.2776
21307W        W40161   8.484  17.607  14.312  0.0968 -0.0865 -0.0176
21308W        W40162   2.917  17.923   4.961 -0.1532 -0.1573 -0.0192
21309W        W40163   3.580  17.405   2.992 -0.1062 -0.0733  0.0947
21310W        W40164   2.207  11.120  14.267  0.1084 -0.1408  0.2983
21311W        W40165   5.499  13.018   2.086 -0.0077 -0.1170  0.1559
21312W        W40166  14.743   5.785   1.482 -0.0947  0.0524 -0.0431
21313W        W40167   1.483  16.125   1.319 -0.1876 -0.0454 -0.2063
21314W        W40168   4.248   2.925  12.240  0.1381  0.1955  0.4887
21315W        W40169   4.452   6.974   1.318 -0.2011 -0.3071  0.0651
21316W        W40170   0.984  11.353   0.200  0.2914  0.1057  0.2053
21317W        W40171  11.038   1.269   4.011  0.2228 -0.3032  0.0664
21318W        W40172  10.334   7.171  13.416  0.1982 -0.0961 -0.1217
21319W        W40173  15.611  16.724  16.175 -0.1343  0.0218  0.2345
21320W        W40174   1.262   3.086  14.686  0.0139 -0.2159  0.0614
21321W        W40175  17.320   9.297   4.194 -0.0487 -0.3365 -0.1290
21322W        W40176  12.033   0.712   0.249  0.3111  0.1435  0.2164
21323W        W40177   0.419   6.512   1.935 -0.1370  0.1398  0.0510
21324W        W40178   0.299   7.745  11.773 -0.0453  0.1447 -0.0380
21325W        W40179   4.963   4.223  13.788 -0.3743 -0.1099 -0.0536
21326W        W40180  13.471   0.278  14.248  0.0112  0.1313 -0.1872
21327W        W40181  14.620  15.578   0.368  0.2070 -0.1101  0.1134
21328W        W40182  12.896  12.156   3.545  0.1696  0.2730  0.0114
21329W        W40183  13.432  16.449  14.869 -0.1401  0.1097 -0.2235
21330W        W40184   3.830   2.512  11.050  0.0947  0.1147  0.0324
21331W        W40185  13.834  17.788  13.840 -0.2628  0.0574  0.0635
21332W        W40186   4.275  14.705   4.265  0.1828  0.1325 -0.3456
21333W        W40187  17.338  10.080   3.448 -0.0040  0.4907  0.1682
21334W        W40188  10.280   6.705   0.726  0.2883  0.1088 -0.1718
21335W        W40189   1.544  10.288  14.880 -0.0145 -0.0612 -0.1138
21336W        W40190   6.584   9.536  13.166  0.0856  0.1600  0.2733
21337W        W40191   4.911  10.830  14.299  0.0314 -0.2762 -0.0281
21338W        W40192  11.997   7.462  14.660 -0.1187  0.0207  0.2756
21339W        W40193   4.364   8.785   2.798  0.3283 -0.3233  0.2779
21340W        W40194   3.321   9.591  15.396  0.0118 -0.3128  0.0609
21341W        W40195  17.372   8.992   1.241  0.0137 -0.1216 -0.0660
21342W        W40196   3.272  16.002   4.584 -0.1331  0.0633 -0.1446
21343W        W40197  14.756   1.191  13.998  0.1272  0.0191 -0.1737
21344W        W40198   2.530  12.647   1.552  0.0995  0.2198 -0.0782
21345W        W40199   5.251  14.342  12.406 -0.0889  0.1298  0.1028
21346W        W40200   6.661   3.774  12.242  0.1316 -0.0577  0.1547
21347W        W40201  13.785   2.417   2.945  0.0547  0.1612 -0.0042
21348W        W40202   5.335   6.837   1.030 -0.1617 -0.3410  0.0522
21349W        W40203  12.716   2.147   3.231 -0.1195  0.1682 -0.3219
21350W        W40204   8.581  17.429   2.829 -0.0859 -0.4405 -0.0344
21351W        W40205   2.604   2.255  14.865  0.2184 -0.2602  0.1813
21352W        W40206  10.452   7.063  11.108 -0.3427 -0.0105 -0.4260
21353W        W40207   2.118   4.321  15.937 -0.1953 -0.3410 -0.1723
21354W        W40208   2.525   1.028  14.035  0.2388  0.0268 -0.2328
21355W        W40209  12.601   2.373  11.092  0.1440 -0.3461  0.1651
21356W        W40210  15.157   2.111   4.526  0.2444 -0.1205 -0.1344
21357W        W40211  15.428  16.139  13.734  0.2193 -0.0742 -0.0037
21358W        W40212   1.844  12.964   1.008  0.0229  0.0277  0.1007
21359W        W40213   5.082  10.849   2.548 -0.1472  0.1840  0.0513
21360W        W40214  13.680  10.323  11.576  0.2618 -0.0754 -0.2229
21361W        W40215   2.589  14.852  14.637 -0.2509 -0.1218  0.0236
21362W        W40216   1.359   6.294   5.087 -0.0262  0.1140  0.2504
21363W        W40217   8.079  14.095  15.593 -0.0570 -0.3703 -0.3734
21364W        W40218   5.371  15.307  16.136 -0.0475  0.0604  0.3160
21365W        W40219   6.034  17.575  11.273 -0.1763 -0.1290  0.0633
21366W        W40220  10.238  14.248  16.100 -0.3141 -0.0727 -0.0309
21367W        W40221  13.669  15.650   4.795 -0.0967 -0.1488  0.1395
21368W        W40222  13.665   7.438   1.966 -0.2919 -0.0199 -0.2384
21369W        W40223  16.469   8.339   2.621  0.1708 -0.4125  0.0151
21370W        W40224  13.894  13.962  12.428  0.3261  0.1647  0.0351
21371W        W40225  16.811  13.812   4.923  0.1302  0.0581  0.3512
21372W        W40226   3.614  14.988   3.858 -0.0481 -0.1230  0.1113
21373W        W40227  13.483   6.500  12.376 -0.1339 -0.2324 -0.3845
21374W        W40228   8.460  15.600   1.719 -0.1339  0.0313  0.0306
21375W        W40229  17.368   3.868   1.000  0.1874 -0.0873  0.2528
21376W        W40230  17.544   1.781   5.554  0.0324 -0.0108 -0.1136
21377W        W40231   6.537   8.015   1.682  0.3811 -0.0377  0.1365
21378W        W40232   8.560   0.884   3.130 -0.2563 -0.1137 -0.1514
21379W        W40233  11.537   6.435  12.272  0.1141 -0.2301 -0.3544
21380W        W40234  14.882   0.707  14.314 -0.1044  0.2626 -0.1032
21381W        W40235   2.396  15.424   4.329 -0.1919  0.2146  0.2360
21382W        W40236  17.362   9.088   3.607  0.1521 -0.3439 -0.1317
21383W        W40237   1.294   8.144   2.375  0.1446  0.2991  0.3220
21384W        W40238   8.725   7.955   4.384  0.0720 -0.2455  0.2484
21385W        W40239  13.211   3.758  13.400 -0.1331 -0.1259  0.1411
21386W        W40240  12.126  12.682  13.723 -0.1002 -0.2346 -0.2322
21387W        W40241   0.910  13.323  14.771 -0.3464  0.3133  0.0033
21388W        W40242   1.391  11.029  15.669 -0.1299  0.1798  0.0816
21389W        W40243   2.343  15.045  15.907 -0.0152  0.3584 -0.0149
21390W        W40244  12.161   4.662   3.137  0.4690 -0.0589  0.2563
21391W        W40245  12.485  12.184   2.051 -0.2355 -0.0176  0.4398
21392W        W40246  16.770   8.869   0.288 -0.2670  0.0819 -0.0589
21393W        W40247   9.949   8.857  13.076 -0.1469 -0.2683  0.0344
21394W        W40248   7.568   7.433  14.947  0.1313  0.0143 -0.2613
21395W        W40249   7.657  14.525   0.338 -0.1723  0.0132 -0.1028
21396W        W40250   5.558  12.496  14.260 -0.4270 -0.0239  0.1014
21397W        W40251  10.483  11.936   0.605 -0.0133  0.2308 -0.0728
21398W        W40252   3.001   9.631   0.738  0.2685  0.0492 -0.1250
21399W        W40253  11.700   6.706   0.513  0.1139 -0.0952  0.1214
21400W        W40254   9.109  16.087  11.671 -0.2856 -0.0242  0.3096
21401W        W40255   0.819   4.684   0.901  0.1360 -0.0518  0.2101
21402W        W40256   9.467  16.016   2.617  0.0605  0.0974  0.1386
21403W        W40257   2.830   0.719   2.588 -0.2439 -0.0016  0.0421
21404W        W40258  15.231   2.952   0.788 -0.1877  0.0100  0.0966
21405W        W40259   7.741  10.486   4.292 -0.0637  0.1954  0.1669
21406W        W40260  14.451   9.348   0.798 -0.1833  0.2716 -0.3487
21407W        W40261  13.942   7.558  15.362 -0.0134 -0.1094  0.1602
21408W        W40262   3.204  15.515  12.870 -0.2049  0.0966  0.0591
21409W        W40263  17.546  11.635  15.831 -0.0289  0.1600  0.1407
21410W        W40264  17.237   3.513   3.184 -0.1206 -0.2728  0.0314
21411W        W40265   2.112   3.533  13.496 -0.0171  0.2168 -0.0117
21412W        W40266   5.007  17.703  13.002 -0.0131  0.0895 -0.4156
21413W        W40267   9.595  17.886  15.518 -0.0468 -0.0243 -0.0807
21414W        W40268  17.472  15.478   1.315  0.5221  0.3975 -0.0970
21415W        W40269   0.170  13.575  14.235  0.0452 -0.2117 -0.2289
21416W        W40270  12.433  15.817   3.277  0.0204  0.1361 -0.0882
21417W        W40271   5.856  16.142  15.306  0.0982 -0.0968  0.2444
21418W        W40272   5.858   5.407   3.871  0.0245  0.0836 -0.3249
21419W        W40273   3.294  14.600   2.871 -0.1791 -0.1348 -0.1955
21420W        W40274   9.692  14.786  11.653 -0.1359 -0.0060  0.0877
21421W        W40275   9.780  15.098  13.837  0.2675 -0.0823 -0.0640
21422W        W40276  17.754   1.781   3.518  0.1154 -0.4431  0.2974
21423W        W40277  14.649  13.208  13.817  0.1883  0.2473 -0.1857
21424W        W40278   9.724  15.353   5.018 -0.0776  0.2468  0.1388
21425W        W40279   0.507   5.029  15.370  0.0297 -0.1019  0.0053
21426W        W40280   2.049   6.756  11.656 -0.1607 -0.1285 -0.0054
21427W        W40281   9.929  14.087   4.244 -0.0746  0.1049  0.1256
21428W        W40282  10.267   6.261  13.051 -0.2479 -0.1924  0.0390
21429W        W40283  15.152   0.296   5.896 -0.1209 -0.2179  0.0064
21430W        W40284   4.411  14.403  14.413 -0.0590  0.0338  0.0518
21431W        W40285   9.278   7.362  14.546 -0.0537  0.0714 -0.1300
21432W        W40286  16.366  15.262  12.182 -0.1481  0.0549 -0.2833
21433W        W40287   0.433  16.813  13.926 -0.0443  0.2309  0.0590
21434W        W40288   1.020  15.027  11.734 -0.0538  0.2181  0.0047
21435W        W40289   9.943  13.976  12.881  0.0555  0.1633 -0.1443
21436W        W40290  15.365  13.921  14.496  0.1265 -0.0993  0.0069
21437W        W40291  15.679   5.767  15.030 -0.3411 -0.0108  0.2579
21438W        W40292   6.619   8.249   1.201 -0.0246  0.1229  0.0968
21439W        W40293   8.882   0.815  16.037 -0.1794  0.1140 -0.0980
21440W        W40294  13.662  16.471   3.885 -0.0495  0.0548 -0.1039
21441W        W40295   5.885   3.400  13.329 -0.0379  0.1468 -0.0166
21442W        W40296   8.237   3.312   1.267  0.1230  0.0839 -0.2746
21443W        W40297  13.547  16.083   0.615 -0.0347  0.1501  0.1616
21444W        W40298  13.194  10.007  12.698  0.0684 -0.1219  0.0219
21445W        W40299   4.704   7.547   2.581  0.1225 -0.0741 -0.1502
21446W        W40300   6.170   4.319  10.417 -0.1120 -0.0173  0.0855
21447W        W40301   3.454   4.734   2.544 -0.2093 -0.4016 -0.1641
21448W        W40302   6.313   9.062  13.209  0.1493  0.2983 -0.0994
21449W        W40303  15.920   3.420   2.392  0.0988  0.2967  0.2984
21450W        W40304  13.479   0.949   4.450 -0.0617 -0.2125  0.0977
21451W        W40305  13.437  15.510   2.693 -0.0059 -0.0197 -0.1017
21452W        W40306  12.855   9.539   1.651  0.1491  0.1321  0.0013
21453W        W40307   6.210   7.863   3.644  0.0699  0.2773  0.3694
21454W        W40308   8.874  13.580  12.498 -0.0625 -0.1016 -0.0794
21455W        W40309   1.263   4.670   0.639  0.2203  0.0541 -0.0236
21456W        W40310  17.966   6.256   1.959  0.1476 -0.2736  0.0811
21457W        W40311   8.206   9.312   4.193  0.0350 -0.2999 -0.1137
21458W        W40312   5.864   7.077  15.588 -0.0858  0.0022 -0.0206
21459W        W40313   4.130   2.489  16.040  0.0539 -0.1865  0.0148
21460W        W40314   3.293   1.514   0.516 -0.4307  0.3167 -0.1951
21461W        W40315   3.089   6.687  13.701 -0.1379 -0.3009 -0.1049
21462W        W40316  14.881   3.107  14.008 -0.1134  0.3673  0.0768
21463W        W40317   8.085  14.226   3.774 -0.3332 -0.3076  0.3946
21464W        W40318  13.994   7.790   4.731 -0.1138  0.1160 -0.0645
21465W        W40319  10.431   6.517  14.051 -0.1069 -0.1537 -0.4992
21466W        W40320   3.405  15.081   1.219 -0.1912 -0.1067  0.0012
21467W        W40321  14.226  14.272  13.841  0.1108 -0.1072 -0.1478
21468W        W40322  14.057  10.956   5.664  0.0189  0.2710  0.2308
21469W        W40323  14.025   0.541  14.418 -0.2767  0.0708  0.1727
21470W        W40324   2.950  13.172  14.013  0.2106  0.3317  0.0674
21471W        W40325   8.385   8.779  13.155 -0.0904  0.0149  0.0350
21472W        W40326  16.060   7.033  16.116 -0.1684 -0.0786  0.0852
21473W        W40327   8.536  12.279   4.111  0.2449 -0.3801 -0.0333
21474W        W40328  12.236  13.317   2.300  0.0164 -0.1113  0.0048
21475W        W40329  12.050  17.212  14.996 -0.2484  0.0805  0.0346
21476W        W40330  12.891  13.747   2.760 -0.0451 -0.2094  0.0003
21477W        W40331   4.643   2.454  16.224  0.1197  0.0639 -0.2183
21478W        W40332   7.575   2.361  12.187  0.0214 -0.0901  0.2781
21479W        W40333  17.032   3.170  14.169  0.0435  0.0103  0.0041
21480W        W40334  15.172   1.669  15.477  0.0430 -0.1765 -0.1174
21481W        W40335  13.758  14.234  14.004 -0.0593  0.1034 -0.2080
21482W        W40336   3.237  12.352  15.357 -0.2334 -0.0841 -0.0529
21483W        W40337   9.954  13.355   0.215  0.0528  0.3153  0.2909
21484W        W40338   4.500  12.928   3.326  0.1710  0.0097  0.1356
21485W        W40339  17.144  16.673   0.407  0.0468 -0.1195 -0.1866
21486W        W40340   9.637  11.024  13.083 -0.0376  0.0132 -0.3812
21487W        W40341  14.844   8.718  15.464 -0.0138  0.1727  0.0452
21488W        W40342  11.273   4.710   0.421  0.0862 -0.3511  0.0508
21489W        W40343   7.683  13.068   3.457 -0.2158 -0.0232  0.1154
21490W        W40344   6.565  16.250  14.106  0.1034  0.0438  0.0030
21491W        W40345   0.021   8.038   1.072 -0.2720 -0.0006 -0.0220
21492W        W40346   3.115  11.883   0.101 -0.4012  0.1949 -0.2361
21493W        W40347  16.527  17.853  15.894  0.1631 -0.6063 -0.0613
21494W        W40348  15.573  15.042   4.657  0.0826 -0.1142 -0.0749
21495W        W40349   5.940   6.888   3.508  0.1826 -0.2350 -0.4094
21496W        W40350  17.846  16.828   3.730  0.2569 -0.1550  0.0897
21497W        W40351   8.227  17.397   3.142  0.1524 -0.1346 -0.2333
21498W        W40352   6.509  10.863   2.778 -0.2203 -0.0543 -0.3863
21499W        W40353   7.717   9.084   1.582 -0.1267 -0.2332 -0.1514
21500W        W40354   9.157  10.263   1.004  0.0058 -0.1534 -0.0925
21501W        W40355   4.052  14.154  16.112  0.0692 -0.0298 -0.1450
21502W        W40356  15.184   2.761  13.746 -0.2965  0.0519  0.0429
21503W        W40357  16.196   8.404  15.664  0.0669 -0.0469 -0.0980
21504W        W40358  15.555   2.598   0.749 -0.0232  0.2244 -0.0343
21505W        W40359   3.298   9.472  12.092  0.2915 -0.0591 -0.0072
21506W        W40360  14.377   9.712  12.002  0.0343  0.1130  0.0097
21507W        W40361   0.364  16.256   1.645  0.0807 -0.2021  0.1962
21508W        W40362  12.804  17.920   2.361 -0.1219 -0.1608  0.0790
21509W        W40363   7.028   5.041   5.273  0.1249  0.3505  0.1002
21510W        W40364   8.888   8.489   3.360  0.2702  0.2470 -0.2012
21511W        W40365  15.807  17.156   0.841 -0.0874 -0.0827 -0.1546
21512W        W40366  17.077  13.077   5.462  0.0104  0.0915 -0.1575
21513W        W40367   6.442  14.263   3.059 -0.3428  0.1100 -0.1153
21514W        W40368  17.540   6.980  15.872 -0.0964  0.2391 -0.2706
21515W        W40369   6.141   8.765   3.406  0.0213 -0.0032  0.0032
21516W        W40370  13.269  11.034   3.771 -0.0610  0.0294 -0.1370
21517W        W40371  16.558   8.104   1.460  0.0868 -0.2241  0.1206
21518W        W40372  11.117  17.284   3.103  0.0475 -0.1132  0.0447
21519W        W40373   9.296  16.613  15.509 -0.1409  0.2355 -0.0130
21520W        W40374  14.206  12.762  10.722  0.1416  0.0271  0.0594
21521W        W40375   3.478   7.791   0.667  0.0356  0.0442 -0.1460
21522W        W40376   1.740  16.382  14.238 -0.3031 -0.2569  0.0271
21523W        W40377  14.495   8.381  15.449  0.0986  0.1763  0.0526
21524W        W40378  13.347  11.613   3.000  0.0881 -0.2786 -0.0150
21525W        W40379  12.560  13.769   0.509 -0.3934  0.0384  0.3119
21526W        W40380   8.131  11.806  11.792  0.1412  0.0887 -0.2873
21527W        W40381   4.356  13.508  15.484 -0.1857 -0.1522  0.0852
21528W        W40382   7.355   5.875  12.518 -0.2446  0.1928 -0.1665
21529W        W40383  14.070   8.666   3.380 -0.1649  0.4001 -0.2538
21530W        W40384   6.797   3.084  14.317 -0.3572  0.0662 -0.1525
21531W        W40385   6.241   5.489   1.486  0.0009  0.0802  0.0613
21532W        W40386   2.983   1.753  14.567  0.0471 -0.0384  0.3837
21533W        W40387  17.373   7.713   3.190  0.0717 -0.0457  0.1567
21534W        W40388  16.779   4.322  12.782 -0.4526 -0.2687 -0.0182
21535W        W40389  16.771   2.660  15.328  0.0907  0.2675 -0.0068
21536W        W40390   6.137   8.641  15.690  0.0984 -0.1338  0.3656
21537W        W40391   2.609   4.222   0.012  0.1561 -0.0961  0.5279
21538W        W40392  15.951   1.251   1.869  0.1706  0.1071 -0.3615
21539W        W40393  10.392   8.919   4.496  0.4001  0.0620 -0.3240
21540W        W40394  17.202  10.468  16.132 -0.1005 -0.0092  0.1657
21541W        W40395  10.737   8.101   2.904  0.1314  0.0983  0.1392
21542W        W40396   4.833  17.460  15.979  0.0694  0.1804  0.1096
21543W        W40397  15.588   8.365   4.657 -0.3115 -0.0224  0.0165
21544W        W40398   4.825   9.977   1.021  0.0590  0.0780  0.2079
21545W        W40399  12.943  13.214   3.577  0.1168  0.1957 -0.0013
21546W        W40400  16.021   2.837   2.481 -0.0208 -0.1424  0.0461
21547W        W40401   5.066  17.645   0.190  0.0301 -0.0645  0.0197
21548W        W40402   4.704  14.750  12.234  0.2174  0.1130 -0.2401
21549W        W40403   6.236  15.637   0.230  0.1333  0.1075  0.0327
21550W        W40404   0.252   9.826   1.621 -0.0669 -0.1169  0.0079
21551W        W40405   0.217   1.636  13.766  0.1057 -0.0550 -0.0720
21552W        W40406  11.523   1.724   2.704  0.0100  0.0006  0.3975
21553W        W40407  15.286  16.335  12.885  0.1642  0.0356 -0.1702
21554W        W40408   9.015  13.938  15.657  0.0529  0.0279  0.1278
21555W        W40409   5.357  16.194  15.105  0.3555  0.0426  0.4014
21556W        W40410  13.137   0.981  14.842 -0.0940  0.1089  0.0112
21557W        W40411   7.307   3.020  14.609 -0.1446  0.0848  0.0310
21558W        W40412  12.838  16.817  14.026  0.0114 -0.1733 -0.0448
21559W        W40413   1.342   7.077   1.577 -0.4342  0.4945 -0.1323
21560W        W40414   5.402   7.454  13.155  0.2874  0.0558 -0.0658
21561W        W40415   4.750   2.637   1.384  0.0522  0.2120 -0.1286
21562W        W40416  11.053   7.787  13.413 -0.0431  0.0325 -0.5804
21563W        W40417  16.827   7.646  12.288  0.0658 -0.0659 -0.0023
21564W        W40418  16.964   7.639  13.600  0.0843 -0.0186 -0.0337
21565W        W40419  11.121  12.860   3.843  0.3051  0.1363  0.1829
21566W        W40420   4.323   9.907   1.194 -0.0658 -0.2558 -0.1484
21567W        W40421   2.815   8.970   1.066 -0.0084 -0.0559  0.0275
21568W        W40422   5.561   5.889  14.761 -0.2617 -0.1786 -0.1350
21569W        W40423   7.238   7.490   3.834 -0.1695 -0.0314 -0.2385
21570W        W40424  12.017  15.073  12.371  0.0147 -0.0118 -0.2847
21571W        W40425   0.572  15.459   3.133  0.2233  0.2987 -0.2896
21572W        W40426  11.512  10.106   4.643 -0.0651 -0.1255 -0.1346
21573W        W40427   3.359  14.426   4.271 -0.3516  0.1488  0.1062
21574W        W40428   8.432   3.124   0.692 -0.4564 -0.0334 -0.0849
21575W        W40429   5.390  16.036  10.619  0.2287  0.0810  0.2100
21576W        W40430   8.723  11.595   1.161 -0.0279 -0.1271  0.0867
21577W        W40431   8.845  12.520   2.853  0.0115 -0.1342  0.0156
21578W        W40432  16.195   5.354  14.003  0.0566 -0.2685 -0.0776
21579W        W40433  17.080   4.650  11.464 -0.0159  0.0980  0.0396
21580W        W40434  10.287  10.479   4.792  0.2877  0.2078  0.1669
21581W        W40435   7.660  16.434   2.574 -0.1951  0.0345  0.0805
21582W        W40436  13.701   3.987  15.595  0.0067  0.1477  0.4222
21583W        W40437   4.479  11.193   3.414  0.3203  0.0349  0.0390
21584W        W40438  12.343  17.740   2.423 -0.1274  0.0314  0.2314
21585W        W40439  11.796   9.718  15.083  0.0456  0.1366  0.0306
21586W        W40440  14.499   2.848  13.184  0.0358 -0.2632 -0.0335
21587W        W40441   7.711  10.613  14.672 -0.0615 -0.3274 -0.0299
21588W        W40442   4.826   9.098  12.674  0.4243 -0.0026  0.2460
21589W        W40443   4.097   6.786  14.353  0.3017 -0.0186 -0.1892
21590W        W40444   2.541  10.448   3.831  0.3295  0.1494  0.3044
21591W        W40445   2.776   8.426  16.067  0.0601 -0.5039  0.1341
21592W        W40446   6.840  15.286   2.877 -0.1626 -0.2150 -0.0619
21593W        W40447   3.978   1.991   5.285  0.1173 -0.1383  0.1038
21594W        W40448   5.952   3.294  11.790  0.0210 -0.2167 -0.2199
21595W        W40449   3.141   2.814  12.818  0.2010 -0.2085  0.0115
21596W        W40450  17.157  12.583  13.852 -0.1673 -0.0922 -0.3177
21597W        W40451   5.869   9.219  13.477 -0.2183  0.0873 -0.2264
21598W        W40452   9.941  10.006   6.181  0.0368 -0.2490 -0.0384
21599W        W40453   4.131   3.648  11.865  0.2271 -0.2196 -0.2868
21600W        W40454  10.100   1.553  11.575 -0.1307  0.2144 -0.2464
21601W        W40455   1.680   0.692  15.542  0.0916  0.0615  0.3359
21602W        W40456   3.052   5.095  12.020 -0.2041  0.2062  0.1472
21603W        W40457  14.934  11.477   4.251 -0.0620 -0.0628  0.2829
21604W        W40458  12.256  15.137  15.463 -0.0030  0.0514 -0.1063
21605W        W40459   7.669   5.490   1.125  0.0093  0.0553  0.0071
21606W        W40460  17.193   3.589   2.470 -0.0148  0.2278  0.1429
21607W        W40461  13.704  16.126   4.460 -0.0931  0.1965  0.0153
21608W        W40462  12.479   7.455  15.015  0.2754 -0.0897 -0.0221
21609W        W40463  10.723   4.177  13.357  0.0735  0.2132 -0.0354
21610W        W40464   7.889  10.143   2.218  0.0928 -0.3758  0.0636
21611W        W40465   2.675   6.489  14.013 -0.0418  0.1917  0.1740
21612W        W40466  16.660   5.854  14.640  0.1070  0.1017 -0.2107
21613W        W40467   9.781   5.867   4.068 -0.0844 -0.0088  0.1353
21614W        W40468   8.393   1.382  11.846 -0.2650 -0.3649 -0.0936
21615W        W40469   3.384   5.683  14.824  0.0201  0.0576 -0.1467
21616W        W40470  13.662  13.515   4.240 -0.0784 -0.1260 -0.1780
21617W        W40471   5.977   1.540  15.007 -0.0737 -0.0460  0.1373
21618W        W40472  11.236   9.429   3.522  0.0274  0.0637  0.2168
21619W        W40473  11.822   7.693   0.378 -0.2051 -0.2432 -0.0418
21620W        W40474  11.072   5.619   2.806 -0.1934 -0.0375  0.4366
21621W        W40475   0.043   0.962   2.643  0.2005  0.1833  0.0063
21622W        W40476   2.307   3.275  14.893  0.1170 -0.2200 -0.1343
21623W        W40477   1.392   6.124  11.546  0.0505 -0.1437 -0.3611
21624W        W40478   0.644  17.782   0.476  0.0764 -0.1926  0.1561
21625W        W40479  10.963   7.243  12.704 -0.3454 -0.0262  0.1953
21626W        W40480   2.854   4.897  13.045  0.3326 -0.0054 -0.0614
21627W        W40481   4.648   8.339  13.501 -0.0327 -0.0306 -0.0647
21628W        W40482  12.667   4.921  11.921 -0.1762 -0.1238 -0.0166
21629W        W40483   4.671   2.837   4.136  0.1144  0.1359 -0.0110
21630W        W40484  15.645   2.739   3.719  0.3832  0.0370  0.0629
21631W        W40485   1.204   6.450   2.625  0.0513  0.0886 -0.2211
21632W        W40486  14.060  11.659   4.022  0.1742  0.0113  0.2796
21633W        W40487   7.387   3.842  10.690 -0.2416 -0.2397 -0.0169
21634W        W40488  14.260  17.090  11.455  0.0274 -0.1819 -0.3317
21635W        W40489  11.722   1.004   2.343  0.1686  0.2684  0.0327
21636W        W40490   6.541  11.084  11.980  0.1164 -0.1206 -0.1330
21637W        W40491  15.324   7.383  12.236 -0.1354  0.2731 -0.0367
21638W        W40492   9.366   1.323   5.879 -0.0978 -0.1054 -0.2497
21639W        W40493  11.519   8.668  12.117  0.3139 -0.1341  0.0237
21640W        W40494   1.320   2.685   0.849 -0.0712 -0.0838  0.2568
21641W        W40495   6.119   4.014   4.221 -0.2051 -0.2105  0.1589
21642W        W40496   8.650  16.546  14.830  0.3406 -0.3749 -0.1924
21643W        W40497  12.995  15.302  14.379  0.1351 -0.0270  0.0033
21644W        W40498   7.523   7.143  15.367  0.1463  0.1851 -0.0042
21645W        W40499  14.248  10.604   1.435 -0.0146  0.0624 -0.1270
21646W        W40500   8.465  13.521  14.469 -0.1230 -0.1056  0.2407
21647W        W40501  12.072  17.788   5.138 -0.1716 -0.1655  0.0805
21648W        W40502   1.438   0.493  13.519 -0.2641  0.0084  0.2233
21649W        W40503   3.112   4.094   0.104 -0.2301 -0.1395 -0.1441
21650W        W40504   2.743   8.836  13.666 -0.3516  0.1199 -0.1119
21651W        W40505  16.803   8.970  12.645  0.0590  0.4198 -0.3727
21652W        W40506   0.645  15.319   1.330  0.1906  0.2628  0.3325
21653W        W40507  11.813  17.449   0.307  0.0840  0.1626 -0.0987
21654W        W40508   3.015   8.537  14.176 -0.1404  0.2381  0.2397
21655W        W40509  12.332   4.833   0.495  0.1601 -0.1094  0.0116
21656W        W40510  11.895  16.342   3.374 -0.0530 -0.1284 -0.0276
21657W        W40511   1.224   8.220   0.089 -0.1883 -0.1538 -0.3358
21658W        W40512   1.636  13.974  14.278  0.0978  0.1827 -0.1550
21659W        W40513   3.622  10.790   2.228  0.1088 -0.0386  0.0824
21660W        W40514   9.718   4.162   1.783 -0.0528 -0.1147 -0.0511
21661W        W40515   6.302   8.548   2.140 -0.3549  0.1128  0.0828
21662W        W40516   3.153  11.949  13.075  0.1725  0.1380  0.0844
21663W        W40517   6.543  12.559  15.280  0.0829  0.1371  0.2740
21664W        W40518   6.666   3.476  13.515 -0.0410 -0.0176 -0.0396
21665W        W40519   8.873   1.733   0.760 -0.1188 -0.2872  0.1319
21666W        W40520   1.373   1.254   3.385 -0.0759 -0.0144 -0.1290
21667W        W40521   4.784   3.850   3.558  0.1446 -0.1472 -0.2449
21668W        W40522  10.078   5.384  12.170  0.2414 -0.2221  0.1724
21669W        W40523   0.109  15.031   3.137 -0.0865 -0.4260  0.1477
21670W        W40524   7.753   3.025  14.959 -0.0202 -0.0051 -0.1458
21671W        W40525   1.693  11.660  13.130 -0.4022  0.2912 -0.1186
21672W        W40526   8.112   8.382   1.980  0.2397  0.1393 -0.1668
21673W        W40527   0.028   3.535   2.750  0.3395  0.1816 -0.1309
21674W        W40528   8.639  15.676  14.779 -0.4308  0.0630 -0.2032
21675W        W40529  11.378  13.148   1.823  0.3116 -0.2319 -0.0564
21676W        W40530  14.801  17.229  15.367  0.1869  0.2061  0.1799
21677W        W40531   9.429  15.926  13.758  0.0259  0.1135  0.0224
21678W        W40532  14.953  10.126   3.312  0.2909 -0.1620 -0.1404
21679W        W40533   1.804  10.637  15.282 -0.0417 -0.0323 -0.0327
21680W        W40534   0.159  10.412  15.029 -0.0181 -0.2724  0.1099
21681W        W40535  14.529   8.269  11.772  0.0031 -0.1600  0.1034
21682W        W40536   7.558  13.380   0.969 -0.4029 -0.4754  0.0030
21683W        W40537   6.222   9.136   1.016 -0.0393 -0.2438 -0.2146
21684W        W40538   3.050   8.053   0.826 -0.1394 -0.1213  0.1451
21685W        W40539   1.303  15.425  13.317 -0.4726  0.2351  0.0127
21686W        W40540   8.813  16.258   4.653 -0.0300  0.2461 -0.0068
21687W        W40541   2.374   1.853   4.629 -0.1260  0.1831 -0.0591
21688W        W40542   7.271   9.170   1.898  0.0385 -0.0134 -0.2176
21689W        W40543   9.236  10.629   1.344  0.1058 -0.0750 -0.0732
21690W        W40544   2.993   3.140  13.661  0.0362 -0.0520  0.2464
21691W        W40545  15.048  16.118   0.575  0.1487 -0.0158 -0.0123
21692W        W40546  13.567   3.843  13.775 -0.0583 -0.2444 -0.1749
21693W        W40547   4.731  11.138   4.308  0.3575  0.2515  0.0739
21694W        W40548  16.868  15.241   4.246 -0.2623  0.0070 -0.0419
21695W        W40549  11.468   3.442  15.485  0.0598  0.0115  0.0656
21696W        W40550  15.120   7.037  12.982 -0.0281  0.1209  0.0198
21697W        W40551   7.390   3.301  12.152  0.0172 -0.0092 -0.0835
21698W        W40552  13.587   3.475  13.451 -0.0554  0.3177  0.0541
21699W        W40553   2.830  17.114   0.772  0.0712  0.0517 -0.0790
21700W        W40554  17.094   4.914  10.485 -0.0657 -0.0493  0.0887
21701W        W40555   0.520   3.371   3.753  0.1444 -0.0135  0.1132
21702W        W40556   5.166  13.470   3.261  0.1814 -0.0253 -0.2020
21703W        W40557   3.378   4.967  12.469  0.2814 -0.1945  0.1545
21704W        W40558   7.429  14.094  13.168  0.0057 -0.1182 -0.0734
21705W        W40559   7.792   9.482  11.891 -0.1612  0.0604  0.0996
21706W        W40560  17.273   7.593   2.671 -0.0852 -0.0421  0.1542
21707W        W40561  12.134   0.656   2.416  0.1018 -0.0776  0.1738
21708W        W40562   3.230   9.915   0.061  0.3088  0.0530 -0.3887
21709W        W40563   7.419  13.591  14.287 -0.0170 -0.0629 -0.0987
21710W        W40564  12.649   4.172  11.796  0.0804  0.1727  0.1754
21711W        W40565  15.834  10.589  12.353  0.0723 -0.2421  0.1547
21712W        W40566  17.789   8.916  13.625 -0.1139 -0.0380  0.1892
21713W        W40567   0.564   3.099   4.201  0.0812  0.0345 -0.1084
21714W        W40568  11.432   3.229  15.921 -0.0092  0.1775 -0.0507
21715W        W40569   0.958   4.608   4.731 -0.0997 -0.2286  0.2251
21716W        W40570  17.062   2.225  12.085  0.3277  0.2769 -0.1487
21717W        W40571   7.614  10.647  13.393  0.1327  0.1398  0.1086
21718W        W40572  16.978  14.465   4.958  0.0375  0.1278  0.0247
21719W        W40573  17.937   4.920  12.135 -0.0040 -0.0598 -0.1027
21720W        W40574  12.988   9.290  15.691 -0.0629 -0.1231 -0.2109
21721W        W40575  11.397   8.733   2.942  0.1878  0.1373 -0.0896
21722W        W40576  13.547   0.063   2.539  0.0054  0.0913  0.0721
21723W        W40577   2.535   7.458   2.719  0.0323  0.0202  0.0531
21724W        W40578   1.521   8.316  11.754  0.0964  0.0804 -0.0594
21725W        W40579  11.272   0.095   2.646 -0.1612  0.1318 -0.1946
21726W        W40580   2.566  10.655  12.877 -0.2707  0.1999  0.0153
21727W        W40581   9.941   5.894   1.379 -0.0563 -0.1525 -0.1911
21728W        W40582   0.513   0.266   3.664 -0.1273 -0.2446  0.0305
21729W        W40583   0.217   5.434   1.336  0.0979  0.3608 -0.0788
21730W        W40584  13.447  12.393   1.520 -0.1888  0.1006 -0.3069
21731W        W40585   0.871   9.313   1.967  0.2718  0.0691 -0.0388
21732W        W40586  11.899   0.865   2.824 -0.2816 -0.1609  0.0003
21733W        W40587   9.978  11.857   1.083 -0.1032 -0.0993  0.2926
21734W        W40588  10.929   4.941   1.890 -0.0270  0.3553 -0.1692
21735W        W40589   0.360  14.698   0.606 -0.4277 -0.1853  0.0178
21736W        W40590  11.633   8.066   3.246 -0.2125  0.1801 -0.1165
21737W        W40591   8.752   3.496  11.644  0.2229 -0.0821  0.2301
21738W        W40592   5.892   7.764   1.451 -0.3027 -0.1480  0.1121
21739W        W40593  13.499  11.909  13.823  0.4082  0.1883  0.2798
21740W        W40594  16.269  16.522   4.669  0.0953 -0.1579 -0.1959
21741W        W40595   1.534   7.421  13.002 -0.0065  0.2434  0.0199
21742W        W40596   7.455   2.630  14.866 -0.3504 -0.3281 -0.3557
21743W        W40597  16.953  14.579  13.386 -0.1013 -0.2627  0.0779
21744W        W40598   5.507  10.812   2.356  0.1407  0.1111  0.0142
21745W        W40599   8.955   1.337  16.199 -0.1758 -0.0157  0.0886
21746W        W40600   5.985  13.247  11.849  0.5723  0.0790 -0.0054
21747W        W40601  11.454   0.676  12.996 -0.0468  0.1162  0.0270
21748W        W40602  13.387  13.432   1.696 -0.4001 -0.0130  0.0323
21749W        W40603  11.981   8.274   1.131 -0.3238 -0.2369 -0.4055
21750W        W40604   8.440   9.859  15.288 -0.1163 -0.1574 -0.1682
21751W        W40605   7.997  16.871   3.109  0.0809 -0.5283  0.1257
21752W        W40606   0.446   4.097  13.434 -0.2956 -0.2196 -0.1026
21753W        W40607   9.206   0.419   0.692  0.4138 -0.0643 -0.1698
21754W        W40608   5.314  17.163  15.651 -0.0048  0.0147  0.4184
21755W        W40609   6.052   4.470   4.603  0.0756 -0.0456  0.0341
21756W        W40610   8.220  15.221   4.914  0.2514 -0.1445  0.1802
21757W        W40611  14.551   2.288   4.587 -0.0836  0.1635 -0.4252
21758W        W40612  16.055   4.637  15.613 -0.2683 -0.0732  0.0871
21759W        W40613   9.930  11.554  12.484  0.0285 -0.0802  0.1532
21760W        W40614  13.298  13.641  14.928 -0.0280 -0.0275  0.0570
21761W        W40615   4.260   2.689  14.913 -0.0505  0.0259 -0.1680
21762W        W40616  14.900   7.083   9.977  0.2518 -0.0957  0.2974
21763W        W40617   9.832  15.601   1.797  0.0649  0.0399 -0.3883
21764W        W40618  12.271  12.955   2.727  0.0182 -0.1465 -0.2070
21765W        W40619   5.441   3.388  13.548  0.0046  0.3004 -0.3108
21766W        W40620   8.718  11.011  12.563 -0.0569  0.2227  0.2354
21767W        W40621  17.145   6.915   2.741  0.0394 -0.0150  0.0326
21768W        W40622   0.199   8.612  12.941 -0.1356 -0.1149  0.2022
21769W        W40623   9.439  13.268  11.806  0.1014  0.0866  0.1653
21770W        W40624  11.737   7.719  15.499  0.0330  0.2202  0.0264
21771W        W40625   1.541   2.195   0.940 -0.1476 -0.2327 -0.1703
21772W        W40626   0.071  17.652   3.504  0.0285  0.1548  0.0232
21773W        W40627   9.366   5.783  11.256 -0.0501  0.0148  0.0294
21774W        W40628   5.538   3.218  12.611 -0.3767 -0.0189 -0.1890
21775W        W40629  15.670   0.628   2.777 -0.0245 -0.1293 -0.0307
21776W        W40630   2.636   6.969   1.723 -0.0488  0.2569 -0.2257
21777W        W40631   1.239  13.049   3.189 -0.2490 -0.0767  0.1504
21778W        W40632   0.827   7.606  13.562  0.1747  0.1223  0.0492
21779W        W40633  12.382  10.696  11.261 -0.0632 -0.0415  0.1860
21780W        W40634  10.530   8.558   2.571 -0.3676  0.0576 -0.2197
21781W        W40635   3.070  14.738  13.497 -0.1553 -0.1498 -0.3820
21782W        W40636   0.630   0.687  12.536 -0.4081 -0.0963  0.2324
21783W        W40637  14.566   8.467   0.608  0.0149 -0.3041 -0.0100
21784W        W40638  13.120  11.430  14.942  0.0797  0.0983 -0.2268
21785W        W40639  15.000   3.233   2.687 -0.2415  0.0029  0.2855
21786W        W40640  14.384   1.003  13.494  0.1960 -0.1018  0.0059
21787W        W40641   8.382   2.497  14.803  0.0212 -0.1115  0.0000
21788W        W40642   8.449   0.877  14.990  0.1408  0.3972 -0.0026
21789W        W40643  15.317   2.359  12.358  0.0705 -0.1146  0.1883
21790W        W40644  15.303  12.421  12.800 -0.1089  0.1394  0.0274
21791W        W40645   7.605  13.738   3.999  0.1371  0.0004  0.0938
21792W        W40646  13.112   2.394  13.745  0.1817 -0.0126  0.1316
21793W        W40647   9.499   9.319   4.406 -0.0891  0.2124 -0.1233
21794W        W40648   7.977  13.574   4.835 -0.0307 -0.1186 -0.4692
21795W        W40649  16.527   3.188   5.090 -0.0518  0.1700  0.3225
21796W        W40650  16.621   0.436  15.036  0.0734  0.0278 -0.0972
21797W        W40651  14.636   5.176  13.042 -0.0618 -0.2903 -0.3273
21798W        W40652   1.934   7.213   0.837 -0.2054  0.0782  0.3175
21799W        W40653   4.524  10.012  15.871 -0.0727 -0.2082  0.0858
21800W        W40654  15.605  10.807   1.071 -0.2274 -0.0076  0.2169
21801W        W40655  17.896   3.931   4.441  0.1555  0.1720 -0.0430
21802W        W40656   4.753   6.618   0.959 -0.1494 -0.2414 -0.0127
21803W        W40657   8.235   5.986  14.394 -0.0529  0.0693 -0.2477
21804W        W40658  10.074   6.626  15.656  0.2802  0.2134  0.0795
21805W        W40659   5.785   9.660  13.681 -0.2044  0.1820 -0.0762
21806W        W40660  17.408  12.803  12.559 -0.1538  0.3753  0.1036
21807W        W40661   8.754  14.811   0.922 -0.1070 -0.0917 -0.2216
21808W        W40662  13.016   4.070  16.077  0.0055 -0.0874  0.3952
21809W        W40663   8.303   8.279   4.183 -0.4253 -0.2196 -0.3824
21810W        W40664  11.897   9.855  11.816  0.1405 -0.1963  0.0416
21811W        W40665   5.002  11.460   3.272 -0.3789 -0.1478 -0.1609
21812W        W40666   1.624  16.131   2.728 -0.0566  0.2853 -0.0377
21813W        W40667   7.558   0.509   4.596  0.0792 -0.1316 -0.1269
21814W        W40668   4.451  17.350  15.234  0.1699 -0.1735  0.1507
21815W        W40669  17.092  12.293   5.701 -0.3123 -0.0703  0.3165
21816W        W40670   9.785   2.707   3.358  0.0020 -0.1423  0.0546
21817W        W40671   8.605   0.180  12.603 -0.0263  0.2052 -0.4318
21818W        W40672   6.205   6.156  11.852 -0.0209 -0.1208 -0.0811
21819W        W40673  13.037   0.444  13.521 -0.2522 -0.0088 -0.0066
21820W        W40674   9.133   8.443  14.677  0.0489 -0.1835 -0.1676
21821W        W40675   2.012   0.086   4.720 -0.1749  0.0415 -0.3633
21822W        W40676   0.058   6.462  14.900  0.1504  0.1365  0.0408
21823W        W40677   3.515   6.529   0.722  0.1669 -0.1072 -0.0771
21824W        W40678  13.783  14.813  11.891 -0.0849 -0.0473 -0.1621
21825W        W40679  12.872  12.295   2.380  0.1351 -0.3154 -0.0358
21826W        W40680   4.147  10.711   2.042  0.1702 -0.2744 -0.0688
21827W        W40681  15.377   5.357  13.246  0.1174 -0.0087 -0.3174
21828W        W40682   1.418   8.441   4.246  0.1961 -0.2760  0.1955
21829W        W40683   7.159   3.832  12.138 -0.0367  0.2518 -0.1048
21830W        W40684   7.382   4.150  13.961  0.1016  0.2366  0.1333
21831W        W40685  16.940   4.244  14.018 -0.1213  0.1879 -0.0739
21832W        W40686  16.430   6.880  12.763  0.1130 -0.4117  0.0372
21833W        W40687  17.123  14.730  11.864  0.1067  0.0397 -0.3921
21834W        W40688  12.194   4.394  12.964  0.2876  0.1198  0.1573
21835W        W40689   0.006   5.033   0.175 -0.4362  0.2696 -0.3034
21836W        W40690  12.371  11.203   3.730  0.2013 -0.1111  0.0864
21837W        W40691  12.758  12.755  12.030  0.1802 -0.2556  0.2325
21838W        W40692  16.861   1.360   2.170  0.1820 -0.2127  0.1278
21839W        W40693  16.069  13.795  13.163  0.2050  0.1653 -0.2526
21840W        W40694  10.504  10.237  12.741  0.2534 -0.2454 -0.0827
21841W        W40695  11.677   9.744   4.320  0.4463  0.1308 -0.0777
21842W        W40696  10.217  14.925  12.462  0.3220  0.1572  0.0069
21843W        W40697  17.820   4.630   1.068 -0.2409 -0.0520 -0.0801
21844W        W40698   3.399  16.247  11.821  0.3528 -0.5423 -0.0361
21845W        W40699  13.068  13.162   1.167  0.0061  0.3779 -0.1303
21846W        W40700  10.528  14.550  13.874  0.0403 -0.0039  0.2846
21847W        W40701   0.605  11.781   3.668 -0.1136  0.0999 -0.0713
21848W        W40702   0.120   5.214   4.339  0.0219 -0.0087 -0.4248
21849W        W40703  14.908   5.053   2.225 -0.0350 -0.1297 -0.1694
21850W        W40704  12.616  11.465   5.277 -0.1714  0.1658 -0.0229
21851W        W40705   4.825  13.406  12.566 -0.1061  0.3781 -0.0960
21852W        W40706   7.884  17.468  14.258  0.0195  0.0932 -0.0102
21853W        W40707   2.685   4.753   3.121  0.0872  0.2974  0.1023
21854W        W40708   5.864  11.233   2.191 -0.0568 -0.0127  0.2832
21855W        W40709   3.118   0.115   1.447 -0.0118  0.0377  0.0113
21856W        W40710   8.538   8.968   2.560  0.0807 -0.2089  0.0023
21857W        W40711  16.797  11.015  14.790  0.3105  0.0320  0.0282
21858W        W40712   6.056  15.321  12.017 -0.1324 -0.2332  0.0525
21859W        W40713  16.464   5.625   1.824  0.4141 -0.0630  0.1293
21860W        W40714   2.440  17.256   4.701  0.1943  0.1234 -0.3937
21861W        W40715  15.566   9.800  14.281 -0.1445 -0.1394  0.3985
21862W        W40716  10.787   8.279   3.429  0.1920  0.3690 -0.0431
21863W        W40717   0.995   7.631  14.844 -0.0175 -0.2938 -0.1816
21864W        W40718   7.754  17.551   1.093  0.0590 -0.1709 -0.1406
21865W        W40719  14.640  10.689   3.261 -0.2094  0.1832 -0.0491
21866W        W40720  16.364  16.854  13.616  0.0455 -0.2419 -0.0691
21867W        W40721   1.455  13.208   0.722  0.0981 -0.3792 -0.0995
21868W        W40722   7.652  14.048   0.241 -0.0098 -0.0622 -0.2584
21869W        W40723   6.989   8.328  14.652  0.3015  0.1860  0.4536
21870W        W40724   3.776   0.831   3.440  0.0376  0.0264 -0.0315
21871W        W40725   6.845  10.884  15.823  0.0009  0.0603 -0.0710
21872W        W40726   8.574  10.138   3.298 -0.3829 -0.2657 -0.0697
21873W        W40727  17.642  12.740  15.147 -0.2122  0.2772  0.1154
21874W        W40728   9.290   0.470  16.016 -0.0429  0.0460  0.0656
21875W        W40729   7.763  17.737   0.082 -0.1936  0.0010 -0.0438
21876W        W40730   9.692   4.617  15.736  0.1022  0.2147 -0.1489
21877W        W40731  14.615   8.606  11.367 -0.0260 -0.0226 -0.3985
21878W        W40732  14.558  16.702  12.291 -0.3297  0.0921 -0.2548
21879W        W40733  10.057  12.181  13.769  0.1705  0.0903  0.4679
21880W        W40734  13.245   5.086  15.059  0.1590 -0.3206 -0.1104
21881W        W40735  17.188   3.370  15.050  0.2173 -0.1157 -0.1460
21882W        W40736  17.575   2.849   2.011  0.0295  0.2293 -0.1977
21883W        W40737  11.627   7.224   5.137  0.2464  0.1286 -0.2590
21884W        W40738  16.515   1.761  14.501  0.2501  0.0571  0.1307
21885W        W40739   1.822  12.435  13.495  0.5796 -0.1483 -0.1038
21886W        W40740   0.841  15.456  11.564 -0.0190 -0.2710  0.1866
21887W        W40741  12.470   5.266   3.717  0.2166 -0.2239 -0.0054
21888W        W40742   7.062   4.237   3.316  0.0213 -0.1336 -0.2638
21889W        W40743   2.258  10.230  12.226 -0.0431 -0.4666 -0.0063
21890W        W40744  14.790   7.157  11.004  0.0713  0.0679  0.0795
21891W        W40745   3.001   8.025   1.307  0.0175 -0.3124 -0.0506
21892W        W40746   0.833   3.645  12.138 -0.2565  0.3598 -0.2093
21893W        W40747  15.091   9.303   2.217  0.4278 -0.0450  0.0677
21894W        W40748  11.685   3.183  13.767  0.0865  0.1637  0.0434
21895W        W40749   6.913   5.258   0.023 -0.0996 -0.0968  0.1613
21896W        W40750  10.674   0.370   0.517  0.2584  0.1412  0.3207
21897W        W40751  14.978  17.296   3.433 -0.1800  0.0424  0.2643
21898W        W40752  16.036  14.100   0.215  0.0600 -0.0909 -0.0935
21899W        W40753  18.033  14.131  16.013 -0.0310  0.0324  0.1146
21900W        W40754   1.725   6.279  14.686 -0.0928  0.0405  0.2176
21901W        W40755   8.562   1.130  12.224  0.0763  0.0272 -0.1010
21902W        W40756   1.171  17.617   3.119  0.2282  0.0648  0.0805
21903W        W40757   6.392   1.093   2.634  0.1562 -0.0473  0.1998
21904W        W40758   1.066  15.286   4.265 -0.0694  0.1273 -0.1304
21905W        W40759   7.913  17.831   3.641  0.2070  0.0055  0.0030
21906W        W40760  10.647   6.188  11.947 -0.0222 -0.2258 -0.0471
21907W        W40761   3.303   8.606   2.162  0.1826  0.2251 -0.0527
21908W        W40762  15.435   7.270  10.961 -0.0638  0.1181 -0.3507
21909W        W40763   3.216  13.480  13.660  0.3634 -0.0842 -0.0995
21910W        W40764  15.777  13.214  14.763  0.0493  0.1481 -0.2924
21911W        W40765   6.539   2.364   0.959  0.0344 -0.1946 -0.1687
21912W        W40766   9.650   2.319  12.800 -0.2145 -0.0384 -0.1802
21913W        W40767   4.547   8.427   2.504  0.0473 -0.1611  0.0189
21914W        W40768   8.960  12.553   4.052 -0.3686 -0.1052  0.0075
21915W        W40769   1.124  12.735   1.759  0.3333  0.1719 -0.1107
21916W        W40770   4.789  14.628  13.056  0.2693  0.2973  0.1198
21917W        W40771   5.403   2.602  15.751  0.1192 -0.3513 -0.1508
21918W        W40772  10.091   0.186   2.033 -0.2310  0.4298  0.1931
21919W        W40773   5.413   2.264   3.390  0.1162  0.1599 -0.0584
21920W        W40774   2.913  12.077  12.354  0.0499  0.1137  0.0843
21921W        W40775   2.585   0.603   1.492  0.5000 -0.1788 -0.0017
21922W        W40776  10.427  15.405  11.004 -0.3251 -0.1588  0.3638
21923W        W40777  10.128   8.833   1.883 -0.2413 -0.2646 -0.1283
21924W        W40778  16.067   6.164   1.895 -0.2372  0.0723  0.3781
21925W        W40779   2.474   8.269  11.378 -0.1560  0.1478  0.1545
21926W        W40780   5.420   9.679  15.532 -0.2822 -0.0238  0.1101
21927W        W40781   5.402  16.519  14.561  0.4742 -0.0112  0.0176
21928W        W40782  16.114  12.137   4.638  0.1044  0.0432  0.1305
21929W        W40783   0.240   4.084  13.910 -0.0898 -0.2016  0.0397
21930W        W40784   5.750   8.389  13.845 -0.4422 -0.0762 -0.0568
21931W        W40785   5.564   4.808  12.414 -0.0642  0.2272 -0.4971
21932W        W40786   6.113   0.119  11.970  0.1101 -0.3492  0.1003
21933W        W40787   6.301  13.350   3.498  0.2304  0.1585  0.2915
21934W        W40788   9.731   0.983   2.411 -0.3378 -0.2179  0.0429
21935W        W40789   8.338   2.868  15.110  0.1130 -0.0409  0.0731
21936W        W40790   9.773   2.445  16.199 -0.4952  0.3108  0.0143
21937W        W40791   6.401   1.158   6.122  0.0078 -0.0810  0.0563
21938W        W40792   1.018  13.464  12.547  0.2793 -0.0860  0.0360
21939W        W40793  13.526   8.450  13.530 -0.0391  0.2054 -0.3436
21940W        W40794  15.386  11.003  15.811  0.0787  0.1611  0.1461
21941W        W40795  13.817  13.259   5.104  0.2455  0.0247  0.2736
21942W        W40796  11.230  13.078  14.529  0.2489 -0.0466  0.1776
21943W        W40797  13.794  16.313  14.013 -0.2237 -0.4358  0.1020
21944W        W40798  12.082   2.987   2.507 -0.2185  0.0939 -0.0962
21945W        W40799   7.029  11.017  11.984 -0.1516  0.1294 -0.2505
21946W        W40800   2.236   9.103   0.383  0.1244 -0.1392  0.0008
21947W        W40801   8.433   0.044  15.000  0.0892 -0.1421  0.0487
21948W        W40802   3.735   5.143   1.291  0.1033  0.1583  0.0346
21949W        W40803   6.394  10.907   0.435  0.0278 -0.1185  0.2376
21950W        W40804  15.261   5.764  15.303 -0.0079 -0.2245  0.0603
21951W        W40805  14.387   5.270   4.306 -0.1665 -0.0528  0.0771
21952W        W40806   5.209   8.692  15.299  0.1624  0.0105  0.1626
21953W        W40807  16.500   3.595   4.207  0.3211  0.2665  0.2852
21954W        W40808  12.238  17.278  14.520 -0.0415  0.1535 -0.3352
21955W        W40809  14.309  10.713  10.419  0.0829 -0.1684 -0.1493
21956W        W40810   0.579   9.883  14.350 -0.1604  0.2581  0.3599
21957W        W40811   6.190  17.024   4.796  0.2831  0.0300  0.0271
21958W        W40812   4.565  12.503  15.283  0.0577 -0.3205  0.1234
21959W        W40813  10.850  12.787  14.074 -0.3171  0.1937  0.2080
21960W        W40814   6.047   9.295  14.437 -0.0745  0.0529 -0.0533
21961W        W40815  14.581   1.735  11.907  0.1826 -0.0376  0.0095
21962W        W40816   6.048   0.574   0.713  0.0889  0.3145 -0.0480
21963W        W40817  14.418  13.147  15.910  0.3955 -0.1799  0.0429
21964W        W40818   6.441  13.487  11.729 -0.0132  0.1165 -0.1085
21965W        W40819   0.987   9.962   3.208 -0.2259  0.2748  0.0970
21966W        W40820   1.219  13.917   2.252 -0.2811 -0.0044  0.0510
21967W        W40821  12.868  14.554   4.683 -0.0801 -0.1124  0.0948
21968W        W40822  15.775   6.541   1.675  0.2303 -0.2227 -0.2612
21969W        W40823   5.635  16.028  14.741  0.3406  0.0917  0.0408
21970W        W40824  18.006   4.030   2.860 -0.1412  0.0463 -0.0972
21971W        W40825  10.149   1.704   3.168 -0.1196 -0.2351 -0.0273
21972W        W40826   0.588   9.195   0.001  0.2609  0.1645  0.0039
21973W        W40827  15.566  12.948  14.011  0.1720  0.3492  0.1091
21974W        W40828   9.401  16.780   1.137  0.1381 -0.0518 -0.0964
21975W        W40829  16.145   0.100  14.093 -0.2677 -0.0022 -0.2986
21976W        W40830   9.247  10.818   4.152  0.2453  0.0534  0.0544
21977W        W40831  12.066   9.710   2.451  0.1455  0.1043  0.1693
21978W        W40832  16.709   8.773  10.874  0.1460  0.1065 -0.0289
21979W        W40833   3.228  10.393   0.287 -0.0109 -0.0099  0.2774
21980W        W40834   9.881  15.692   0.683 -0.0939  0.3524  0.0884
21981W        W40835  11.240   6.750   3.601 -0.0255 -0.0639  0.2669
21982W        W40836   7.180  12.778   2.934  0.0173 -0.0030  0.2649
21983W        W40837  14.166  13.159   4.211  0.0143  0.0203 -0.3391
21984W        W40838  17.522  13.165   1.660  0.1506  0.0125 -0.0495
21985W        W40839  13.936   4.236  12.414 -0.1947  0.0950 -0.1354
21986W        W40840   5.921  17.232   3.970  0.0686 -0.0919 -0.1016
21987W        W40841   5.022  16.701  14.876  0.3811 -0.0587  0.0453
21988W        W40842   1.213  16.624   4.060  0.0881 -0.0102 -0.1444
21989W        W40843  17.594  12.279  13.840  0.0042  0.2546 -0.1917
21990W        W40844   4.735   6.778  16.194  0.1051  0.1410 -0.2381
21991W        W40845  14.672  15.502   2.360  0.0234 -0.1765 -0.3652
21992W        W40846   6.604  10.318   5.508 -0.0095  0.0879 -0.2208
21993W        W40847  14.870  14.202   1.801  0.0838  0.1089 -0.0688
21994W        W40848  16.566   9.769   4.645  0.1175 -0.0262 -0.0380
21995W        W40849   6.496  15.233  10.735 -0.0723 -0.1228 -0.2434
21996W        W40850   7.532   7.910   1.068 -0.1107  0.0433  0.3368
21997W        W40851   4.620  10.215   0.449  0.1386  0.0710 -0.3526
21998W        W40852   1.859  15.402   2.892  0.0235 -0.2086 -0.1787
21999W        W40853   9.029  15.676  13.654 -0.1563  0.1133 -0.0603
22000W        W40854   7.954   7.762  12.212  0.2938 -0.1656 -0.2159
22001W        W40855  15.012   4.782  15.387  0.0715  0.2577 -0.1276
22002W        W40856  14.895   5.423  15.272  0.0321  0.0030  0.1248
22003W        W40857  16.792  17.587  12.045 -0.1989 -0.0130 -0.1837
22004W        W40858   9.410   2.538  13.214  0.4346 -0.1480 -0.2866
22005W        W40859   2.947   1.779   1.909  0.2181 -0.1186 -0.3135
22006W        W40860   9.833  17.199  11.878 -0.1656 -0.2346  0.1102
22007W        W40861   9.023   9.372  13.282  0.1582 -0.1158  0.3231
22008W        W40862   9.808  12.536   3.921  0.4481 -0.0003  0.1003
22009W        W40863  11.699  16.809  14.531  0.0747 -0.0117 -0.2497
22010W        W40864  11.397   3.192  11.734 -0.0589  0.1687  0.2910
22011W        W40865   2.933  13.045  15.426 -0.4318 -0.3305 -0.0071
22012W        W40866   9.923   6.725   2.681  0.1463 -0.1750 -0.3390
22013W        W40867   8.135  10.994   0.620 -0.0471 -0.1989 -0.0984
22014W        W40868  12.683   3.544   0.976 -0.1069  0.0861 -0.1466
22015W        W40869   5.496   8.938  12.017 -0.0410  0.1857  0.3128
22016W        W40870  14.281  11.568  12.773  0.1418 -0.0165  0.0560
22017W        W40871  17.980   5.005  11.132 -0.0617  0.0817 -0.1073
22018W        W40872  14.869   0.922  13.493  0.1430 -0.2892  0.1038
22019W        W40873  15.415  15.934   4.859 -0.0804 -0.0458 -0.1566
22020W        W40874   0.324   9.695  13.773 -0.0027  0.3225 -0.0340
22021W        W40875   8.452   4.019   5.872 -0.2381  0.0529 -0.1245
22022W        W40876  16.333  17.326  13.342 -0.1860 -0.1841 -0.0395
22023W        W40877  16.890   2.188  15.230 -0.2959  0.1991  0.0615
22024W        W40878   6.955   3.207  15.675 -0.0521  0.0735  0.4793
22025W        W40879  12.954   0.214   1.954  0.0452 -0.2629 -0.0385
22026W        W40880  16.619   8.335   2.146  0.0144 -0.0961 -0.0897
22027W        W40881   0.664   5.872  13.228 -0.1892  0.0241 -0.2173
22028W        W40882  10.886  12.001  15.939 -0.2741 -0.1512 -0.1308
22029W        W40883   8.583   1.404  12.644 -0.0322 -0.2808 -0.0396
22030W        W40884   4.971   7.113  14.488  0.0832 -0.0581 -0.0442
22031W        W40885   8.658   2.642   1.384  0.3041 -0.1005 -0.2094
22032W        W40886  13.915  17.638  14.691 -0.0438  0.0626  0.2607
22033W        W40887  17.793   4.909   0.580 -0.0498 -0.1716  0.1601
22034W        W40888   1.227  10.541  12.918  0.1393  0.2082  0.1091
22035W        W40889  16.428  11.461  15.449 -0.0393 -0.0881  0.3142
22036W        W40890   6.495  17.135  14.406 -0.1548  0.1419  0.1167
22037W        W40891   3.082   0.117   0.132 -0.0235  0.2701 -0.3042
22038W        W40892  14.981   1.366  16.037  0.0751  0.0243 -0.0355
22039W        W40893   9.719  16.226  12.532 -0.2260  0.0375  0.1295
22040W        W40894  17.297  11.063   0.791 -0.2383 -0.1545  0.3573
22041W        W40895   0.307   6.989  15.195 -0.1042 -0.1557 -0.1274
22042W        W40896  13.936  10.649  13.530  0.1336 -0.2758 -0.0917
22043W        W40897  13.612   5.437   4.587  0.0726  0.3325  0.1167
22044W        W40898  10.890  17.842  15.439  0.0867  0.0673  0.0633
22045W        W40899  14.579   7.239   1.075 -0.1069 -0.0366 -0.0469
22046W        W40900   7.768  16.637  12.837 -0.4211 -0.0377  0.1802
22047W        W40901   8.595  16.806   4.213 -0.0986  0.3333  0.1669
22048W        W40902   7.470   3.628   1.274 -0.1192 -0.0395  0.0869
22049W        W40903   7.871   9.738   4.995  0.1058 -0.2651 -0.2690
22050W        W40904   3.685   1.517  13.988 -0.1054 -0.1790 -0.2385
22051W        W40905   8.811   8.907  14.672 -0.0574 -0.2254 -0.2536
22052W        W40906   2.897   2.241  11.143  0.0525 -0.0034  0.2924
22053W        W40907  10.353  14.328  12.827  0.1007 -0.0466 -0.2756
22054W        W40908   7.688   7.814  13.467 -0.2830  0.1691 -0.1242
22055W        W40909  16.510   9.806   3.744 -0.2443 -0.2818 -0.3731
22056W        W40910  13.325  14.940   3.446 -0.1747  0.4371 -0.0282
22057W        W40911   4.220   0.792   4.804 -0.0124  0.0550 -0.0859
22058W        W40912  15.490   1.234  15.223  0.1072 -0.2500  0.0286
22059W        W40913   7.173   1.295  13.074  0.0005  0.0777  0.1855
22060W        W40914   9.576   0.218   2.052 -0.3491  0.0658 -0.3641
22061W        W40915   5.336  17.295  13.805  0.0413  0.0239  0.1604
22062W        W40916  12.291  16.435   4.486  0.0341 -0.1582 -0.2712
22063W        W40917  13.077   4.553   0.255  0.1302  0.1409 -0.0295
22064W        W40918   9.557   2.646   0.321  0.1312 -0.2053 -0.0640
22065W        W40919   8.557   9.054  13.833  0.2356 -0.1857 -0.1874
22066W        W40920  11.869  10.435   0.163  0.0281  0.1155 -0.2090
22067W        W40921  10.442   5.690  14.163  0.2054  0.1368 -0.2376
22068W        W40922   8.546   4.481  14.877 -0.2316 -0.0770  0.1114
22069W        W40923   5.951   8.668   3.914  0.1283 -0.0470 -0.1150
22070W        W40924   6.239   6.888   1.548 -0.0034  0.2616 -0.0598
22071W        W40925  16.985  12.948  13.456  0.1979  0.0114 -0.2587
22072W        W40926  17.603  15.034  12.814  0.0879 -0.0994  0.0447
22073W        W40927   9.137  14.627   1.329  0.1970 -0.2496 -0.1356
22074W        W40928   3.139  15.593  14.591  0.1179 -0.2598 -0.1284
22075W        W40929   3.991  11.082   2.423  0.1003 -0.0417 -0.3734
22076W        W40930  13.082  15.926  16.089 -0.1218  0.2488 -0.0827
22077W        W40931   9.248   9.903   3.820  0.3237 -0.1126  0.1242
22078W        W40932  10.322  10.585   2.992 -0.2358  0.2434 -0.3230
22079W        W40933  13.352  14.597   1.935  0.2099 -0.0224  0.0650
22080W        W40934  15.158  14.223  12.900  0.1105 -0.1807 -0.2492
22081W        W40935   7.749  11.320   3.543 -0.0293  0.0893  0.3409
22082W        W40936  10.258  15.616   3.093 -0.2581 -0.1394  0.1828
22083W        W40937   3.628   9.104   1.203 -0.3116 -0.1222 -0.2327
22084W        W40938   0.095   7.417   2.095 -0.1399  0.0663 -0.3435
22085W        W40939  16.469  14.734   2.231 -0.0264 -0.1571  0.0958
22086W        W40940  15.750  10.759  14.823  0.1222  0.2265 -0.1081
22087W        W40941   4.128  12.812  11.201  0.1443  0.1369 -0.1159
22088W        W40942   9.362   2.325  12.239  0.0293 -0.2572  0.0237
22089W        W40943   7.129   5.667  13.389 -0.2687 -0.0349  0.2046
22090W        W40944  16.820  16.965   3.031  0.3409  0.1122  0.0076
22091W        W40945  15.313   5.734  14.358  0.1233  0.0265 -0.0202
22092W        W40946  16.644   5.695   3.177 -0.1017  0.2042  0.3414
22093W        W40947  11.250   7.463   2.775 -0.0864  0.2556 -0.1309
22094W        W40948   3.662   1.919   0.486 -0.1544  0.3302 -0.1662
22095W        W40949   7.108  16.047  12.096  0.3468  0.2658 -0.3074
22096W        W40950   6.444  10.564   3.513 -0.2872  0.1085 -0.2238
22097W        W40951  12.848   4.242   2.856 -0.1409 -0.3204 -0.0497
22098W        W40952  16.183   6.453  12.143  0.3619 -0.1567 -0.0897
22099W        W40953  15.490  17.094  11.826 -0.0386 -0.0365 -0.2730
22100W        W40954   6.076   4.966  11.974  0.1625 -0.1054 -0.1346
22101W        W40955  16.765   0.493  15.978  0.3186 -0.1940 -0.2449
22102W        W40956   4.009   7.196   3.087 -0.2081 -0.2526  0.0497
22103W        W40957   4.866   6.098   0.692  0.1549  0.3894  0.1024
22104W        W40958  14.198   1.709   3.954  0.0870 -0.2404  0.0155
22105W        W40959  12.298  13.114   4.857 -0.0393 -0.1514 -0.4805
22106W        W40960   5.226   8.914   4.207 -0.0150  0.0261  0.2516
22107W        W40961   1.060  13.658  14.349  0.1620  0.0426 -0.0785
22108W        W40962  13.043  15.835   0.670  0.0651  0.2264  0.1308
22109W        W40963   3.865  14.578   3.578  0.1141 -0.1128 -0.0337
22110W        W40964   5.973  12.728  15.138 -0.7735 -0.0453 -0.3183
22111W        W40965  11.061  17.835   3.713 -0.1363  0.1058 -0.0377
22112W        W40966  14.860   5.311   4.482  0.2155  0.0576 -0.1280
22113W        W40967  15.630  10.848  11.949 -0.2184 -0.0004 -0.0130
22114W        W40968  10.802  17.164   3.489  0.1269 -0.0446 -0.1374
22115W        W40969  12.206  11.924  14.237  0.0310 -0.0147  0.1389
22116W        W40970   4.478  15.266  14.603 -0.3765  0.2176 -0.0386
22117W        W40971   4.322   3.432  12.361  0.0621 -0.1099  0.1765
22118W        W40972  15.087   6.827  14.152 -0.3833  0.0129  0.1980
22119W        W40973   8.706  15.719  16.073 -0.0749  0.1340  0.3016
22120W        W40974  15.805   0.034   0.873 -0.2229 -0.1170 -0.0024
22121W        W40975  15.633   0.742  14.360  0.0871 -0.1883 -0.1997
22122W        W40976   9.118   9.054  15.197 -0.2086 -0.0594  0.0776
22123W        W40977   2.040   0.477  10.875  0.1059 -0.0323 -0.1375
22124W        W40978   5.261   8.023  11.120  0.2276 -0.2548  0.0831
22125W        W40979   6.363  11.672  13.592 -0.1599  0.1754  0.0066
22126W        W40980   8.335   6.110  11.756 -0.0477  0.0309 -0.2569
22127W        W40981  12.612  10.947  10.848  0.4178  0.0084  0.2298
22128W        W40982   4.812   4.855  13.018 -0.1161  0.0258 -0.2770
22129W        W40983   5.949  17.581  11.944 -0.1329  0.3547 -0.1486
22130W        W40984   7.204  10.795  11.536  0.0089  0.0501  0.1371
22131W        W40985   0.082   6.007   3.066 -0.0593  0.0931  0.1846
22132W        W40986   7.327  12.738  15.761  0.2367  0.3398  0.4003
22133W        W40987   6.168  15.918  11.447 -0.0874  0.1953 -0.2189
22134W        W40988   8.662  10.375   0.796 -0.0586  0.0535  0.1018
22135W        W40989  11.035   6.083   0.343 -0.2050 -0.0589 -0.1943
22136W        W40990   3.681  17.804   3.823 -0.0673  0.0009 -0.2320
22137W        W40991  10.748  16.408  13.764 -0.1252 -0.1862  0.2458
22138W        W40992  17.900   3.069  14.709 -0.2188 -0.0308  0.0337
22139W        W40993   7.893   6.083  13.084 -0.1270  0.3047  0.2565
22140W        W40994  14.404   7.447   1.496 -0.1137 -0.2252 -0.1404
22141W        W40995   9.125   1.462   0.428 -0.0008  0.0287  0.2980
22142W        W40996  11.215   1.633  14.242 -0.0018  0.2496 -0.1321
22143W        W40997  15.065  13.863  15.105  0.0338  0.0694  0.1229
22144W        W40998  14.282   4.320  14.450 -0.2618  0.1053  0.0547
22145W        W40999   7.727   0.941   1.308  0.0863  0.1489 -0.0432
22146W        W41000  15.124   9.421  11.681 -0.1052 -0.2850  0.1136
22147W        W41001   6.443  10.955   3.867  0.0358  0.0435  0.2413
22148W        W41002  16.363   5.300   3.048  0.2466 -0.0548  0.1490
22149W        W41003  14.668   9.342  15.295 -0.0153  0.1336  0.0495
22150W        W41004  16.922   3.852   1.252  0.0800  0.2350  0.1542
22151W        W41005   3.774   0.014  13.571  0.0890  0.1449 -0.1225
22152W        W41006   2.140  10.605   3.239 -0.1137  0.1055  0.1082
22153W        W41007   2.405  13.575   1.345  0.0384  0.3008  0.1768
22154W        W41008  12.479  17.266  11.500 -0.1572 -0.0205  0.0518
22155W        W41009   1.335   4.711   3.899  0.0591  0.3352  0.0108
22156W        W41010  14.943   2.095   4.974  0.1259 -0.0752 -0.1822
22157W        W41011   4.029   7.641   0.578 -0.1859  0.0927  0.0776
22158W        W41012   4.931   3.096   2.178  0.1019 -0.2679  0.4011
22159W        W41013   4.116  13.179   2.418 -0.4328  0.3205 -0.2382
22160W        W41014  16.650  13.951  12.218 -0.0566 -0.1581  0.1297
22161W        W41015  14.058   1.426  15.877  0.2359  0.0989  0.1224
22162W        W41016   0.869   2.721   1.642  0.0220 -0.0614  0.0102
22163W        W41017   6.406   9.863   4.649 -0.1183  0.0545  0.2522
22164W        W41018   9.097  11.219   0.679 -0.1331 -0.1593  0.3880
22165W        W41019   6.841  12.493  14.848 -0.0275 -0.4009 -0.0706
22166W        W41020  16.217  13.947   0.671 -0.2910 -0.0174  0.0072
22167W        W41021   8.846   5.993  13.729  0.0175 -0.1596 -0.2680
22168W        W41022   1.186  13.394  15.551  0.1117  0.1438  0.0119
22169W        W41023   1.223  10.106   2.502 -0.3100 -0.0089  0.4472
22170W        W41024  14.348   8.962   3.729  0.2975 -0.1805 -0.1601
22171W        W41025  15.835  13.841  14.072 -0.2247  0.2415  0.2265
22172W        W41026  11.387   9.575  11.729 -0.1156  0.0982  0.3014
22173W        W41027  13.054   8.013   0.633  0.2083  0.1420 -0.3337
22174W        W41028  15.062  12.015   2.354 -0.2367  0.2028 -0.0423
22175W        W41029   1.392  13.438  11.586  0.0873  0.1202 -0.2471
22176W        W41030   9.238   6.404   1.481  0.2163 -0.0367 -0.0685
22177W        W41031   0.049   9.248   2.785 -0.1685  0.1548  0.1562
22178W        W41032  13.058  12.666   4.866  0.1486  0.1912 -0.0202
22179W        W41033  11.408   1.228   2.717 -0.0278 -0.0402 -0.2621
22180W        W41034   9.934   1.746   1.711 -0.1176  0.2619  0.0024
22181W        W41035  11.507  10.186  14.203 -0.2040 -0.0350  0.1335
22182W        W41036  14.541  15.928  15.684  0.1946 -0.0071 -0.0163
22183W        W41037  14.430   1.269   2.080 -0.2071  0.3501  0.1848
22184W        W41038   0.630  12.183   3.986  0.0546  0.1482 -0.1058
22185W        W41039   3.476  12.297   2.973 -0.0712 -0.3500  0.0893
22186W        W41040   7.967   2.114   2.792  0.1012  0.2526 -0.0535
22187W        W41041  17.531  13.900  13.505 -0.1926 -0.0815 -0.2159
22188W        W41042   1.755   9.921   3.759 -0.0855  0.1237  0.0493
22189W        W41043   2.150  17.663  14.144  0.0401  0.0586  0.0223
22190W        W41044   1.349  12.995   2.120 -0.0964  0.0225 -0.2039
22191W        W41045   4.415   0.977   1.463  0.0624  0.0176 -0.2129
22192W        W41046  15.648   2.191  14.991  0.0227  0.0685 -0.3160
22193W        W41047   3.883   0.396   1.867 -0.4822  0.2084 -0.3054
22194W        W41048  15.884   8.713   2.561  0.0354  0.1411  0.0849
22195W        W41049   1.626   1.671   0.073 -0.1749  0.1367 -0.1621
22196W        W41050   2.292  17.749   1.341  0.1282  0.0855  0.2047
22197W        W41051  18.008  16.643  13.734  0.0131  0.0911  0.0254
22198W        W41052   6.569   4.466   1.254 -0.0755 -0.3111  0.1326
22199W        W41053   9.260   6.377  16.125  0.0685  0.0800  0.2634
22200W        W41054   1.738  17.941   3.050  0.1316  0.0167 -0.1064
22201W        W41055   5.093   8.919  12.286  0.2885  0.1701 -0.0507
22202W        W41056  12.820  17.582   3.513  0.0647 -0.0804 -0.2037
22203W        W41057   8.411   7.763  10.960  0.2455  0.1011  0.0855
22204W        W41058  14.438   0.542   2.158 -0.0472  0.1059 -0.0402
22205W        W41059   7.005  14.255  13.701 -0.1876 -0.0277 -0.2926
22206W        W41060   5.175  14.732   2.853  0.2277 -0.1613 -0.2181
22207W        W41061  13.104   8.335   3.563  0.1596 -0.1200  0.3197
22208W        W41062   0.669  16.614  12.462  0.2353  0.1979 -0.1460
22209W        W41063  10.985   1.450   0.305 -0.3907  0.0639 -0.0646
22210W        W41064  12.126  17.570  13.113  0.0750 -0.2753 -0.2239
22211W        W41065   3.332   2.963  12.406  0.0456 -0.1908  0.1646
22212W        W41066   2.237   3.685   1.842  0.0398  0.2442 -0.1812
22213W        W41067   2.333   1.101   4.275 -0.0650  0.2256 -0.4325
22214W        W41068   0.365   3.034  13.920  0.1559 -0.0484  0.0429
22215W        W41069   7.761   2.471  13.378 -0.1943 -0.2579 -0.0861
22216W        W41070  12.647  15.459  12.983  0.2598  0.0801 -0.1549
22217W        W41071   7.819   7.496  12.703 -0.0135  0.0134  0.0528
22218W        W41072  11.104   5.953   4.084 -0.1271 -0.2882 -0.0636
22219W        W41073  16.024   8.405  12.137  0.0596  0.2198  0.2409
22220W        W41074   8.402   6.227   0.470 -0.1799 -0.3296 -0.0352
22221W        W41075   2.711   9.741   4.659 -0.4531 -0.0697  0.0218
22222W        W41076   0.757   7.125   3.464 -0.0818  0.1535 -0.0956
22223W        W41077   2.424   7.962  13.620 -0.3368  0.1194  0.1867
22224W        W41078  17.995  17.530  11.756 -0.1427 -0.0776  0.0218
22225W        W41079   8.572   1.410  13.986 -0.0182 -0.2322  0.0568
22226W        W41080   9.503   4.375   2.276 -0.0636 -0.1510 -0.2331
22227W        W41081  16.905  12.756   2.798 -0.1385 -0.1880  0.0781
22228W        W41082  11.767  12.563   1.864 -0.2022  0.1726  0.0979
22229W        W41083  17.601  12.307   2.308 -0.0535 -0.0156  0.1092
22230W        W41084   6.645  12.959   1.222 -0.0487 -0.0868 -0.0127
22231W        W41085  15.168   0.926   3.506 -0.0190  0.0428 -0.1062
22232W        W41086  17.990   4.540  11.635  0.1226 -0.0454 -0.0396
22233W        W41087  16.034   7.249   4.672  0.0221  0.0031 -0.1391
22234W        W41088  11.861   5.319  15.306 -0.0528 -0.0667 -0.0439
22235W        W41089   4.088   8.839   4.288 -0.1288  0.1263 -0.1282
22236W        W41090  10.424   0.635  13.804  0.0974  0.0740 -0.1859
22237W        W41091  17.105  11.415  15.883  0.1614  0.1764  0.0294
22238W        W41092  16.647  12.769   0.917 -0.0918  0.1367  0.4028
22239W        W41093  17.162   5.340  13.068 -0.0605 -0.0700  0.0414
22240W        W41094   8.187  16.529   3.976  0.0907  0.2347 -0.0104
22241W        W41095  14.218   1.282   3.650  0.0778  0.3042  0.2077
22242W        W41096   6.762   9.165  13.762 -0.0297 -0.3132 -0.3131
22243W        W41097   6.246   4.564  10.826 -0.1840  0.0218 -0.1458
22244W        W41098  13.292   7.221   0.195  0.0723  0.0165 -0.2901
22245W        W41099   7.382   6.454  16.047 -0.1024  0.2120 -0.1241
22246W        W41100  10.652  11.282   0.816 -0.0106 -0.0923  0.1836
22247W        W41101   4.293  16.957   4.988  0.1921  0.1448  0.1292
22248W        W41102  17.171   5.700  15.137 -0.0238  0.2115  0.0869
22249W        W41103   1.191   6.628  12.877 -0.1317  0.3201 -0.1791
22250W        W41104   0.253   1.387   0.426  0.1683  0.1665 -0.0218
22251W        W41105  11.990   1.140  15.520 -0.2269  0.0006 -0.1602
22252W        W41106   2.048  13.930   0.532 -0.1363 -0.1051  0.1707
22253W        W41107  17.125   9.219  12.138 -0.0250  0.0145  0.1832
22254W        W41108   9.612   9.918   5.283 -0.1500  0.2522 -0.0280
22255W        W41109   7.965   7.432   1.144  0.0344  0.2288 -0.3032
22256W        W41110   2.527  16.242   1.308 -0.2154  0.1808  0.1586
22257W        W41111   6.321  10.420   2.547  0.2095  0.1132 -0.0753
22258W        W41112   5.185  10.910  12.220 -0.1219 -0.0433  0.1927
22259W        W41113   4.964   7.815   4.954 -0.0449  0.1021 -0.0645
22260W        W41114  13.336  13.038   0.605  0.0081 -0.2233 -0.0874
22261W        W41115  13.248   9.505   2.088  0.0184  0.1378  0.1332
22262W        W41116   8.969   3.084  14.554 -0.1570  0.1159 -0.0502
22263W        W41117   2.394   1.684  11.762  0.1361 -0.0720  0.2754
22264W        W41118   1.386   5.186  14.062  0.2785 -0.0338  0.2293
22265W        W41119   0.535  12.188   0.323  0.1439  0.1385  0.2376
22266W        W41120  10.294   4.654   4.528  0.0283 -0.0298 -0.4268
22267W        W41121   7.229  14.296   0.057  0.0148  0.0829  0.0247
22268W        W41122  15.415  17.438  14.196  0.0869  0.1576 -0.0836
22269W        W41123  11.499  13.323  14.913  0.2754 -0.2361 -0.0925
22270W        W41124   2.018  15.952   1.759 -0.3809  0.1267 -0.2191
22271W        W41125   3.867  16.465   4.287 -0.4940  0.1448 -0.0228
22272W        W41126   6.790   6.487   0.254  0.0578  0.0841  0.1552
22273W        W41127  11.973  17.234  12.152  0.1179 -0.1594  0.0703
22274W        W41128  17.362   7.096   2.363  0.1686  0.1751 -0.2237
22275W        W41129  10.470  15.733   0.846 -0.0918 -0.1255  0.1781
22276W        W41130   3.353  14.209  15.393 -0.1145 -0.1224 -0.2167
22277W        W41131   4.164   7.991  14.695  0.0194  0.2067 -0.0856
22278W        W41132   8.151  12.897   5.339  0.0969  0.1638 -0.1624
22279W        W41133   7.398  16.235  14.684  0.0254  0.0221 -0.1425
22280W        W41134   3.804   8.359   1.990 -0.2564  0.0733  0.1627
22281W        W41135  14.834   8.302  12.544 -0.1493 -0.0513 -0.1808
22282W        W41136   5.115   4.330  13.197  0.1367  0.0827  0.0344
22283W        W41137  14.740   9.377   3.491 -0.0166 -0.2853  0.0618
22284W        W41138   1.979  11.276   0.350 -0.1633  0.3093  0.2577
22285W        W41139   2.835   8.388   0.459  0.1508  0.2471 -0.1639
22286W        W41140   2.422   4.806   2.585 -0.2005 -0.1168  0.2515
22287W        W41141  12.391  14.015   2.034 -0.1865 -0.0347 -0.1395
22288W        W41142   3.164  17.447   3.376  0.0514 -0.1976  0.2721
22289W        W41143   3.298   2.063   2.171 -0.0296  0.0282  0.2642
22290W        W41144   5.784   0.205  13.303  0.2588 -0.0476  0.1611
22291W        W41145   8.085  10.250  12.844 -0.2052 -0.1597 -0.2744
22292W        W41146  17.186  16.133   3.189 -0.1716  0.0801 -0.0922
22293W        W41147  13.300   3.789   0.257  0.0719  0.0996  0.0779
22294W        W41148   0.419  17.953   2.655  0.1681 -0.3930  0.1360
22295W        W41149  15.070   8.284   2.373  0.0703  0.0337  0.1395
22296W        W41150  17.532  15.522  15.070 -0.3277 -0.1960 -0.1472
22297W        W41151   3.982   9.785  13.779 -0.2099  0.0431  0.0190
22298W        W41152  13.079  14.457  11.759  0.0113  0.0944 -0.1724
22299W        W41153   6.249   7.365   0.211 -0.3340  0.0800 -0.1724
22300W        W41154   4.777  14.151  14.236 -0.1478 -0.1187 -0.0082
22301W        W41155  11.493   8.189  12.082 -0.1414  0.0598  0.2367
22302W        W41156  13.533  11.091   1.147 -0.1305  0.0515  0.0262
22303W        W41157  10.548   7.846  13.971  0.1875  0.0624  0.2426
22304W        W41158   3.993  13.952   2.492 -0.0687  0.0283  0.0559
22305W        W41159  14.038   7.728   1.758 -0.1037 -0.0797 -0.4375
22306W        W41160   7.899   8.532  14.342 -0.0403  0.4043  0.1388
22307W        W41161   1.804   9.571  11.470 -0.0962  0.0206 -0.0050
22308W        W41162   5.740  11.046  12.997 -0.0546  0.2245 -0.1075
22309W        W41163  10.443  15.203   3.363  0.0884  0.2963 -0.2291
22310W        W41164   1.990  14.386  15.156  0.0420  0.2021  0.1248
22311W        W41165   5.261   5.087   0.829 -0.0701  0.1477 -0.1542
22312W        W41166  14.858   6.841   2.582  0.2630 -0.0455 -0.1636
22313W        W41167   7.905  11.911  13.526  0.3419 -0.1791  0.2995
22314W        W41168  15.684  14.300  13.865  0.0435 -0.2177  0.0368
22315W        W41169   3.178  13.330   1.484 -0.0258 -0.2152  0.3106
22316W        W41170  13.785  12.730   3.790 -0.2091 -0.0462 -0.1255
22317W        W41171  12.465  12.052   2.617  0.1247 -0.2127  0.0752
22318W        W41172   1.253   9.321  12.224 -0.1909  0.2527 -0.0602
22319W        W41173   7.506   9.384  12.581 -0.0852  0.1772  0.3046
22320W        W41174   2.326   4.464   0.545  0.0990  0.2331 -0.2343
22321W        W41175   1.226   8.955  13.631 -0.2524 -0.1302  0.0302
22322W        W41176   4.016  11.877   4.427  0.2813 -0.3125  0.2071
22323W        W41177   3.820  15.294  11.296 -0.1660  0.1196 -0.1264
22324W        W41178   3.478  13.899  12.911 -0.1922  0.2364  0.1384
22325W        W41179  16.591   6.201   2.988  0.0270 -0.0550  0.0554
22326W        W41180  10.122   1.508  14.858  0.1128 -0.1004  0.1623
22327W        W41181   9.250   8.361   2.106  0.2171  0.0528  0.5577
22328W        W41182   4.779  13.123  15.455 -0.2418  0.1299  0.0561
22329W        W41183   4.690   2.338   4.195  0.2173 -0.2191  0.0324
22330W        W41184  16.530   3.069  12.344 -0.0739  0.0089  0.1055
22331W        W41185  12.573   4.300   3.699 -0.4092  0.0390  0.0626
22332W        W41186   8.885  15.757   0.764 -0.0503  0.1353 -0.0474
22333W        W41187  16.565   1.023   4.053  0.1401  0.1847  0.0332
22334W        W41188  17.142   4.144  12.434 -0.0549  0.5707  0.0846
22335W        W41189   6.805  17.584   2.105  0.1345 -0.1399 -0.1235
22336W        W41190   0.456  15.416  14.913 -0.0367 -0.0832 -0.0208
22337W        W41191  14.601  13.287   2.615  0.4919 -0.2814  0.1437
22338W        W41192  15.177   0.057  13.557 -0.1183 -0.1074 -0.2478
22339W        W41193  17.729  17.052   2.157  0.1706  0.1553  0.1599
22340W        W41194   8.561  17.917   1.174  0.1147  0.0131 -0.0916
22341W        W41195   7.353  10.738   0.712  0.0483  0.0089  0.0545
22342W        W41196   3.504   9.720  14.968 -0.0611  0.1943 -0.3336
22343W        W41197  16.401  13.211   4.028 -0.1340  0.0917 -0.0519
22344W        W41198   5.952  17.180  14.410  0.3427 -0.1871 -0.0712
22345W        W41199   4.026   8.935  13.149 -0.1587 -0.0369 -0.2515
22346W        W41200   6.759  14.440  16.026  0.1820  0.4333  0.1431
22347W        W41201   0.975   5.349   4.409  0.2668 -0.3470  0.0219
22348W        W41202  16.177   5.832   1.419 -0.2235  0.0512  0.1971
22349W        W41203   3.077   3.700  11.879  0.0618  0.3742 -0.0358
22350W        W41204  15.520   9.203  11.912 -0.1464  0.0211  0.0345
22351W        W41205   9.981   5.003   3.044 -0.1000 -0.4761  0.0617
22352W        W41206   7.831   0.336  15.538 -0.0855 -0.1028  0.0338
22353W        W41207   7.341  16.356   4.850 -0.1496  0.0220 -0.1535
22354W        W41208   5.958   3.646  12.894  0.0322  0.0171 -0.4041
22355W        W41209  16.618  16.921  13.201  0.0066  0.2275 -0.1077
22356W        W41210   4.697   7.592  15.283 -0.0359  0.1348 -0.1535
22357W        W41211  14.939  12.940   4.562 -0.1854 -0.1470  0.1522
22358W        W41212  10.243  13.955  15.692 -0.1784  0.3156  0.3663
22359W        W41213   4.734  10.452   5.523 -0.3417 -0.0623 -0.0625
22360W        W41214   6.970  14.352   4.432 -0.0417 -0.1029  0.0058
22361W        W41215   9.516  15.140  12.503 -0.0826  0.0034  0.0414
22362W        W41216   1.110   6.353  12.004 -0.0528  0.0007  0.2719
22363W        W41217   4.431   6.678   2.555  0.2965 -0.1473  0.1310
22364W        W41218  12.751   4.841   1.976  0.2506  0.3258 -0.1334
22365W        W41219  16.017  15.613  12.301  0.0142  0.1663 -0.0626
22366W        W41220  17.140  15.294   4.673  0.2198  0.0810 -0.0348
22367W        W41221  14.238   2.741   0.618 -0.2073  0.0180  0.2825
22368W        W41222   9.716  16.932   0.774 -0.0955  0.2038  0.1667
22369W        W41223  11.418  16.499   3.467  0.0731  0.0518 -0.0904
22370W        W41224  12.814   2.551   0.540  0.0507 -0.2324  0.1308
22371W        W41225   4.085  11.460   3.011  0.3763  0.1819 -0.1495
22372W        W41226  16.021  17.122   1.357  0.2019 -0.0748  0.0236
22373W        W41227  16.929  10.318  13.175  0.1943  0.1732 -0.3462
22374W        W41228   9.257   0.402  11.948 -0.2609  0.0845 -0.0226
22375W        W41229  10.598   8.015   2.367  0.2744  0.0692 -0.1166
22376W        W41230   4.611  11.515   0.259  0.0348 -0.0327  0.0073
22377W        W41231   5.677   8.297   1.780 -0.2389 -0.2080  0.0047
22378W        W41232  16.219   4.637  12.338  0.1905 -0.2691 -0.2215
22379W        W41233  10.137   4.292  14.231  0.0219 -0.1079 -0.1153
22380W        W41234   8.212   9.796   2.008 -0.1567 -0.0199 -0.0864
22381W        W41235   3.156  10.088   2.491 -0.0297  0.3483 -0.1059
22382W        W41236   0.975   0.402  12.823 -0.0196 -0.0976 -0.2447
22383W        W41237   0.267  10.833  13.424  0.1032 -0.0447 -0.1284
22384W        W41238   5.639   0.963  14.430 -0.0948  0.0122  0.2575
22385W        W41239   2.618  12.467   3.220  0.1762 -0.0880 -0.0871
22386W        W41240   5.813   7.630  14.266 -0.0617  0.2758  0.0085
22387W        W41241  14.608  14.949  12.286  0.1548 -0.3901  0.0932
22388W        W41242  13.233  10.544   4.425  0.0610  0.1505 -0.2042
22389W        W41243  10.025  16.345  12.073 -0.0510 -0.1665  0.0244
22390W        W41244   8.136   2.925  13.561  0.1510 -0.0891 -0.1799
22391W        W41245   3.007   4.118  12.499  0.0691  0.4893  0.0027
22392W        W41246   2.313   2.432  12.724  0.2095  0.0424  0.0642
22393W        W41247  13.674   9.012  12.098 -0.0167 -0.4803 -0.1376
22394W        W41248   6.722   7.363  12.535 -0.1043  0.0077  0.2092
22395W        W41249   9.694  14.038  14.909 -0.1785 -0.0721  0.1117
22396W        W41250   5.576  15.947   3.702  0.1820 -0.0976  0.0924
22397W        W41251   5.983   9.703  11.700  0.0931  0.0056  0.2850
22398W        W41252   7.233   2.770  16.133 -0.1975 -0.0233 -0.2587
22399W        W41253  12.551   5.446   1.125  0.2372 -0.5094 -0.0019
22400W        W41254   7.100  11.155  15.117  0.3860 -0.1114  0.1196
22401W        W41255  10.813  13.466  12.375  0.3177  0.0640 -0.0192
22402W        W41256   1.153  12.232   0.298  0.3475 -0.2734 -0.0946
22403W        W41257   7.144   8.166   2.021 -0.1717  0.1319 -0.4238
22404W        W41258  10.574  12.216   0.071 -0.0061  0.1465  0.0088
22405W        W41259   0.355   2.802   1.425  0.1618  0.1147 -0.0491
22406W        W41260   1.150  11.195  14.663 -0.0641 -0.0569 -0.0473
22407W        W41261   2.102   9.710  15.395  0.1543  0.0757  0.1708
22408W        W41262  17.625  11.885   0.336 -0.0608  0.0333  0.0064
22409W        W41263  15.686   8.238  10.110  0.0706  0.1930  0.1524
22410W        W41264   5.802   2.706   4.389 -0.0351 -0.0471 -0.1849
22411W        W41265  10.126  14.309   0.847 -0.0774 -0.0523  0.1802
22412W        W41266   1.317   7.925  15.107 -0.0692  0.1256  0.0412
22413W        W41267  12.023  16.845   4.527 -0.0189 -0.0426  0.0823
22414W        W41268   2.613  12.433   0.580  0.2949  0.0401 -0.0693
22415W        W41269   8.100   6.155  11.347  0.0153  0.1790 -0.1100
22416W        W41270   9.965  17.963  13.229 -0.0974 -0.2381 -0.1502
22417W        W41271   0.853   8.662   1.251  0.2276 -0.0135  0.0416
22418W        W41272  13.871   8.785  13.390  0.2250  0.1734  0.0841
22419W        W41273   4.597  12.263  13.785  0.0816  0.3269 -0.0185
22420W        W41274   7.275   5.507   3.041  0.0089  0.2660  0.1432
22421W        W41275   9.993   0.166  12.014  0.0894  0.0481 -0.1703
22422W        W41276  15.852   7.826   2.088 -0.1023 -0.0957  0.0614
22423W        W41277   3.215   4.572  13.311  0.2443 -0.1255 -0.3085
22424W        W41278  17.268   9.633   0.224 -0.0975  0.1818  0.0270
22425W        W41279   6.351  17.012  12.585 -0.1958 -0.1466 -0.0392
22426W        W41280  14.661   7.877  15.703 -0.0779  0.0193  0.0588
22427W        W41281   7.277   1.455   4.717  0.1313  0.3377 -0.1003
22428W        W41282  17.134   9.719   2.450  0.0305  0.0923 -0.0591
22429W        W41283  11.520   6.519   3.248 -0.1163  0.0604 -0.1622
22430W        W41284   2.567   3.978  13.474  0.0276  0.1998  0.1513
22431W        W41285  13.174   9.233   3.568 -0.2297  0.2098  0.1943
22432W        W41286   6.409   3.234  12.034 -0.3361  0.1408 -0.1722
22433W        W41287  11.218   4.106   4.874  0.0104 -0.4085 -0.0731
22434W        W41288   8.181   0.123   3.072 -0.1028  0.0554 -0.1251
22435W        W41289   8.687   5.729  15.756  0.1316  0.0051 -0.1092
22436W        W41290   3.079   8.964   2.615  0.1465 -0.0172  0.0728
22437W        W41291   2.905   1.192   4.928 -0.0089 -0.2074 -0.0162
22438W        W41292  12.723   0.438  12.205  0.0059  0.0574  0.0455
22439W        W41293  14.101  10.634   0.758  0.1010  0.0851  0.0812
22440W        W41294  17.768  11.538   2.636  0.1066  0.1388 -0.0695
22441W        W41295   4.168  12.581   3.561 -0.1371  0.4168 -0.0523
22442W        W41296  16.889  16.678  13.634 -0.2229  0.1635  0.1520
22443W        W41297   9.570  16.931  14.586  0.1198 -0.0376 -0.2145
22444W        W41298   1.165   8.045  13.552 -0.3585  0.2039 -0.3753
22445W        W41299   8.504   5.013   1.663  0.1817  0.1963  0.0572
22446W        W41300   8.806   2.977   1.723 -0.2685  0.0197  0.1440
22447W        W41301  14.583  11.153   1.071 -0.1767  0.0783  0.3911
22448W        W41302   6.589  12.223  11.953 -0.3683 -0.2589  0.1118
22449W        W41303   7.773  16.145   3.017  0.1419  0.0380  0.2099
22450W        W41304  10.770   9.760   4.444  0.1356  0.1773 -0.2036
22451W        W41305   1.998   1.886  12.974  0.1729 -0.0108  0.1405
22452W        W41306   1.361  11.831  12.754  0.0432 -0.0479  0.0294
22453W        W41307  17.930   2.525   0.831  0.1409 -0.1064  0.0309
22454W        W41308   8.103  14.715   2.049  0.1194 -0.0250  0.0377
22455W        W41309   2.839  10.801   1.868  0.1232 -0.0262 -0.1099
22456W        W41310   7.750   4.589   4.989 -0.0855 -0.0826 -0.3452
22457W        W41311  16.048   8.524   4.804 -0.1830 -0.0950 -0.1864
22458W        W41312  16.083   3.171  13.053  0.2963  0.1749  0.0788
22459W        W41313   3.767   5.577   3.341  0.2561 -0.1599 -0.3273
22460W        W41314   0.222   1.800  14.232 -0.0451 -0.0978  0.2510
22461W        W41315   4.204   0.762  15.993  0.1368  0.0419 -0.0612
22462W        W41316   8.658  11.691   2.516 -0.3794  0.1099 -0.2204
22463W        W41317   9.990   4.542  12.321  0.1961 -0.0533  0.2224
22464W        W41318   4.892   1.699  15.927 -0.1012 -0.1683 -0.1809
22465W        W41319  11.315   2.444   0.193 -0.1638  0.0512  0.0847
22466W        W41320   0.636   4.157  14.252  0.0744  0.0272 -0.1053
22467W        W41321  16.668   5.545  13.859  0.0599 -0.0135  0.2315
22468W        W41322   4.391  17.780  14.989 -0.0398  0.1191 -0.1520
22469W        W41323   4.249   3.036   2.792 -0.2079  0.0738  0.0382
22470W        W41324   1.578  13.984  15.213  0.0781  0.2474  0.2058
22471W        W41325   6.334  13.790   3.249 -0.4099  0.1657  0.1231
22472W        W41326  12.179   0.595   4.450  0.0060 -0.0138  0.0145
22473W        W41327  13.854   0.274   3.698  0.2485 -0.2850  0.0560
22474W        W41328  16.611   0.308   2.804 -0.1177  0.1637  0.1453
22475W        W41329   5.967   5.163  15.784 -0.4589 -0.3981  0.0442
22476W        W41330   0.783   4.067  11.894 -0.0723 -0.2388 -0.0445
22477W        W41331  10.356  10.784   3.915 -0.0451  0.1754  0.1065
22478W        W41332  11.184  10.795  15.762  0.1344  0.2203 -0.0207
22479W        W41333   5.373  13.841   1.929  0.1649  0.2929  0.0285
22480W        W41334  14.208   5.940   5.751  0.0485  0.2086 -0.2041
22481W        W41335  12.674   7.230   4.761  0.1035 -0.0695  0.1014
22482W        W41336   5.521   1.270   3.634 -0.3618 -0.0694 -0.0025
22483W        W41337   6.201  11.888  12.563 -0.2750 -0.0290 -0.2669
22484W        W41338   9.712  15.280   2.328  0.2402 -0.0606  0.0094
22485W        W41339   4.809  11.470  14.685  0.2626  0.1078  0.0887
22486W        W41340   0.965   6.208  11.301  0.0190 -0.0426  0.3307
22487W        W41341  14.868   3.703  11.168  0.0300 -0.0335  0.3827
22488W        W41342   4.025   8.849   0.546  0.0471 -0.0941  0.3130
22489W        W41343  17.943  17.642  15.982 -0.0614 -0.2356  0.0732
22490W        W41344   8.419   2.910   3.558  0.0811  0.0667  0.1303
22491W        W41345  10.682   5.435  13.261 -0.0324 -0.0902  0.1099
22492W        W41346   2.997  16.235  11.402 -0.0294  0.3252  0.0111
22493W        W41347  15.896   8.944  15.395  0.4629  0.0217 -0.2441
22494W        W41348  15.786   1.447  13.765 -0.1032  0.0269  0.0344
22495W        W41349   3.301  13.963   4.123 -0.1657  0.0774  0.0094
22496W        W41350  12.491   9.949   2.730 -0.1102 -0.0607  0.3058
22497W        W41351  13.810  13.087   4.587 -0.0108 -0.1706 -0.3029
22498W        W41352  10.815   9.012   1.352 -0.0494 -0.0779  0.3095
22499W        W41353   7.712  11.788  12.049  0.3050  0.0071  0.0250
22500W        W41354  17.344   3.289  15.602  0.2467  0.1100  0.3229
22501W        W41355  16.600  11.595   4.194 -0.2272 -0.0680  0.0193
22502W        W41356   7.275  15.672   0.055  0.3151 -0.0891 -0.2827
22503W        W41357   4.386  10.077  13.575 -0.0464  0.2203 -0.0359
22504W        W41358   9.327   1.812  14.288 -0.0383 -0.3898  0.2266
22505W        W41359   9.295  10.216   3.359  0.0533 -0.0125  0.2173
22506W        W41360  11.049  16.275  16.189  0.1451 -0.0655 -0.0343
22507W        W41361  14.104  11.320   3.556  0.1332  0.1470 -0.0471
22508W        W41362   4.529   7.588   3.736  0.1900  0.0752  0.0272
22509W        W41363  14.685   2.813  13.673 -0.3558 -0.1518 -0.0190
22510W        W41364  11.366   2.478  13.244  0.2058  0.0321  0.0697
22511W        W41365  11.971  12.543  11.611  0.3596 -0.0516 -0.0162
22512W        W41366   8.145   6.763  14.972  0.2468  0.1382 -0.1112
22513W        W41367  12.100   6.457  10.919  0.0104 -0.0447  0.0966
22514W        W41368   3.329   8.546  12.422  0.2496  0.0334  0.2354
22515W        W41369   7.496   0.747   0.900  0.1718 -0.0842 -0.0938
22516W        W41370   4.017   7.580  14.504  0.0610  0.3224  0.0775
22517W        W41371  15.875   8.312  11.522 -0.0144  0.1712 -0.0324
22518W        W41372   1.387  17.068  14.077 -0.0962  0.3646  0.4179
22519W        W41373   0.898  11.678  15.414  0.0728 -0.0839 -0.1052
22520W        W41374  16.703  12.867  15.001 -0.1783  0.2044 -0.0300
22521W        W41375   1.704   1.560  15.757 -0.0301  0.2628 -0.3381
22522W        W41376   3.483   1.291   3.544 -0.1925  0.0685  0.0165
22523W        W41377   1.614   3.519  13.715  0.2070  0.2668 -0.0232
22524W        W41378  12.129   0.144  13.237  0.1614  0.1590  0.1721
22525W        W41379   6.227   3.769  15.735 -0.0422  0.0497  0.1674
22526W        W41380   4.628  17.332   4.915  0.0824 -0.2860  0.2560
22527W        W41381  13.288  10.639  15.253  0.0502  0.0918  0.1366
22528W        W41382   3.060   4.565   3.974  0.1013  0.1347  0.1507
22529W        W41383  13.451   6.801   0.416 -0.1526 -0.0318  0.0802
22530W        W41384   5.182   5.696   4.074  0.0268 -0.0129 -0.2158
22531W        W41385  10.831   1.159  16.153  0.1498  0.0215 -0.2033
22532W        W41386  15.879  13.496  12.115  0.1775  0.0253  0.1790
22533W        W41387   1.470  15.401   2.055  0.0641  0.0548  0.4840
22534W        W41388  14.470  16.277  13.186 -0.0850 -0.1107  0.1413
22535W        W41389  13.684   7.399   1.028  0.0848 -0.1618  0.1057
22536W        W41390  10.464  12.062  12.584  0.2988 -0.0671  0.0474
22537W        W41391   8.755  14.350  13.723  0.0163 -0.1764  0.0663
22538W        W41392  11.465  13.173  13.258  0.0432  0.1050 -0.0425
22539W        W41393   5.387  10.610  11.829 -0.2280  0.1072  0.0475
22540W        W41394   6.801  13.973  14.151  0.0162 -0.1067 -0.0657
22541W        W41395   1.604  11.159   2.634  0.3486  0.2036 -0.0948
22542W        W41396   1.341   0.870   1.374 -0.0002  0.0112 -0.0433
22543W        W41397  10.779   8.445  13.468  0.0613  0.0339 -0.0680
22544W        W41398   1.809   0.452   0.436 -0.0562  0.1004 -0.0029
22545W        W41399   8.311  12.371   3.649  0.2731 -0.0996 -0.0673
22546W        W41400   1.567  11.354  15.345  0.2571 -0.0380  0.0512
22547W        W41401   2.886  14.422   2.458 -0.0420  0.2779 -0.0872
22548W        W41402  14.042  11.454   0.463 -0.2117 -0.2090 -0.1754
22549W        W41403  17.325  12.472  16.014 -0.1648 -0.3121 -0.2076
22550W        W41404  14.297   8.580  14.595 -0.2353  0.0321 -0.1088
22551W        W41405   0.568  13.449   0.542 -0.2674 -0.1067 -0.1128
22552W        W41406  12.497   4.325  15.990 -0.1369  0.1127 -0.1281
22553W        W41407  12.067   4.522  14.306  0.0317  0.1457 -0.2064
22554W        W41408   1.271  17.793   1.448 -0.1692  0.0360  0.1800
22555W        W41409  14.636  14.636   0.114  0.0279  0.0486 -0.0935
22556W        W41410  14.760   8.814  13.297  0.0613  0.2042 -0.0311
22557W        W41411  17.388   0.337   0.518 -0.0193 -0.0966  0.3233
22558W        W41412  14.429  13.270   1.764  0.2453 -0.3267 -0.0587
22559W        W41413  17.878   8.620  12.200 -0.2080  0.1773  0.1038
22560W        W41414  14.962   6.543  11.766 -0.1330 -0.2296  0.1114
22561W        W41415  13.641  11.870   3.777  0.0559 -0.3986 -0.1011
22562W        W41416  15.684  17.650  15.236 -0.0127  0.2481 -0.2515
22563W        W41417  16.898  13.672   2.691  0.0277  0.0007 -0.0217
22564W        W41418   8.582   0.759   3.690 -0.0741 -0.1587 -0.0661
22565W        W41419   7.145   6.503   0.821 -0.1353  0.4680 -0.0285
22566W        W41420   2.248   6.979  14.860 -0.1632  0.0759 -0.0815
22567W        W41421   6.395   9.074   1.562 -0.0269 -0.0185 -0.1004
22568W        W41422   4.429  13.111  11.380 -0.0124  0.0725  0.1931
22569W        W41423   1.942   7.981   1.661  0.1269 -0.0927  0.3104
22570W        W41424   8.894   8.582   1.626  0.0870 -0.1472  0.0499
22571W        W41425   8.865   5.070   1.242  0.1312 -0.0232 -0.1346
22572W        W41426  15.142   1.049  12.004 -0.0341 -0.3509  0.0633
22573W        W41427  14.430   8.013   4.630 -0.3384 -0.2762  0.1540
22574W        W41428  10.420  15.422  12.262  0.0520  0.1093  0.0450
22575W        W41429   9.263   6.267  11.011 -0.0105  0.2502 -0.1892
22576W        W41430   4.691   2.792  15.302  0.2129 -0.2827  0.0601
22577W        W41431   4.446   1.646  13.513  0.0635  0.0864  0.0298
22578W        W41432  15.952   9.405  15.067  0.1327 -0.0271 -0.0488
22579W        W41433  10.917   6.260   1.571 -0.1065  0.0730  0.1473
22580W        W41434   2.360  13.603   0.409  0.3450  0.1084 -0.4696
22581W        W41435  16.176   0.064   2.287  0.1260 -0.2478 -0.0368
22582W        W41436   7.548   0.240   2.818  0.1071  0.3185  0.1551
22583W        W41437  15.936  13.956  11.813  0.0402  0.0777 -0.1228
22584W        W41438   1.696  10.688   1.743  0.1299  0.3422 -0.0970
22585W        W41439  14.071   6.873  12.932  0.4537 -0.0857  0.2119
22586W        W41440   1.257  10.349  13.859  0.0479 -0.1503  0.2446
22587W        W41441  10.811   6.354   2.360 -0.2280  0.1929 -0.2747
22588W        W41442  17.038  15.293   5.905  0.0796 -0.0868  0.0537
22589W        W41443   8.293   2.962  12.730  0.0919  0.0104  0.2174
22590W        W41444   3.225   0.869   3.562 -0.2061 -0.1255 -0.0787
22591W        W41445   9.774  15.007  14.555  0.0543 -0.1225  0.1411
22592W        W41446   1.472   3.636   1.142  0.0358 -0.2238 -0.1312
22593W        W41447   5.983   3.138  12.906 -0.0425 -0.1503 -0.1300
22594W        W41448   5.865   5.662   3.433  0.1650 -0.0493  0.0211
22595W        W41449  10.636   1.558  12.245 -0.0922  0.1672 -0.0484
22596W        W41450   2.436   6.002   3.497  0.0845 -0.2312 -0.1400
22597W        W41451  10.129  13.896   0.579 -0.0882  0.2208 -0.0047
22598W        W41452  14.046   3.941   4.573 -0.1869  0.1187  0.1405
22599W        W41453   2.563  10.288   3.293 -0.0113 -0.2148  0.1184
22600W        W41454   6.965   3.586   2.660  0.0837  0.2104  0.3162
22601W        W41455  12.724  11.862   3.916  0.0400  0.1962 -0.1535
22602W        W41456  15.672   2.851  15.990  0.3430  0.1674 -0.1267
22603W        W41457  14.865   7.918  11.585  0.2954 -0.1816  0.1741
22604W        W41458  17.338  14.738  15.232 -0.2668  0.0336 -0.0811
22605W        W41459   8.815  10.585   4.031 -0.0264  0.0304 -0.0068
22606W        W41460  15.611   8.522  15.837 -0.2081  0.0814 -0.1548
22607W        W41461  16.692  12.605  13.671 -0.0675 -0.0695  0.1725
22608W        W41462  17.944   9.553   4.341 -0.0901  0.1636 -0.0073
22609W        W41463  16.757  14.889   1.835  0.0053 -0.3278  0.2609
22610W        W41464   7.766   5.798  11.294 -0.1472  0.1708  0.0067
22611W        W41465   8.349   0.279   1.782  0.0830  0.0028  0.0433
22612W        W41466   9.512   1.524   0.006 -0.0727  0.0878 -0.0736
22613W        W41467   1.911   1.702   2.772  0.2358 -0.1867 -0.0017
22614W        W41468   7.843   6.925  12.904  0.0401 -0.0920  0.3020
22615W        W41469   5.062   2.568  12.480 -0.0914 -0.1076  0.1838
22616W        W41470  14.027  17.744   3.851  0.0212 -0.2448  0.3875
22617W        W41471  15.644   8.250  12.421 -0.1234  0.1175  0.2037
22618W        W41472  10.573  14.905   1.846  0.1087 -0.0253  0.1244
22619W        W41473  15.987   9.910  13.120  0.1086 -0.1064 -0.0591
22620W        W41474   1.511  16.451  13.494  0.1327 -0.0514 -0.3923
22621W        W41475  12.460  11.675   4.432 -0.0438  0.2334 -0.0953
22622W        W41476  17.261   6.470  11.929  0.1061 -0.2607  0.1386
22623W        W41477  13.335   7.540   1.635  0.1568 -0.3189 -0.1422
22624W        W41478   5.302   6.390   0.426  0.3055 -0.0380 -0.1850
22625W        W41479  13.813  17.563   0.234 -0.0845 -0.2437  0.1680
22626W        W41480  10.660   1.893   2.489 -0.1332 -0.0358  0.0424
22627W        W41481   2.462   7.379  11.894  0.2395  0.1544 -0.1136
22628W        W41482  15.978  14.528  14.902 -0.1044  0.1333 -0.0097
22629W        W41483   0.525   1.423   3.956  0.0997  0.1786 -0.0145
22630W        W41484  12.953  15.172   0.084 -0.0664  0.2817 -0.1475
22631W        W41485  10.311  13.290   4.641 -0.0117 -0.0478 -0.1080
22632W        W41486  17.759   8.019  14.659 -0.2018 -0.0281 -0.1302
22633W        W41487   1.334   3.025   3.457 -0.0841  0.0725  0.1395
22634W        W41488  12.368   1.502  12.974 -0.0990  0.2754 -0.1533
22635W        W41489   1.713   8.821   2.929  0.2271  0.0715 -0.0433
22636W        W41490  15.095   0.025  14.978 -0.3796 -0.2207  0.0013
22637W        W41491   5.034   7.582  11.007 -0.0211 -0.1596  0.0458
22638W        W41492  10.437   3.262  15.397 -0.0322  0.0787  0.0717
22639W        W41493  17.693  12.010  14.425 -0.1504  0.1071  0.2069
22640W        W41494   2.727   9.212   3.822  0.3944  0.2442 -0.0627
22641W        W41495  17.970  14.995  13.708 -0.0690  0.0526  0.0525
22642W        W41496   8.487  15.092   1.551 -0.2349  0.1207  0.0315
22643W        W41497  12.483   2.471  12.257 -0.2403 -0.1321  0.0660
22644W        W41498   0.973   8.161   1.313  0.1864  0.0035 -0.2278
22645W        W41499  10.290  14.183   1.250 -0.2086 -0.2810 -0.0107
22646W        W41500  17.285  11.782   1.644 -0.1396 -0.2603  0.2027
22647W        W41501   2.384   0.688   3.875 -0.0023  0.1789  0.0484
22648W        W41502   9.258  12.201   0.053 -0.0523  0.1752 -0.3025
22649W        W41503   9.431   1.760  13.638 -0.3728 -0.0500 -0.1415
22650W        W41504   9.082  16.579  13.163  0.0242 -0.1877 -0.0533
22651W        W41505  16.716   0.086   0.059 -0.0352  0.0802  0.4071
22652W        W41506   2.651   4.207   3.194  0.1112  0.1116  0.1137
22653W        W41507   3.960   1.349  15.198 -0.3662  0.0615  0.3045
22654W        W41508   1.795  13.747   2.493  0.0537 -0.0986  0.0047
22655W        W41509  13.307  13.052  11.610  0.1028 -0.0136  0.1072
22656W        W41510   5.015   5.847   3.208 -0.0339  0.1024 -0.1676
22657W        W41511  12.805  15.524  15.960  0.3955 -0.1010 -0.0183
22658W        W41512  17.369  15.609  12.332  0.0597  0.2201 -0.0986
22659W        W41513   4.090   1.004   5.260  0.4739  0.2158  0.1630
22660W        W41514   1.872  17.787   3.880 -0.3665 -0.3616 -0.0445
22661W        W41515  16.188  13.313  12.876  0.0371 -0.0846  0.2049
22662W        W41516   8.377   9.354  15.379 -0.0789 -0.1487  0.0735
22663W        W41517   8.602   5.385   3.799 -0.0414 -0.2249 -0.0704
22664W        W41518  11.390   5.096  10.577  0.1572  0.2338  0.0512
22665W        W41519   7.557  11.223  13.810  0.2569 -0.0303 -0.3790
22666W        W41520   3.454  10.667   3.656  0.1532 -0.1384 -0.1456
22667W        W41521   6.952  12.176  15.293 -0.0541  0.1922  0.0398
22668W        W41522  10.222  17.496   0.402  0.1582  0.0483 -0.1539
22669W        W41523   9.684  11.902   0.114 -0.2163  0.0567  0.1860
22670W        W41524  11.286  13.131   3.282 -0.1830 -0.0234 -0.2815
22671W        W41525   2.581  15.704  13.141  0.3385  0.1003  0.0114
22672W        W41526   0.345  16.493  13.421  0.2671 -0.0787 -0.2359
22673W        W41527  11.466   7.959   1.754 -0.0513 -0.0512  0.0590
22674W        W41528   9.720   9.395   5.307 -0.1880 -0.4438  0.2029
22675W        W41529   8.106   3.884   0.249  0.0792  0.3122 -0.1559
22676W        W41530   3.271   9.155  13.889 -0.0150  0.0433 -0.0981
22677W        W41531  11.787   3.196  13.176 -0.1066  0.0211  0.2300
22678W        W41532  15.909   3.525  11.992  0.0253 -0.1361  0.2528
22679W        W41533   6.035   9.515   2.280 -0.1818  0.2358  0.0003
22680W        W41534   6.826   9.538  15.963  0.0641  0.0387 -0.0196
22681W        W41535  15.752  14.957   3.730  0.2039 -0.1891 -0.1829
22682W        W41536   2.017   8.525  13.379 -0.0689  0.0037 -0.1278
22683W        W41537  17.313  12.792   5.822 -0.2901 -0.0626 -0.0294
22684W        W41538   4.657   3.524   2.237  0.0753  0.1324 -0.2306
22685W        W41539  11.961   5.775   1.711  0.3373 -0.4825 -0.0514
22686W        W41540   6.804  11.280  12.382  0.2659  0.0656  0.0822
22687W        W41541  14.018   7.664  13.485  0.0245 -0.0516  0.2776
22688W        W41542  14.105   2.813  13.617  0.0904 -0.3172  0.2794
22689W        W41543   6.097  16.189  13.914 -0.0534 -0.0993  0.1231
22690W        W41544   1.395  11.659   4.320 -0.0825  0.0561 -0.1174
22691W        W41545  15.554  11.559  11.622 -0.0792 -0.1796 -0.0229
22692W        W41546   3.924   3.885   3.910 -0.0006  0.0276 -0.1383
22693W        W41547   7.746   0.511  12.898  0.1136  0.2647 -0.3204
22694W        W41548   7.035  10.250  13.628  0.0268 -0.0309 -0.0299
22695W        W41549   0.373  14.180  12.571  0.0091 -0.0300  0.1058
22696W        W41550   6.590   2.550   1.752 -0.1332 -0.0802  0.0954
22697W        W41551   3.440  17.022   0.705  0.1846 -0.0882  0.1464
22698W        W41552  13.353   7.165   0.767 -0.0002  0.0047  0.0460
22699W        W41553   6.035   8.621   1.199 -0.2969 -0.0324  0.1290
22700W        W41554  17.196  10.259   4.451 -0.1228  0.1634 -0.0809
22701W        W41555  10.205  10.888  14.432 -0.1460  0.3150  0.3431
22702W        W41556  16.983  13.920   1.160 -0.1269  0.0028 -0.0572
22703W        W41557   0.530  10.307  11.759 -0.1114 -0.0158  0.0760
22704W        W41558   7.091   3.444   3.872  0.1904  0.1541 -0.0295
22705W        W41559  12.764   0.851  15.366  0.4851  0.0184  0.0972
22706W        W41560   5.673   0.498   1.869 -0.1261  0.0181  0.2539
22707W        W41561  14.140  15.496  15.869  0.0473  0.2416 -0.1311
22708W        W41562  12.156   0.312   3.027 -0.3705  0.0732  0.0301
22709W        W41563  10.210   3.336   1.508  0.0348 -0.2579 -0.3451
22710W        W41564   7.779  16.973  15.644  0.0250  0.1896 -0.1472
22711W        W41565   2.125  14.237   3.318 -0.1413 -0.0039  0.0124
22712W        W41566  12.622   9.638   4.002  0.2473  0.0866 -0.1568
22713W        W41567  15.961   6.470   4.001  0.0159 -0.1432 -0.2467
22714W        W41568   3.853   0.738   0.344 -0.0931 -0.0754 -0.2427
22715W        W41569  13.065  14.399  12.753  0.0727  0.0330  0.1263
22716W        W41570  17.196  18.012   4.857 -0.3314 -0.1218 -0.0122
22717W        W41571  11.862   6.150   4.574  0.2086  0.1807 -0.0820
22718W        W41572   5.152   4.897   5.557 -0.0610  0.2889  0.1514
22719W        W41573   7.133  17.953   2.173  0.0353  0.2550 -0.0528
22720W        W41574  16.747   1.251  12.633  0.0023 -0.0134  0.1033
22721W        W41575  10.244   2.075  12.498  0.1109 -0.1048 -0.2215
22722W        W41576   6.160   0.303   1.939 -0.0156 -0.0799  0.3044
22723W        W41577  14.411  15.786  13.771  0.0163 -0.2601  0.0937
22724W        W41578  16.253  17.604   4.692  0.0773  0.2182 -0.2122
22725W        W41579   3.360   6.556  15.203  0.0132  0.2729  0.1064
22726W        W41580   3.594  13.338   0.670  0.2580  0.1361  0.1521
22727W        W41581  10.479   9.745   1.465 -0.0997 -0.2107  0.3105
22728W        W41582   9.531  16.591  12.275  0.1084 -0.5048 -0.1588
22729W        W41583  11.460   6.946  13.370  0.0257  0.1154 -0.0487
22730W        W41584   1.941  16.922  16.013  0.1310 -0.2091  0.1002
22731W        W41585  13.920   6.250  11.010  0.1832  0.1814 -0.0337
22732W        W41586   9.950   2.187  12.042  0.2083  0.0963  0.0077
22733W        W41587   1.292  17.168  12.573 -0.3814  0.2633  0.0376
22734W        W41588  14.661  13.690   2.900  0.0783  0.2984 -0.0151
22735W        W41589   8.480  15.716   4.914  0.0187  0.3861 -0.4288
22736W        W41590  17.019  12.147  12.357 -0.0031  0.0345 -0.1462
22737W        W41591  17.478   7.616  11.384  0.1274  0.0464 -0.0508
22738W        W41592   8.862   3.996  15.449 -0.4462  0.2395 -0.1692
22739W        W41593  14.837   7.560  12.168 -0.1128 -0.1354  0.1403
22740W        W41594   6.899  16.470   3.995 -0.1900  0.0631 -0.2499
22741W        W41595  14.113   6.303   1.041  0.1332 -0.0384 -0.1176
22742W        W41596  13.033   9.314   2.513 -0.3466 -0.0265 -0.0815
22743W        W41597  14.236  16.621  13.828 -0.1033  0.0042  0.0074
22744W        W41598   2.321   5.416   4.524 -0.0642  0.0308 -0.2569
22745W        W41599  14.828   9.727  14.187 -0.0197  0.0234 -0.0660
22746W        W41600   2.090   7.173   2.852  0.1388  0.2149 -0.0819
22747W        W41601  17.693  17.070  14.974 -0.1036  0.0174  0.0623
22748W        W41602  12.719  16.395   1.527 -0.0986  0.1497  0.0145
22749W        W41603  16.734   0.878  11.749  0.2920  0.2112  0.1425
22750W        W41604  11.248  16.013  12.235 -0.1993 -0.1146 -0.0660
22751W        W41605   6.274   0.559   4.570  0.2482 -0.0926 -0.3167
22752W        W41606   6.709   0.565   4.828 -0.1243 -0.2827 -0.1017
22753W        W41607   3.913   8.702   3.758  0.0148 -0.0122 -0.0425
22754W        W41608   0.518  15.988   4.606 -0.0814  0.0284 -0.0508
22755W        W41609  16.999   1.954  13.523  0.0953 -0.1649 -0.2244
22756W        W41610  17.822   1.248  15.874 -0.2152  0.2813 -0.0663
22757W        W41611   2.321   8.169   5.107 -0.2750  0.0979  0.2203
22758W        W41612   8.605   4.150   0.057 -0.0735  0.1188 -0.0714
22759W        W41613  15.462  11.673   4.228 -0.1690  0.3843 -0.0339
22760W        W41614   4.675   7.080   0.847 -0.0515 -0.5096 -0.2501
22761W        W41615  15.803  13.581   4.734 -0.2222 -0.1544  0.0307
22762W        W41616   0.693   9.835  11.633  0.1574  0.1171  0.0079
22763W        W41617  13.115   3.265  13.495 -0.2551  0.1480 -0.1638
22764W        W41618   1.986   7.608  13.160 -0.2212 -0.2305  0.0434
22765W        W41619  13.875  14.920  12.856 -0.1157 -0.0299  0.1302
22766W        W41620  11.851  15.023   3.708 -0.1911 -0.3582 -0.0439
22767W        W41621  10.993  11.955   3.934 -0.0567 -0.0108 -0.3757
22768W        W41622   3.705  11.451  12.123 -0.1410  0.0991 -0.0058
22769W        W41623   8.696   7.861  15.690  0.1512 -0.5122  0.1417
22770W        W41624   0.782   9.827   2.343  0.0861  0.1695  0.0836
22771W        W41625  16.633  12.705   0.377  0.0426  0.0524  0.0195
22772W        W41626   6.816   7.402   1.568 -0.0240 -0.0592  0.5145
22773W        W41627   0.801  11.649  15.934 -0.2737 -0.0335 -0.1462
22774W        W41628   5.946   7.300  13.375 -0.2436  0.1484 -0.0582
22775W        W41629   8.264   2.285  11.631  0.1074  0.0763 -0.2796
22776W        W41630   2.823   7.960   2.146  0.2273 -0.2309 -0.0675
22777W        W41631   8.538  11.239   1.461 -0.1896  0.1808 -0.0266
22778W        W41632  15.867   2.894  11.662 -0.0345 -0.1116  0.0323
22779W        W41633   4.342  13.225  15.938  0.0804 -0.1726  0.1207
22780W        W41634   3.608   2.226   4.968  0.1064  0.1611  0.2850
22781W        W41635   0.680  10.482  15.254  0.1407  0.2883  0.0558
22782W        W41636   9.224   1.980   1.030 -0.0094 -0.1251  0.0440
22783W        W41637  12.401   6.197   0.140 -0.1244  0.0461 -0.0826
22784W        W41638   9.566   0.076   4.799  0.2184 -0.1799 -0.0470
22785W        W41639  16.278   5.289   0.510  0.1307 -0.1007 -0.0216
22786W        W41640  11.947  14.531   1.233 -0.0267  0.1222  0.0849
22787W        W41641   9.081   6.071   1.853  0.2200 -0.1538 -0.1689
22788W        W41642  17.041   0.461   4.543  0.0767 -0.6926  0.0336
22789W        W41643  12.451   6.775   0.007 -0.1608 -0.3197 -0.0038
22790W        W41644   1.638  13.865   5.018  0.0439 -0.1666 -0.1953
22791W        W41645   2.396   7.445   3.894 -0.0618  0.3445 -0.1803
22792W        W41646  14.341   0.378  13.693 -0.0515 -0.0327 -0.0895
22793W        W41647   6.302   7.340  14.350  0.1705 -0.0835 -0.1174
22794W        W41648   5.393  15.632  12.566  0.0012  0.1449 -0.0090
22795W        W41649   3.294  12.272  11.022  0.2189  0.2063  0.0043
22796W        W41650  10.235  17.668  12.842 -0.0170  0.1326  0.2402
22797W        W41651   5.501   9.491  13.043  0.0340 -0.1796  0.0482
22798W        W41652  15.714   5.511  14.181  0.0747  0.3453  0.1921
22799W        W41653   6.166   7.208  15.199 -0.1802  0.0799  0.0910
22800W        W41654   3.485  12.238  10.505  0.0305  0.0325 -0.0272
22801W        W41655  10.352   0.171  13.511  0.4903 -0.1177 -0.2924
22802W        W41656  10.640  11.094   0.069  0.0580 -0.2742  0.0288
22803W        W41657   2.743   1.607  15.635  0.3069  0.0603  0.2106
22804W        W41658   8.704   6.511   0.757 -0.1205  0.1957 -0.0711
22805W        W41659  16.390   1.523   3.358 -0.1172 -0.1826 -0.1399
22806W        W41660  15.997   7.908  15.562  0.3072  0.0552 -0.0279
22807W        W41661   5.870   5.985  10.823 -0.2605  0.0060 -0.2671
22808W        W41662   0.882  11.355   3.708 -0.1187  0.1699  0.1557
22809W        W41663   6.690   9.126   3.156 -0.1218  0.2101 -0.1710
22810W        W41664  15.912   7.388   0.571  0.0501 -0.1382  0.2285
22811W        W41665   2.212  14.966   1.636 -0.0428 -0.2059  0.0252
22812W        W41666  17.151  12.796   1.597 -0.0454  0.0968 -0.0494
22813W        W41667   5.598   2.994   5.152  0.1507  0.2062 -0.0891
22814W        W41668   6.732   2.624   5.150 -0.3195  0.1364 -0.3010
22815W        W41669   8.549   3.423   1.661 -0.1307 -0.3540 -0.0116
22816W        W41670  14.368   0.726   3.148  0.0154 -0.0901  0.2482
22817W        W41671   4.763   9.041   2.881  0.3231 -0.0307  0.1828
22818W        W41672   2.868   7.984  16.024 -0.1801  0.1255 -0.0744
22819W        W41673   5.959  11.952  14.145  0.0191  0.1603  0.2509
22820W        W41674   9.299   5.004  14.998 -0.2772  0.2690 -0.0725
22821W        W41675  12.968  16.259  11.420 -0.2887 -0.0163  0.1673
22822W        W41676   3.507   9.822  14.014 -0.1297 -0.0682 -0.1572
22823W        W41677   3.533   1.171   4.387 -0.1949  0.1335  0.0739
22824W        W41678   6.122  15.166   3.409 -0.1436 -0.0321  0.0984
22825W        W41679   8.332   4.995   0.747  0.1688  0.0977 -0.2367
22826W        W41680   7.149   9.878   3.334 -0.0251 -0.2759  0.0547
22827W        W41681   6.822  13.014   0.315 -0.1955 -0.0596 -0.0159
22828W        W41682   3.616  17.649   5.308 -0.1571  0.2142  0.2164
22829W        W41683  14.925  17.688   2.110 -0.0202 -0.1259 -0.2214
22830W        W41684   9.476   6.150  14.967 -0.0228 -0.0407 -0.1189
22831W        W41685   4.190   1.047   0.979  0.3218 -0.0317 -0.1626
22832W        W41686  13.451   3.759   5.330 -0.1238 -0.1369  0.2572
22833W        W41687   4.386   3.268   4.432 -0.0731  0.2000 -0.2200
22834W        W41688   0.053  10.230  12.670 -0.2445  0.3877 -0.2273
22835W        W41689   3.612   2.501  14.014  0.1233 -0.0359 -0.1410
22836W        W41690   1.771   0.533   4.798  0.3082  0.0371  0.2974
22837W        W41691   1.060  14.056   0.486  0.2369  0.1110 -0.0429
22838W        W41692  10.116   6.211   0.967 -0.1449 -0.0463 -0.2586
22839W        W41693   6.053   0.311   0.208  0.2596 -0.1750 -0.0533
22840W        W41694  15.179   9.967  13.894 -0.1555  0.0740  0.0409
22841W        W41695   5.855   2.469  11.668 -0.2106 -0.1328  0.0006
22842W        W41696   1.047   4.949  11.836 -0.0435  0.1957 -0.0536
22843W        W41697   6.643  16.705   1.625 -0.0592 -0.2966  0.3990
22844W        W41698  13.290   7.124  15.942  0.2541 -0.2024 -0.1533
22845W        W41699   1.180  15.534  15.771 -0.0413  0.0028 -0.1821
22846W        W41700  17.571   2.814   2.610 -0.0215  0.2369  0.1182
22847W        W41701  15.575   6.117  16.185  0.1731  0.0136  0.1549
22848W        W41702  17.607   2.847  15.696 -0.1275 -0.0103  0.0957
22849W        W41703   7.747   7.189  16.120  0.1044  0.2414 -0.0718
22850W        W41704   8.922   7.534   4.672  0.1749 -0.2920  0.0110
22851W        W41705  15.115   5.583   0.403 -0.2064 -0.2069  0.0221
22852W        W41706  10.142   9.172   5.096 -0.2466  0.0769 -0.2144
22853W        W41707  11.584  15.025   1.697  0.0006  0.2853 -0.1946
22854W        W41708  13.397   1.850   2.721 -0.1491  0.0327  0.2154
22855W        W41709  16.235   6.639   1.740 -0.1441  0.3042  0.1170
22856W        W41710   3.153   2.002  12.310 -0.3475  0.2088 -0.0173
22857W        W41711   5.091   8.290  13.221 -0.2573  0.2379  0.0819
22858W        W41712  17.625   7.794  15.469  0.2459  0.0326 -0.0994
22859W        W41713   8.339  12.926   3.542  0.0417  0.1743  0.0828
22860W        W41714  13.359  12.676  15.522  0.0632 -0.1355  0.1140
22861W        W41715   8.376   3.340  13.763 -0.1320  0.0184 -0.0889
22862W        W41716  11.217   4.515   1.775  0.1726  0.0555  0.1167
22863W        W41717   6.301   5.480  12.638  0.2127 -0.3236  0.2304
22864W        W41718   5.715  17.195   4.896  0.1088  0.0553 -0.1146
22865W        W41719   9.807  12.700  13.030 -0.2382  0.2598 -0.0360
22866W        W41720  16.411  10.963  15.527  0.1409 -0.1666  0.2291
22867W        W41721   4.343  12.883   2.847 -0.1651 -0.0766 -0.2939
22868W        W41722  13.360   1.338  12.840  0.0435 -0.0024 -0.1212
22869W        W41723  14.397  11.806   2.654 -0.2273  0.0558  0.0217
22870W        W41724   1.393  15.300  12.827 -0.2360 -0.2659 -0.2205
22871W        W41725  17.565  15.829   0.517  0.1229 -0.0790 -0.1597
22872W        W41726  15.787  15.370  13.206  0.0356 -0.0367  0.2422
22873W        W41727   8.687  14.037   3.066 -0.0112 -0.2771  0.0290
22874W        W41728  12.576  14.816  15.185 -0.2555 -0.0127  0.0059
22875W        W41729  18.008   8.168  12.408 -0.0926 -0.0766  0.2881
22876W        W41730   6.750   6.825   2.721  0.0004  0.1125 -0.1838
22877W        W41731   8.500  12.890  14.722 -0.1059 -0.1044 -0.2202
22878W        W41732   6.456   7.801  12.508  0.1080 -0.1628 -0.2211
22879W        W41733   1.180  17.503   1.893  0.0848 -0.3227 -0.1687
22880W        W41734   5.942   5.673   1.805  0.0133  0.2861 -0.2412
22881W        W41735   2.119  11.577   2.174  0.1922  0.3261 -0.1003
22882W        W41736   8.900  14.858  15.722 -0.2093  0.1688  0.2645
22883W        W41737   3.076  13.186   0.530 -0.0699  0.0697  0.1370
22884W        W41738   8.942  15.079   1.290 -0.1974 -0.1618  0.0997
22885W        W41739  16.033  15.148   0.752 -0.0922 -0.3989  0.3671
22886W        W41740  10.322   4.630   3.266 -0.0619 -0.2771  0.1331
22887W        W41741   2.995  13.868  12.745 -0.0900 -0.3952 -0.4061
22888W        W41742   9.698  14.133  14.341 -0.0408 -0.0476  0.3253
22889W        W41743   0.869   3.187  12.428  0.1345  0.0823 -0.2994
22890W        W41744   7.588   4.722  13.170  0.0246 -0.1484 -0.0966
22891W        W41745  13.182   1.123   1.748  0.1196  0.0926 -0.0691
22892W        W41746  15.815   6.768  11.860 -0.2762  0.0321 -0.0705
22893W        W41747   5.247   0.612   3.073  0.0973  0.1922 -0.2176
22894W        W41748   2.775   2.166  12.783 -0.0705 -0.2989  0.1119
22895W        W41749  10.032  10.930  13.779  0.1217  0.0297  0.1400
22896W        W41750   2.608  14.776  12.430 -0.1729 -0.2020  0.2687
22897W        W41751   8.896   6.065  11.696  0.0980 -0.1729 -0.2439
22898W        W41752  15.648  12.603   3.690  0.0078  0.3497  0.0969
22899W        W41753  14.833   0.751   2.921 -0.2603 -0.2781 -0.0045
22900W        W41754  13.867  15.471  12.129 -0.0271 -0.0759  0.1171
22901W        W41755  17.392   0.082   4.340 -0.3066 -0.2035 -0.0025
22902W        W41756   2.307   5.508  12.008  0.1398 -0.0839 -0.0695
22903W        W41757  11.482   3.237   3.633 -0.1210  0.0406 -0.2387
22904W        W41758  17.431   7.890   1.662  0.0685  0.3485  0.1908
22905W        W41759  10.193   6.806  12.665  0.2669 -0.1657  0.1388
22906W        W41760  17.737   7.405   3.814 -0.1494  0.0592  0.1082
22907W        W41761  13.657   5.488   5.906 -0.0124  0.1460  0.1518
22908W        W41762  13.900   4.501   3.658 -0.0056 -0.3443 -0.1730
22909W        W41763  14.209   7.884   2.639  0.0300  0.0028 -0.0150
22910W        W41764  13.257   1.333   0.039 -0.0427  0.1471  0.0925
22911W        W41765   8.865   7.404   2.750  0.2148 -0.0381 -0.2527
22912W        W41766   1.168  11.587   3.314 -0.4059 -0.2687  0.0236
22913W        W41767   0.878   9.492  13.771 -0.0161  0.1063 -0.0862
22914W        W41768  10.513  13.064  12.172  0.1079 -0.5012 -0.0920
22915W        W41769   0.041  16.415  15.730  0.1382 -0.3091  0.1386
22916W        W41770   3.086   5.644  13.624  0.0176 -0.2654 -0.0327
22917W        W41771   9.744  10.634   1.324  0.1999  0.0187 -0.0030
22918W        W41772   1.673  17.221   0.140 -0.1048  0.3295  0.1333
22919W        W41773   4.102   8.021  15.735 -0.1737  0.1454  0.1243
22920W        W41774   6.462  16.484   4.217  0.1285 -0.3358 -0.2815
22921W        W41775  16.556  16.130  10.365 -0.2310 -0.1335 -0.1732
22922W        W41776   2.389  12.686   3.809 -0.0712  0.1398  0.2059
22923W        W41777  11.284   9.817   3.155  0.0024  0.2963 -0.1411
22924W        W41778  12.198   3.229   1.756  0.0353  0.0453  0.0420
22925W        W41779   3.201   7.183  13.305 -0.0916  0.1109 -0.0837
22926W        W41780  16.960  15.303  12.619 -0.1357  0.0713 -0.1388
22927W        W41781  16.825   7.367   3.601 -0.1345  0.0580  0.0984
22928W        W41782   9.498  12.641   3.060 -0.0842 -0.0195  0.2340
22929W        W41783   1.618  14.168   4.092  0.0439 -0.1543  0.2452
22930W        W41784   6.709  15.905   1.487  0.1169  0.1142  0.0832
22931W        W41785   8.870  13.088  13.272  0.1096  0.2782  0.0592
22932W        W41786  15.474   2.178   0.445 -0.0664 -0.1277 -0.0109
22933W        W41787   1.217   2.692  14.997  0.0213 -0.0067  0.1691
22934W        W41788   2.547  15.722  15.846  0.1826  0.1172  0.0956
22935W        W41789   4.623   7.717  12.039 -0.0782  0.0401 -0.0384
22936W        W41790  11.159  14.125   0.832 -0.0322 -0.0899 -0.1603
22937W        W41791   2.418  17.968  11.622  0.2266 -0.2452 -0.0179
22938W        W41792  13.018  16.334   2.752  0.2187 -0.0204  0.0420
22939W        W41793  10.129   6.450   1.423  0.2647  0.0729 -0.1032
22940W        W41794   1.564  16.713   0.129 -0.5396  0.1376 -0.1925
22941W        W41795  10.468  13.509   0.473  0.2579  0.2256 -0.3269
22942W        W41796   6.325  16.295   2.935  0.1533 -0.1341  0.0076
22943W        W41797   5.407  16.887   1.310  0.2058  0.4924  0.0127
22944W        W41798  16.368  15.647   5.019 -0.3571  0.0038  0.3017
22945W        W41799   7.632  16.570   3.294 -0.0777  0.3218  0.3718
22946W        W41800   2.229   4.931  11.678  0.2376 -0.2006  0.0814
22947W        W41801  10.988   1.479  10.474  0.0357 -0.0773  0.0273
22948W        W41802   8.963   5.361  15.878  0.0118 -0.2249  0.0295
22949W        W41803  12.766   5.975  15.351 -0.2176  0.0228 -0.1359
22950W        W41804  16.740  16.533   3.914  0.0939  0.0429  0.1242
22951W        W41805  12.651  10.163  14.726 -0.0335 -0.2061  0.3078
22952W        W41806   5.985   4.448   1.243 -0.1415  0.2359  0.0459
22953W        W41807   4.780   1.977  13.800  0.2561  0.1324  0.0781
22954W        W41808  12.442   7.108  13.805  0.3289  0.0235  0.1247
22955W        W41809   2.179   7.983  15.428 -0.2086  0.0259  0.0346
22956W        W41810   3.753   6.584   1.312  0.1102  0.0290 -0.0585
22957W        W41811   2.931  15.604  15.448 -0.0039  0.1138 -0.0250
22958W        W41812   8.613   9.312   4.534 -0.0358  0.2649  0.0006
22959W        W41813   9.213  15.933  14.327 -0.0256 -0.0799 -0.1838
22960W        W41814  16.807   3.136   4.168 -0.0595  0.2657 -0.0027
22961W        W41815   3.649   0.599   1.454  0.2291  0.1763 -0.0125
22962W        W41816   4.158  15.634   3.635 -0.0407 -0.0574  0.2359
22963W        W41817  15.414   1.759  13.984  0.1413  0.3232 -0.0370
22964W        W41818   3.389   2.451  15.016  0.1654 -0.0768  0.0448
22965W        W41819  17.393  16.250   0.231 -0.0871 -0.0084 -0.1111
22966W        W41820  13.322   0.871   1.373  0.0749 -0.0711  0.2685
22967W        W41821  13.687  11.645   1.122 -0.0936 -0.0067  0.1488
22968W        W41822  16.641   7.859  13.188  0.1488 -0.0434 -0.1368
22969W        W41823   4.659  14.446  15.665 -0.1939  0.0172 -0.1154
22970W        W41824  15.091  11.163   1.187 -0.0923  0.1034  0.0283
22971W        W41825   4.468  16.190   4.909 -0.2487  0.1568  0.2314
22972W        W41826  15.108  15.002  12.471 -0.1647 -0.2100 -0.1240
22973W        W41827  16.333  13.623  11.932 -0.0362 -0.3425  0.4074
22974W        W41828   1.967  12.803  12.134  0.0314  0.0691 -0.0485
22975W        W41829  10.928   3.798  14.680  0.0529  0.0324 -0.4940
22976W        W41830  10.010   0.450   4.058  0.0092  0.2156 -0.1592
22977W        W41831   1.045   8.117   4.480 -0.0010  0.1290  0.2864
22978W        W41832   6.084  12.075   2.871  0.1295 -0.2546 -0.1555
22979W        W41833   5.720   8.838   4.402 -0.1852 -0.0324 -0.1257
22980W        W41834  13.238   1.716  15.475  0.1989  0.1584  0.0421
22981W        W41835   0.171   4.536  14.569  0.1356 -0.4907  0.0195
22982W        W41836   5.266   9.277   1.658  0.2826 -0.0891  0.0066
22983W        W41837   3.837   8.073   0.480  0.2238 -0.0431  0.5420
22984W        W41838   0.248   5.235   3.762  0.0121  0.1598  0.0238
22985W        W41839  11.210   3.598   4.875  0.0853 -0.0097  0.1269
22986W        W41840  17.785   9.542  12.742 -0.0969  0.0849  0.0488
22987W        W41841   0.708   6.515   3.513  0.1326 -0.3147  0.1686
22988W        W41842   5.824   9.642  14.175  0.0704 -0.0201  0.3340
22989W        W41843   7.395   3.152   1.271 -0.2098 -0.0680  0.1699
22990W        W41844   2.724  12.303  13.736 -0.3363 -0.1591 -0.0882
22991W        W41845   3.227   4.921   2.990 -0.0448 -0.1527  0.3703
22992W        W41846   7.275   1.357  12.548 -0.1459  0.1240  0.1283
22993W        W41847   7.625  10.866   3.754  0.0221  0.0212 -0.1928
22994W        W41848   1.626  14.401   5.528 -0.0465 -0.0923 -0.1536
22995W        W41849  15.788  17.358   0.367 -0.1780  0.0368  0.0955
22996W        W41850  12.748   3.567  11.762  0.0634 -0.0989 -0.1622
22997W        W41851   1.086  17.200  13.465 -0.2973  0.0660 -0.1146
22998W        W41852   2.116  13.724   3.543  0.1263  0.1835 -0.2213
22999W        W41853   5.718  15.214  14.223  0.1866 -0.2786 -0.1398
23000W        W41854   2.798  10.331  13.863 -0.0916  0.1850 -0.1385
23001W        W41855  17.999  11.479  13.912 -0.3589 -0.1671  0.0093
23002W        W41856  17.978  13.028   1.911  0.2156 -0.1368  0.0678
23003W        W41857  11.897   3.912   1.479 -0.1918 -0.0289 -0.2169
23004W        W41858   6.814  13.065  15.250  0.0052 -0.0535  0.0106
23005W        W41859  17.319   5.200   3.623  0.1867 -0.0190 -0.1836
23006W        W41860  11.361  10.718   1.677  0.2597  0.3723 -0.2492
23007W        W41861   9.459   3.601   1.833 -0.0351 -0.0009 -0.1669
23008W        W41862   0.594  11.411   3.286  0.0537 -0.1670  0.0615
23009W        W41863  12.921   2.098   3.664 -0.0313 -0.0803  0.3437
23010W        W41864   6.987  15.424  14.915  0.2439 -0.1448 -0.1054
23011W        W41865  12.978   3.767   2.872 -0.2901 -0.0659 -0.0679
23012W        W41866  10.947   7.751  12.645 -0.0891  0.3731  0.3105
23013W        W41867  17.988   5.095  11.627 -0.0049 -0.0196 -0.3617
23014W        W41868   9.617   0.967  14.237  0.0522 -0.0568  0.1910
23015W        W41869  17.183   0.759   1.314  0.3251 -0.1271 -0.1018
23016W        W41870  15.732   2.608   0.300 -0.1264  0.1813  0.2448
23017W        W41871  15.853  13.550   3.421  0.0738  0.0554 -0.0580
23018W        W41872   8.185   6.634   2.877  0.0717 -0.1725 -0.0771
23019W        W41873  11.450  15.809   5.120 -0.1391  0.2134  0.0439
23020W        W41874   6.788  10.703  15.310 -0.1068 -0.0100  0.0060
23021W        W41875  13.178  15.954  12.189  0.0532  0.2246  0.1958
23022W        W41876  13.111   0.976  13.489 -0.0762 -0.0252 -0.1549
23023W        W41877   9.834   7.687   1.103 -0.0092 -0.1219 -0.0516
23024W        W41878   3.979   0.221   0.373 -0.0677  0.1112  0.1113
23025W        W41879   7.931   5.461  13.694 -0.0260  0.0949  0.2454
23026W        W41880   9.804   1.288  15.841 -0.0376 -0.2482 -0.0752
23027W        W41881  14.152   4.247  15.921  0.0850 -0.0602 -0.0049
23028W        W41882  15.436  16.492   4.748  0.1349 -0.2132  0.2079
23029W        W41883   0.293   0.083   4.169 -0.0347 -0.0695  0.1493
23030W        W41884   4.017   5.488  11.253  0.0755  0.0816 -0.0529
23031W        W41885   3.423   7.642  13.998 -0.0515  0.1032  0.1129
23032W        W41886   0.658   5.152   2.071  0.0300 -0.0166 -0.0984
23033W        W41887   6.388   7.483  14.852 -0.1877  0.0321  0.0731
23034W        W41888  13.293  15.758   3.222 -0.0714 -0.0802 -0.2251
23035W        W41889  10.386  15.048   4.033 -0.0589 -0.0361  0.5249
23036W        W41890   2.404  14.895   4.467  0.0636  0.0882  0.4555
23037W        W41891  15.996   8.180   4.445 -0.2101  0.0956  0.0221
23038W        W41892   3.641  13.073   1.364 -0.0991 -0.2347 -0.1500
23039W        W41893  12.879  11.862   0.239 -0.0737  0.4249 -0.1374
23040W        W41894   8.294  15.446   4.509  0.1022  0.0400 -0.0832
23041W        W41895   2.098  10.692  12.205  0.1452  0.0721  0.2248
23042W        W41896  12.224  15.377   3.602  0.0703  0.0487  0.0086
23043W        W41897   7.962   2.813  13.076  0.0108  0.0663  0.1909
23044W        W41898  12.352  17.235   1.135  0.0797 -0.2670  0.0036
23045W        W41899  12.872   1.691   0.948 -0.1721  0.1498  0.2182
23046W        W41900  12.366   5.598   2.146 -0.1861  0.2073  0.0747
23047W        W41901   8.129  14.387  12.593  0.0492  0.0367  0.0570
23048W        W41902  13.738   5.179   0.853  0.0894 -0.1286  0.3039
23049W        W41903   9.779   2.076   4.077 -0.2698  0.0044 -0.2301
23050W        W41904   5.160  10.217   1.532 -0.2505 -0.1261  0.1340
23051W        W41905  16.269   8.771   3.502 -0.0910 -0.1140 -0.3117
23052W        W41906  13.046   2.504   3.877 -0.1609 -0.1965  0.1212
23053W        W41907   7.604   1.647  11.734  0.0515 -0.2534 -0.3364
23054W        W41908   4.335  16.468  13.603 -0.0619 -0.1155  0.0497
23055W        W41909  15.132   9.990  13.267  0.2919 -0.2343  0.3666
23056W        W41910   0.897   5.964  11.698 -0.1146 -0.0731 -0.0426
23057W        W41911  11.523   1.320   3.756 -0.1361  0.2154 -0.1676
23058W        W41912  15.420   0.557   2.277 -0.1531 -0.2172 -0.0389
23059W        W41913   7.968   6.587   1.366  0.0368  0.0008  0.2847
23060W        W41914   8.207  13.327   1.000 -0.1038  0.0260  0.1962
23061W        W41915   4.196   3.454   2.503  0.0618 -0.0092  0.0781
23062W        W41916   2.929   2.569  15.114  0.1013 -0.2626  0.2619
23063W        W41917   0.041  12.226   0.412 -0.1120  0.0973  0.0513
23064W        W41918  13.220   9.049  16.065 -0.1659 -0.0089 -0.2203
23065W        W41919  13.860  13.739   5.517 -0.3629  0.2265  0.0801
23066W        W41920   4.234  13.662  16.217  0.4406 -0.2722  0.2141
23067W        W41921   7.276   1.090   5.037  0.0939 -0.1465  0.0910
23068W        W41922   0.335  14.534   2.978  0.2635  0.2138  0.0840
23069W        W41923  16.604  11.252   4.525  0.1831  0.0591 -0.0799
23070W        W41924   9.191   0.849  13.938  0.0765 -0.0296  0.0200
23071W        W41925  16.546   8.683  13.483  0.1031  0.1984 -0.0992
23072W        W41926  14.769  15.067  15.764  0.2147 -0.1532 -0.2149
23073W        W41927  12.952   3.169   2.084 -0.2412 -0.0967  0.0017
23074W        W41928  16.529   4.150  13.697 -0.1400 -0.2853 -0.2766
23075W        W41929   4.585  16.421  15.149  0.1058 -0.0508  0.1154
23076W        W41930  16.630  11.647  13.629  0.1404 -0.0145  0.1009
23077W        W41931   0.789  10.905  14.447  0.1495  0.3593 -0.2163
23078W        W41932  11.485  10.730   2.161  0.0681 -0.1599  0.1338
23079W        W41933   1.149  13.389   0.319 -0.1887 -0.0838 -0.0790
23080W        W41934   7.587  10.889   2.579 -0.0796 -0.1855  0.0363
23081W        W41935  11.615  16.702  13.500 -0.1367  0.2132  0.2011
23082W        W41936  10.590   6.241   1.936 -0.2063 -0.0251  0.0810
23083W        W41937  14.381   8.921  13.679 -0.0217 -0.1126 -0.2093
23084W        W41938   5.712  15.083   4.263 -0.0438  0.1278  0.1870
23085W        W41939  13.727   5.722   1.868 -0.0853  0.0354 -0.0781
23086W        W41940   9.233  11.683  15.969 -0.0680  0.1817 -0.0687
23087W        W41941   6.418   9.523   1.917  0.2464  0.2288 -0.1678
23088W        W41942  15.656   2.850  14.568 -0.1524 -0.0976 -0.1635
23089W        W41943   2.735  10.385  14.459  0.0045 -0.4040  0.3029
23090W        W41944   5.855  13.898   2.423 -0.0228 -0.0240  0.0732
23091W        W41945   4.898   7.611  13.017  0.1337  0.0522 -0.0650
23092W        W41946   9.888  15.752  13.798 -0.1043 -0.2700  0.0996
23093W        W41947   6.124   2.454  14.211  0.1061  0.0809  0.1685
23094W        W41948   5.314  16.575  13.723  0.0243  0.1265 -0.0561
23095W        W41949   4.754   1.189   4.103  0.0239 -0.0973  0.0281
23096W        W41950   5.456  17.370   1.132  0.1145 -0.2668 -0.0377
23097W        W41951  10.193   6.287  16.097  0.0563 -0.1908 -0.0164
23098W        W41952   0.610   0.494   4.114  0.1056 -0.1129 -0.1072
23099W        W41953  16.719   8.131  11.298 -0.1288 -0.2795 -0.0285
23100W        W41954   5.247   8.784  14.516  0.0896  0.0931  0.0474
23101W        W41955   7.164   4.025   0.371  0.0737  0.2275 -0.1085
23102W        W41956   1.088   7.535  14.356  0.1703  0.1457 -0.1436
23103W        W41957   8.279   7.332   5.015  0.2139  0.0282 -0.0244
23104W        W41958  10.415   5.861   1.077 -0.0435  0.1460  0.0554
23105W        W41959  11.099  12.231   0.116 -0.0665 -0.0562 -0.0439
23106W        W41960   0.493   6.122  15.603 -0.2222  0.1673  0.0367
23107W        W41961   4.045  13.838   4.581 -0.1325  0.0746  0.0471
23108W        W41962   2.377  16.172  15.796 -0.3219 -0.3029 -0.3745
23109W        W41963   6.323   6.034   2.855  0.0360  0.4340 -0.1163
23110W        W41964  11.811  13.139  13.796  0.1068  0.2070 -0.1050
23111W        W41965   7.329  11.906  15.549 -0.0813  0.1474 -0.0476
23112W        W41966   7.339   4.935   0.715  0.0966  0.1562 -0.0545
23113W        W41967   1.879  16.844   4.089  0.3448 -0.3134  0.2333
23114W        W41968  15.257   5.064   0.348 -0.2253 -0.0599  0.1563
23115W        W41969  15.218  15.282   1.688 -0.2266 -0.0845  0.0547
23116W        W41970   8.034   0.785   3.036 -0.4685  0.0290  0.0735
23117W        W41971  11.561   2.202   2.546 -0.1646  0.1085  0.1604
23118W        W41972  15.957  17.028   4.020  0.2136 -0.2589  0.1302
23119W        W41973  13.976   5.067   4.507  0.0470  0.2129 -0.0138
23120W        W41974  13.568   9.522   3.607  0.0090  0.0723 -0.1552
23121W        W41975  13.736   0.549  13.738 -0.2653  0.1566 -0.3468
23122W        W41976   4.407  11.791  13.302  0.4866  0.0686  0.1454
23123W        W41977   7.569   0.146   2.311 -0.3487  0.0553  0.3750
23124W        W41978   0.189  10.219   2.764  0.1527 -0.1096 -0.1176
23125W        W41979   5.633  13.078  14.587 -0.1993  0.1426  0.0547
23126W        W41980   4.206  16.043  11.477 -0.0989 -0.0524  0.1676
23127W        W41981   3.871  13.861  12.566 -0.0263 -0.0057  0.4637
23128W        W41982  13.773   9.823  13.269 -0.0133 -0.0736  0.0738
23129W        W41983   4.113  16.171   2.825 -0.0586 -0.0620 -0.1057
23130W        W41984  17.458  11.159  15.520 -0.0250  0.2303 -0.3255
23131W        W41985   8.587  10.653  14.966  0.3998 -0.0144  0.0183
23132W        W41986   5.018   3.841   1.949 -0.1027  0.1632 -0.2478
23133W        W41987   3.947   0.627  12.039  0.1059 -0.2960 -0.2201
23134W        W41988  13.224   5.732   3.396 -0.2477  0.2106 -0.0117
23135W        W41989   4.875  13.106  13.796 -0.4612  0.2465  0.2372
23136W        W41990   5.989  14.251   2.009 -0.0453  0.0297  0.2475
23137W        W41991  13.010   9.233  13.084  0.0033 -0.1334  0.1916
23138W        W41992   5.520   7.831  11.584 -0.1369  0.0752 -0.0507
23139W        W41993   9.183   6.917  16.049  0.0357 -0.4639 -0.1256
23140W        W41994  13.487   2.951  11.792 -0.0437 -0.2042 -0.0013
23141W        W41995   8.488   2.798   4.147 -0.0438 -0.0900  0.1312
23142W        W41996   6.613   7.385  15.493 -0.1853  0.0500 -0.0500
23143W        W41997  10.898   0.145  11.934  0.2602  0.0673  0.3007
23144W        W41998  14.559  15.372   3.166 -0.2626  0.0816  0.3063
23145W        W41999  17.864   8.970   1.434 -0.5385 -0.0223  0.0492
23146W        W42000  11.336   7.753   1.340 -0.1774  0.0589 -0.1737
23147W        W42001  12.279   5.099   1.969 -0.1377  0.3873 -0.0565
23148W        W42002   5.242   2.950   2.677  0.0531  0.0451  0.1020
23149W        W42003   4.864   0.290  12.929  0.2232 -0.1519 -0.0827
23150W        W42004   4.456  10.120   4.152  0.0135  0.0936 -0.0006
23151W        W42005   5.023  15.362   4.090  0.0023  0.2439  0.0862
23152W        W42006  16.065   3.718  13.533  0.1658  0.0141 -0.1365
23153W        W42007   4.397  14.028   4.195  0.0250 -0.0522 -0.0081
23154W        W42008   5.872   5.756   1.270 -0.4291 -0.1347  0.1134
23155W        W42009   3.289   5.984  16.043  0.1513 -0.0916  0.1626
23156W        W42010   4.601   4.287  13.400 -0.1282 -0.1280  0.1325
23157W        W42011   3.297   5.382   0.605 -0.0411  0.1668 -0.0652
23158W        W42012   4.786  14.082  15.349 -0.0474  0.3540 -0.1883
23159W        W42013  11.833   4.034  15.602  0.4675 -0.0558 -0.1735
23160W        W42014  12.287  14.297   5.157 -0.0284 -0.2632  0.2000
23161W        W42015  16.196  15.775  14.856  0.2209  0.1749  0.0130
23162W        W42016   1.540   7.660   2.379 -0.0062 -0.2233 -0.0400
23163W        W42017  15.512   9.098  14.732  0.1787  0.2144 -0.1042
23164W        W42018  10.412   9.954  13.512 -0.0795 -0.2029 -0.0208
23165W        W42019   9.752  16.579  15.952  0.0728  0.1478  0.0494
23166W        W42020   0.058  16.528   0.920  0.0401 -0.0896  0.0711
23167W        W42021  14.113   0.452   4.092 -0.0404 -0.1163  0.0229
23168W        W42022   9.689   3.960  15.428  0.0698 -0.0235 -0.1035
23169W        W42023   3.332  17.946  12.343  0.1129  0.4794  0.1167
23170W        W42024   4.378   5.954   1.497 -0.1526 -0.2410 -0.1898
23171W        W42025  17.473  17.906  13.674 -0.1134  0.1233  0.1359
23172W        W42026  13.968   6.566  11.472  0.1627  0.0232 -0.1696
23173W        W42027  13.921   6.923   1.839  0.3889 -0.1039  0.0165
23174W        W42028   4.238  14.116   0.874 -0.0497  0.0464  0.2027
23175W        W42029   6.909  10.197  12.371  0.2818 -0.4239  0.1934
23176W        W42030  11.339   1.138  12.796 -0.2155  0.1296 -0.0991
23177W        W42031  15.374  15.302  14.021 -0.1349 -0.1475 -0.0304
23178W        W42032   7.865   6.793  15.406 -0.0553  0.0166  0.0726
23179W        W42033  13.913   0.435  16.007  0.1347 -0.1320 -0.1490
23180W        W42034   3.789   6.468  12.002  0.3210  0.2143 -0.1625
23181W        W42035  16.038   4.611   3.682  0.0516 -0.4424 -0.2080
23182W        W42036   0.543   8.965  12.100  0.0682  0.5003  0.1008
23183W        W42037   4.935  11.087   0.351  0.2086 -0.0418  0.1304
23184W        W42038  16.479   9.493   2.895  0.1514  0.0942 -0.1473
23185W        W42039  12.132  11.425  15.135  0.1060 -0.0352  0.0948
23186W        W42040   5.712   6.411   0.936  0.2835  0.0388  0.2651
23187W        W42041  11.477  11.908   2.454 -0.0232 -0.1885  0.0569
23188W        W42042  10.736  10.528   5.133  0.1371  0.2054 -0.3688
23189W        W42043   8.781  17.132   3.903  0.0227  0.1566  0.1799
23190W        W42044  16.618   9.247   2.443  0.0365  0.2053 -0.1796
23191W        W42045   7.400  13.703   1.325 -0.0405 -0.1210  0.4294
23192W        W42046   9.546   8.118  13.430 -0.3807 -0.0286  0.2048
23193W        W42047   2.443  16.965   2.171  0.2629  0.1013  0.1152
23194W        W42048   8.797   6.375   0.027  0.2770  0.4149 -0.1831
23195W        W42049   7.885   4.892   2.339 -0.0446  0.1823  0.1077
23196W        W42050  17.765   4.592  13.403 -0.0963 -0.0344 -0.2420
23197W        W42051   6.109   3.175   0.647 -0.0662 -0.2252  0.0787
23198W        W42052   8.562   6.072   3.580  0.1272 -0.1522  0.0220
23199W        W42053   5.970  16.327   4.056  0.1766  0.0916  0.1534
23200W        W42054   5.184  14.475   4.218 -0.2814  0.0711  0.1820
23201W        W42055  12.887  11.577   3.238 -0.2883 -0.0768  0.0634
23202W        W42056   4.059  10.830  12.893  0.0128 -0.4437  0.0908
23203W        W42057  10.041  15.115   0.936  0.0653  0.0975  0.1756
23204W        W42058  17.117  13.303   4.482  0.0508 -0.0871 -0.1327
23205W        W42059  17.737  10.390  15.343 -0.0790 -0.2194 -0.1226
23206W        W42060   6.192   5.337   4.271 -0.0859 -0.0696  0.0176
23207W        W42061  10.441   7.403  12.667 -0.1030  0.2617  0.1087
23208W        W42062   4.039   1.084  15.669 -0.0710 -0.1295  0.1044
23209W        W42063   2.726   2.118   0.457  0.0640 -0.0354  0.0674
23210W        W42064   1.893  18.006   0.898  0.1703  0.2206  0.0741
23211W        W42065   5.905   9.720  14.705 -0.1173  0.0779 -0.1534
23212W        W42066   5.889  13.882  13.476 -0.1228 -0.1032  0.0928
23213W        W42067   9.912   8.302   0.488  0.3489 -0.4203  0.2328
23214W        W42068   9.834  13.946   1.064 -0.5045 -0.1206  0.3337
23215W        W42069   7.365   6.966  13.077  0.1625  0.0555  0.2273
23216W        W42070  17.782   1.087   3.041 -0.2076  0.2698  0.0542
23217W        W42071  13.050   3.554  14.377 -0.0035 -0.3030 -0.0155
23218W        W42072  14.852   4.288  12.478  0.0172 -0.4693  0.1573
23219W        W42073  13.295  12.160  12.295  0.1032 -0.1439 -0.0845
23220W        W42074   5.708   4.156   3.672  0.1754 -0.0403  0.3011
23221W        W42075   7.282  16.242   1.571  0.0279 -0.0229 -0.0690
23222W        W42076  12.737   4.402   0.787  0.2007  0.1430  0.2490
23223W        W42077   7.416  13.059  12.143 -0.2154 -0.0597  0.2615
23224W        W42078  16.072   9.076  11.712 -0.1078  0.1941  0.1921
23225W        W42079   6.978  13.811  13.276 -0.2520 -0.0662 -0.0876
23226W        W42080   2.927  14.309   3.880  0.2281  0.2834 -0.2371
23227W        W42081  11.389  12.178  12.463 -0.0879  0.0591  0.1139
23228W        W42082   6.492   5.431   0.215 -0.0679  0.1909 -0.1638
23229W        W42083   7.461   7.895  14.847  0.2245 -0.4510 -0.1370
23230W        W42084   8.727   0.738   4.153  0.0096 -0.1575  0.1344
23231W        W42085  17.010  17.834   1.842  0.0786  0.0899  0.0789
23232W        W42086  11.660  10.250   1.377 -0.2740  0.0220 -0.3857
23233W        W42087   4.396   2.418  11.773 -0.2108  0.0263 -0.2191
23234W        W42088  11.391  16.749   0.250 -0.1781 -0.1296  0.1016
23235W        W42089  16.964  14.936  15.499  0.0518  0.0962  0.0052
23236W        W42090   2.201  10.246  13.674  0.2030 -0.1721 -0.1318
23237W        W42091  10.375  13.246   2.292  0.0590 -0.1358 -0.2883
23238W        W42092   4.989  14.087   2.141 -0.0816 -0.2384 -0.2312
23239W        W42093  13.333   7.327   4.157 -0.2807  0.5096  0.2456
23240W        W42094   0.395  16.375  14.840  0.1643 -0.3817  0.1504
23241W        W42095   7.558   3.111  12.898 -0.1609 -0.2189  0.1933
23242W        W42096  16.458  15.304  13.008  0.0866  0.0962  0.1940
23243W        W42097   3.455  14.070   1.384  0.1194  0.2774  0.1312
23244W        W42098   4.111  13.240   5.649  0.1956  0.3062 -0.1923
23245W        W42099   0.541   8.686   0.810  0.1988 -0.0408 -0.1392
23246W        W42100  13.601   3.397   1.281 -0.2110 -0.3761 -0.0097
23247W        W42101   7.713   3.652  12.841  0.3951  0.1179  0.0519
23248W        W42102  10.930   6.824  15.436 -0.1963 -0.1808 -0.0683
23249W        W42103  10.043   6.845  12.217  0.2368 -0.1136 -0.2178
23250W        W42104   2.820  16.489  14.885 -0.2337 -0.0564 -0.1380
23251W        W42105  11.625  14.377  11.734 -0.1150 -0.0795  0.0766
23252W        W42106  10.238   7.407   3.733  0.4769  0.2447  0.1365
23253W        W42107   3.682   4.130   0.815 -0.2040  0.2533 -0.0952
23254W        W42108   0.103  16.728   3.390 -0.1006 -0.0405  0.1773
23255W        W42109  16.716   9.152   3.518  0.0387 -0.2198  0.0369
23256W        W42110  10.162   7.525   2.965  0.0119 -0.1136  0.0270
23257W        W42111   7.300   6.295  11.889  0.0072 -0.0420 -0.0848
23258W        W42112  13.852   4.328   2.724  0.1043  0.2955 -0.2560
23259W        W42113  12.404   0.533  16.103  0.0948 -0.0154  0.3150
23260W        W42114   9.765   6.380  13.473 -0.3178 -0.1235  0.0692
23261W        W42115   3.576   6.917  12.060 -0.0185  0.3304 -0.2694
23262W        W42116  15.078   7.167  14.493  0.1116  0.0635  0.1949
23263W        W42117   0.767   3.581  13.448  0.0739  0.2877  0.0262
23264W        W42118   1.207   9.728  15.181 -0.1013 -0.1526 -0.0124
23265W        W42119  13.653  18.009  15.660 -0.0765  0.1212  0.1262
23266W        W42120  14.781   8.336   4.437 -0.0563 -0.1235 -0.1387
23267W        W42121  15.339  10.684   4.142 -0.1136 -0.0790  0.3778
23268W        W42122  14.431  11.122  12.452 -0.2065 -0.0774  0.2282
23269W        W42123  15.331   9.270   3.668 -0.0503 -0.0147  0.2941
23270W        W42124   8.519  17.766  13.033  0.3348 -0.3028  0.0419
23271W        W42125   9.570  12.825  13.503 -0.1995 -0.0709 -0.0661
23272W        W42126   6.319   3.105   1.195 -0.2631 -0.1836  0.1615
23273W        W42127   4.211   6.524  13.914 -0.0964 -0.2196  0.2081
23274W        W42128   1.836  12.191  15.603 -0.1215 -0.1764 -0.0573
23275W        W42129  12.226  17.414  16.191 -0.2406 -0.0503  0.0691
23276W        W42130  16.264  17.403   1.045  0.1845  0.1481 -0.0395
23277W        W42131   1.290  12.306  12.562  0.2762 -0.4547 -0.1212
23278W        W42132  10.536   6.402   1.149  0.3175  0.0354  0.2741
23279W        W42133  14.733  17.684   4.908  0.0798  0.1231 -0.1806
23280W        W42134   4.879   0.586   3.435 -0.1769 -0.0537 -0.1157
23281W        W42135   0.051   4.535   2.694  0.0848 -0.0160  0.0680
23282W        W42136   5.799   0.767  14.841 -0.2533 -0.0699  0.2552
23283W        W42137   4.090   9.741   4.062  0.0020 -0.1149  0.1813
23284W        W42138   2.066  10.368  16.203 -0.0053 -0.2653 -0.1449
23285W        W42139  15.919   5.167  14.455 -0.1264  0.0399  0.1888
23286W        W42140  16.396   3.433  12.629  0.0725 -0.1623 -0.1041
23287W        W42141   2.133   6.551   0.497  0.1335  0.0084 -0.1079
23288W        W42142  11.845   7.576   4.845 -0.0278 -0.0355  0.2261
23289W        W42143  12.914  16.946  15.854 -0.2994 -0.0241 -0.1407
23290W        W42144  15.534   9.195  11.386  0.1442 -0.1508 -0.1763
23291W        W42145   8.971   6.021   3.255 -0.2431 -0.0775 -0.0360
23292W        W42146  14.775   2.573   3.748  0.0579 -0.1762 -0.0817
23293W        W42147  17.425   6.095   2.047  0.1374 -0.0746 -0.3217
23294W        W42148  15.396   3.714   4.296  0.2253  0.0151  0.1910
23295W        W42149   6.499  17.095  13.847  0.0590  0.2426 -0.1544
23296W        W42150   7.372   3.487   1.743  0.2623  0.0130 -0.0322
23297W        W42151  11.058   9.235   4.881 -0.3072  0.1891 -0.3867
23298W        W42152  10.785  11.297  12.548 -0.0282  0.2697 -0.0777
23299W        W42153   4.839  13.584  15.638  0.0470  0.1071 -0.0796
23300W        W42154   1.737   6.260  15.184  0.0804 -0.0046 -0.2767
23301W        W42155  17.583  10.196  11.309  0.0060 -0.2245 -0.0320
23302W        W42156  10.486   4.253   1.161  0.0356 -0.0558  0.3995
23303W        W42157   5.926  15.777  15.647  0.1383  0.0548  0.1029
23304W        W42158   3.700   4.154   1.817 -0.1406 -0.0813 -0.0241
23305W        W42159   6.954   1.990   0.208  0.0269 -0.0401 -0.0308
23306W        W42160  11.049  17.343  14.531 -0.0886 -0.0018  0.0706
23307W        W42161   8.055  17.409   5.199 -0.0929  0.1698  0.0720
23308W        W42162   0.742   4.746  10.933  0.0569 -0.1156 -0.0137
23309W        W42163  16.270   5.545  13.510 -0.0845  0.2122  0.0034
23310W        W42164   3.220   3.789  12.821 -0.0971 -0.2216  0.1627
23311W        W42165  17.321   6.849   3.740 -0.0703 -0.0497  0.0248
23312W        W42166  17.027  15.285   0.468 -0.2318 -0.0756  0.0626
23313W        W42167  17.466   8.716   3.261  0.0737 -0.0798  0.0822
23314W        W42168   2.183   4.445  11.666  0.0042 -0.2062 -0.2930
23315W        W42169   9.709   1.099   0.463  0.0117  0.0241 -0.1349
23316W        W42170  15.296   4.623   3.329 -0.1683  0.0361 -0.4974
23317W        W42171   9.045   1.392   2.296  0.1522 -0.2335  0.2151
23318W        W42172  16.839   5.847  15.750  0.1937 -0.3560 -0.2816
23319W        W42173   8.366  10.665  12.870 -0.0914  0.2479  0.0888
23320W        W42174  11.141   2.692  14.542  0.1033  0.0539 -0.0075
23321W        W42175  10.944  14.780  14.935  0.2970 -0.0167  0.2398
23322W        W42176  15.650   2.788   5.260 -0.3205 -0.1033 -0.1139
23323W        W42177   4.045   8.050  13.212  0.0228 -0.0999 -0.0108
23324W        W42178   7.947   4.400  14.016  0.0219  0.1550  0.2895
23325W        W42179   0.403   5.000  11.379 -0.0821  0.2506 -0.1363
23326W        W42180   4.151  17.243   1.155 -0.1028 -0.0503  0.4361
23327W        W42181   2.775   6.130   1.719  0.1275 -0.2182 -0.1906
23328W        W42182   7.187   6.098   1.139 -0.1040  0.1829  0.3095
23329W        W42183  13.687  17.089  16.106  0.0684  0.2326  0.2177
23330W        W42184   2.366  13.845   3.155 -0.0185 -0.0979  0.3382
23331W        W42185   0.306   8.182  13.839 -0.1290  0.1270  0.3018
23332W        W42186  11.652  13.518  15.999 -0.1442  0.0001 -0.0189
23333W        W42187   5.924  16.217   4.920  0.0312 -0.1450  0.2594
23334W        W42188   0.884   9.338   4.351  0.0603  0.2665 -0.0541
23335W        W42189   9.979   6.082   1.931 -0.1973  0.2711  0.3177
23336W        W42190  10.483   7.256   0.630 -0.0763  0.3479 -0.1451
23337W        W42191  16.715   7.100   0.640 -0.1182 -0.2392  0.0941
23338W        W42192   6.518  14.136  14.887 -0.1705  0.3316  0.0389
23339W        W42193  16.368   6.183   5.365  0.1777 -0.0339 -0.0791
23340W        W42194   9.531   0.661   3.348 -0.0338  0.0132  0.0524
23341W        W42195  16.511  13.650   3.057 -0.1167  0.2062  0.0482
23342W        W42196  13.974   8.865   1.187 -0.0313 -0.1175  0.0758
23343W        W42197   8.772  14.323   2.663  0.4743  0.2307  0.0235
23344W        W42198   6.378  17.554   4.047 -0.3411  0.1243 -0.4493
23345W        W42199   1.809   9.617   4.610 -0.1433 -0.2403  0.3976
23346W        W42200  15.773   0.233   2.010 -0.3484  0.0329  0.3053
23347W        W42201   6.546   1.355  14.905  0.1115 -0.0430  0.0102
23348W        W42202  16.109   1.034  14.434 -0.0792 -0.2067 -0.1325
23349W        W42203  15.116  11.695   1.071  0.1362  0.2257  0.0694
23350W        W42204   0.755   1.637   3.014  0.0261  0.2462  0.1553
23351W        W42205  10.868   7.246   1.932 -0.1386 -0.1127 -0.1300
23352W        W42206  16.304   7.415   3.287 -0.1806  0.2657  0.4971
23353W        W42207   5.154   0.767   0.189  0.0680  0.0527 -0.1235
23354W        W42208   8.833   8.989   4.055  0.0022 -0.0078 -0.0804
23355W        W42209  10.494   9.633  13.102  0.0730  0.1895 -0.1422
23356W        W42210  13.546   4.383   0.172  0.0084  0.0569  0.0602
23357W        W42211  14.945   4.916  11.841 -0.2509  0.2317 -0.0499
23358W        W42212   8.617   7.091   1.706 -0.2387 -0.2022  0.1040
23359W        W42213  15.029  10.413  12.376  0.0117 -0.0128 -0.2493
23360W        W42214   1.331   7.563   1.507  0.0281 -0.3873 -0.1065
23361W        W42215   4.589  10.073  11.733  0.1405 -0.0577  0.1553
23362W        W42216   8.344   1.613  15.506  0.2317 -0.1814 -0.1242
23363W        W42217   6.679   2.298  15.431 -0.0605  0.2022  0.1817
23364W        W42218   3.017   9.354  12.954 -0.1089  0.1760  0.2433
23365W        W42219  16.348   2.401   2.371 -0.0838  0.0453 -0.0232
23366W        W42220  17.324   1.681   3.751  0.0234 -0.1799 -0.0227
23367W        W42221   0.580  10.842   0.078 -0.0422 -0.1058 -0.2310
23368W        W42222  16.386   4.251   3.401 -0.2277  0.1139 -0.3534
23369W        W42223   7.870   0.375   0.591 -0.0486 -0.2732 -0.3112
23370W        W42224  15.087   8.848   2.037  0.0957  0.2366  0.2874
23371W        W42225  17.308   6.492   1.782  0.1755  0.3606  0.1401
23372W        W42226   2.985   6.193   0.213  0.0649  0.2792  0.0700
23373W        W42227   3.861   5.214   3.747 -0.1672 -0.0879 -0.0345
23374W        W42228  13.151  16.318   0.818  0.0309 -0.0614 -0.0409
23375W        W42229  13.000  11.849  12.007 -0.4969  0.4484  0.0029
23376W        W42230  16.171   4.883  14.112 -0.1102 -0.1452 -0.2795
23377W        W42231  15.490   7.107  13.427  0.0434 -0.0132  0.0223
23378W        W42232   4.783   3.951  13.032  0.0277  0.1422  0.1896
23379W        W42233  17.231  10.134  14.493 -0.1219 -0.3151 -0.0491
23380W        W42234   8.191  16.674  15.678  0.0018 -0.0439 -0.3967
23381W        W42235   1.860  15.218  12.248 -0.1177  0.0504 -0.0878
23382W        W42236   3.894  14.460   2.186  0.1327 -0.1899  0.0258
23383W        W42237   7.560   9.230   2.346  0.1687 -0.2293  0.1859
23384W        W42238   7.277  13.445  15.859 -0.2627 -0.3197  0.1169
23385W        W42239   3.770  16.871   1.136  0.1101  0.1631 -0.2244
23386W        W42240   3.656  12.613   5.675 -0.0559  0.0988 -0.0581
23387W        W42241  17.021   9.836  15.506 -0.0851 -0.2814 -0.1907
23388W        W42242  11.564   5.994   1.896 -0.0475  0.0140 -0.0806
23389W        W42243  11.662   4.343  12.268 -0.0277 -0.2866 -0.0807
23390W        W42244   2.486  15.932  15.369 -0.1600  0.1379 -0.2845
23391W        W42245   2.877   7.736  13.659  0.1340  0.0691 -0.0575
23392W        W42246   8.765   0.544  14.668 -0.1991  0.1468  0.0517
23393W        W42247   5.121   0.709   0.706  0.1917  0.0817  0.1635
23394W        W42248  16.822   0.260   0.611 -0.0239 -0.1809  0.1112
23395W        W42249  14.823  15.097   3.951 -0.0840 -0.2474  0.2241
23396W        W42250   8.463   2.967  13.207  0.0298  0.1917  0.1813
23397W        W42251  12.770   3.661   0.474 -0.0290 -0.1123 -0.0565
23398W        W42252  10.339  15.607  13.642  0.0507  0.2102  0.0777
23399W        W42253  10.742  17.939   4.074  0.4018  0.1439  0.1566
23400W        W42254   2.941  15.733   0.588 -0.1652  0.0108  0.2586
23401W        W42255  12.816  17.105  11.911 -0.1605 -0.1781 -0.1549
23402W        W42256   2.755  18.002   3.724  0.0533 -0.0566 -0.0895
23403W        W42257  14.415   0.579   0.441  0.0885  0.0289  0.0059
23404W        W42258   5.814   5.680  12.706 -0.1915 -0.0071 -0.2449
23405W        W42259   0.541   9.156  14.722 -0.1071 -0.2019 -0.0600
23406W        W42260   5.021  13.594   4.677 -0.2479 -0.1591  0.0562
23407W        W42261  11.314   2.243  12.774  0.0745 -0.2289  0.2365
23408W        W42262   3.574   2.399  14.546  0.1277  0.0064  0.0331
23409W        W42263  15.188   7.481   1.740 -0.0484  0.0794  0.1129
23410W        W42264   1.851  10.021  14.591 -0.0841  0.2052  0.2249
23411W        W42265  16.418  17.837   4.244  0.1024  0.0535  0.2332
23412W        W42266   2.696   4.502  13.361  0.0291 -0.2474 -0.0050
23413W        W42267  12.353  16.040   4.188  0.3405 -0.0395 -0.1118
23414W        W42268   3.780   7.388   0.119 -0.0698  0.1135 -0.2475
23415W        W42269  17.454   0.661   2.274  0.0642 -0.0639 -0.2369
23416W        W42270   3.845   7.647  12.839 -0.0470  0.2366 -0.1128
23417W        W42271  15.834   9.101   3.589 -0.4605 -0.1683 -0.3709
23418W        W42272   0.167   0.595  16.209 -0.1675 -0.0427 -0.1168
23419W        W42273  16.360   6.205  15.836  0.2246  0.2918 -0.0758
23420W        W42274  13.988   4.829  14.479 -0.2230  0.1518  0.0480
23421W        W42275   9.413   2.350   3.035  0.3744 -0.0052 -0.0429
23422W        W42276   6.589   7.904   4.249 -0.0426 -0.1918  0.2818
23423W        W42277   1.031  16.809  15.706  0.0473 -0.1615 -0.1103
23424W        W42278  15.010   6.110   3.957  0.3954  0.2607 -0.0244
23425W        W42279  14.638  16.953   3.002 -0.2439  0.2115 -0.0796
23426W        W42280   5.841  17.402  12.455 -0.2443  0.0677 -0.1171
23427W        W42281  13.957   2.496  11.865  0.3189 -0.1063  0.1718
23428W        W42282   9.446  13.294   0.237 -0.1129  0.0297 -0.2023
23429W        W42283   0.019   1.122  13.667  0.0006 -0.0383  0.0126
23430W        W42284   2.236  10.868  13.744  0.2816  0.1844  0.3239
23431W        W42285   6.466   0.115  12.325 -0.1314  0.1808  0.0028
23432W        W42286  11.591   4.548  13.570 -0.1478  0.0884 -0.0483
23433W        W42287   7.984   9.306   5.284 -0.0939 -0.2084 -0.1054
23434W        W42288  10.884   1.116   4.827 -0.1553  0.0447  0.1104
23435W        W42289   3.006   2.934   3.133 -0.2691 -0.1203  0.0297
23436W        W42290  16.580  16.875   5.677  0.1543  0.0665  0.0025
23437W        W42291  13.237  16.845  16.207 -0.2695  0.0261 -0.1716
23438W        W42292   6.128  16.902   1.344 -0.2546 -0.2062  0.0355
23439W        W42293   2.825  10.990  13.163  0.0586  0.1664  0.1593
23440W        W42294  12.373   4.129  14.402  0.0658  0.1562  0.1365
23441W        W42295   1.078   3.704   2.718 -0.0071 -0.0119 -0.2033
23442W        W42296  10.238   6.365   2.886 -0.0909  0.3243 -0.1487
23443W        W42297  15.646   4.132  12.728  0.2836 -0.0642  0.1118
23444W        W42298   2.953  13.209  15.969  0.1658 -0.1577  0.1395
23445W        W42299  15.650   3.022  13.960 -0.2157 -0.0588 -0.1458
23446W        W42300  11.327   9.282   3.015 -0.1169 -0.2851  0.0362
23447W        W42301  12.979   0.024   0.057  0.0501  0.1280 -0.2804
23448W        W42302  17.328  15.079  12.381  0.2926  0.2062 -0.1377
23449W        W42303   6.676   5.839   3.634  0.1800 -0.1259  0.1454
23450W        W42304   3.034  16.034  12.671  0.0544  0.1327 -0.0721
23451W        W42305   7.649   9.129  13.604 -0.0964 -0.1235  0.2218
23452W        W42306  13.861   4.969  15.763  0.3244 -0.0426 -0.0159
23453W        W42307   3.706  11.920  14.700  0.0832  0.1110  0.3032
23454W        W42308   7.116   2.475   1.813  0.0439 -0.0060 -0.1309
23455W        W42309  16.282  14.795  12.107  0.1798 -0.1369 -0.0577
23456W        W42310  15.358   6.985  11.445 -0.1441 -0.0730 -0.0646
23457W        W42311  16.427   9.413  11.453 -0.0299 -0.0754 -0.0217
23458W        W42312   0.877   6.769  13.946  0.1826  0.2827 -0.0602
23459W        W42313   2.452   1.832   0.792  0.2970  0.2467  0.2739
23460W        W42314   5.278  16.660  15.887  0.0282  0.2196 -0.2543
23461W        W42315   4.813  11.156   1.757 -0.1683 -0.5108  0.0687
23462W        W42316   2.962  16.191  12.127 -0.1207 -0.0552 -0.2838
23463W        W42317  15.983   1.835  14.120  0.5042 -0.1004 -0.1768
23464W        W42318  12.162   5.784  14.712 -0.1679  0.4685 -0.1218
23465W        W42319   2.658   2.818   3.906 -0.1462 -0.2363  0.0574
23466W        W42320   3.050   1.047  10.624 -0.0021 -0.0816 -0.3006
23467W        W42321   9.952   5.011  11.885  0.0735 -0.3087  0.3451
23468W        W42322   9.749  11.026  14.190  0.4683  0.0727  0.2046
23469W        W42323   0.636  16.473  15.792 -0.1598  0.1510  0.2605
23470W        W42324   2.618   9.713   1.525  0.0452 -0.1481  0.0268
23471W        W42325   2.535   6.778  10.748  0.4705 -0.0696  0.0730
23472W        W42326  14.575   6.284   1.472  0.0026 -0.0325  0.1640
23473W        W42327   4.790  12.675  10.431 -0.1543 -0.3270  0.1739
23474W        W42328  17.263   4.727   1.236  0.0144 -0.0102  0.0096
23475W        W42329   0.131  15.637   4.445  0.3153  0.1907  0.0407
23476W        W42330   0.977  10.884   0.495 -0.2904 -0.2411 -0.0729
23477W        W42331  11.580  13.839   0.721  0.1797  0.2752 -0.3106
23478W        W42332  12.206  14.060   0.249  0.0870 -0.2618  0.2610
23479W        W42333   4.317   9.165  11.622  0.2599  0.0784 -0.1271
23480W        W42334   5.284  16.654   0.150 -0.1695 -0.0382  0.0890
23481W        W42335   9.917  13.256   5.301 -0.3048 -0.0376  0.1032
23482W        W42336  15.553  17.582  11.800 -0.0819 -0.0183 -0.0577
23483W        W42337   5.968  13.168   0.272 -0.0375  0.2873  0.1305
23484W        W42338  14.025  10.383   0.199 -0.0468 -0.0282  0.1056
23485W        W42339  15.652   4.360   2.271  0.5033  0.1123 -0.5267
23486W        W42340   4.602   5.088   3.120 -0.0645  0.1626  0.2421
23487W        W42341  11.902   2.513   2.816 -0.2619  0.0308  0.0914
23488W        W42342   7.239  14.664   1.546 -0.2092 -0.0397  0.1752
23489W        W42343  14.515  16.424   1.643  0.0012  0.1642  0.0539
23490W        W42344   6.936  11.654  13.767  0.0163 -0.1125 -0.2018
23491W        W42345  12.935   4.506   1.638  0.2389 -0.1180  0.1153
23492W        W42346   5.791   8.485   0.797 -0.0575  0.0731  0.0488
23493W        W42347  12.689  12.265   0.487 -0.0480  0.1346  0.1575
23494W        W42348  11.229   7.570  14.463  0.1731 -0.3038  0.1126
23495W        W42349  10.725  11.011   3.144 -0.0069  0.3990 -0.0343
23496W        W42350   0.196  11.099   2.559  0.0188 -0.0073  0.2268
23497W        W42351   1.660  16.524  15.850 -0.0362  0.0620 -0.1215
23498W        W42352  17.517  17.899   1.615  0.4642  0.0297 -0.1075
23499W        W42353   6.919   8.006  11.741 -0.1766  0.0007  0.0452
23500W        W42354   0.473  17.785   1.840  0.1440  0.1315  0.2028
23501W        W42355   9.519  16.894   0.062 -0.2420 -0.0868  0.1765
23502W        W42356  10.120  12.092  15.031 -0.0301  0.0185  0.1570
23503W        W42357  14.723  15.942   1.580 -0.3787  0.4518  0.1917
23504W        W42358   9.299   7.747   0.938 -0.3688 -0.2448 -0.0325
23505W        W42359   4.898   0.243  14.279  0.0040 -0.0157  0.1769
23506W        W42360   2.582  12.208   4.719 -0.1474 -0.1987  0.0085
23507W        W42361   7.089   0.403   1.039  0.1317  0.2171 -0.1575
23508W        W42362   5.275  13.337  15.567 -0.0258 -0.0971  0.4185
23509W        W42363   1.008   5.829  14.360  0.0325 -0.1524  0.1835
23510W        W42364   7.237   1.874  15.986  0.1831  0.3726 -0.1495
23511W        W42365   4.824   5.932   4.722 -0.1319  0.3303  0.1770
23512W        W42366   5.507   6.481   1.389 -0.3030  0.0607  0.0595
23513W        W42367   1.391   6.217  14.313 -0.2199 -0.0939 -0.0671
23514W        W42368   5.032   3.412  13.093 -0.1782  0.2430 -0.2653
23515W        W42369  14.716  11.088  11.868 -0.1091 -0.2989  0.0685
23516W        W42370  14.177   3.896   0.592 -0.0192  0.1445 -0.0674
23517W        W42371  16.825  15.283  13.435  0.2470 -0.0635  0.1538
23518W        W42372  15.467   6.601   3.929  0.0239  0.3493  0.1566
23519W        W42373   3.547   8.801   0.801  0.2672  0.0251  0.2556
23520W        W42374   3.037   1.289  15.417  0.3681 -0.1423 -0.3883
23521W        W42375   4.651  13.898  12.845  0.0493  0.0159  0.0154
23522W        W42376  11.955  17.181   3.497  0.1131  0.0290 -0.3219
23523W        W42377  10.131   6.154  15.482 -0.2650  0.3440 -0.1817
23524W        W42378   0.745  13.201   3.214  0.0250 -0.2887  0.0851
23525W        W42379  15.462   8.537  11.336  0.2108  0.3773 -0.1030
23526W        W42380  10.004   5.565  14.015  0.3707 -0.0947 -0.0085
23527W        W42381  17.599   0.605   0.850 -0.0016 -0.1256  0.0230
23528W        W42382   1.974   8.416  11.997  0.3495  0.1297 -0.1174
23529W        W42383   8.814  13.528  12.979 -0.1396 -0.0152 -0.1450
23530W        W42384   6.678   3.142  15.255  0.0580 -0.2726 -0.1617
23531W        W42385  16.592  10.713   2.016  0.0325 -0.0918  0.0337
23532W        W42386   9.746   3.608   0.442  0.2325  0.0936  0.0447
23533W        W42387  13.053   9.397   5.428  0.0222 -0.0313  0.1344
23534W        W42388   4.757  12.651   2.693  0.0099  0.1599 -0.3203
23535W        W42389   5.827  11.545   1.179  0.1939 -0.0797 -0.1376
23536W        W42390   0.698  12.655  13.003 -0.0305 -0.1061  0.2252
23537W        W42391  15.081   7.313  15.887 -0.0662 -0.0759  0.1297
23538W        W42392   1.278   7.709  13.883  0.1451  0.1224  0.0784
23539W        W42393   3.231   8.861  12.867 -0.0504 -0.0208  0.0161
23540W        W42394   7.460  13.908   4.651  0.1951 -0.1186 -0.1354
23541W        W42395  10.011   7.320  12.448 -0.0447  0.0583  0.0266
23542W        W42396  12.136  16.228  15.913 -0.1951 -0.1583 -0.1806
23543W        W42397  13.526  10.102  15.157 -0.2037 -0.1759  0.0937
23544W        W42398  12.152   9.683   3.732 -0.0389  0.1432  0.0654
23545W        W42399   5.788   9.235  11.859  0.0837 -0.2135  0.0271
23546W        W42400   1.791  13.035  11.554 -0.1445 -0.0706 -0.1600
23547W        W42401  13.983  13.117  14.495 -0.0716 -0.2503  0.2595
23548W        W42402   9.038   8.519  15.229 -0.0912  0.1648  0.0195
23549W        W42403  12.958  11.066   1.911  0.4179 -0.2835 -0.1012
23550W        W42404   8.910   0.962  12.652  0.0078 -0.0639  0.2846
23551W        W42405   2.244  17.899   0.314 -0.1594 -0.2268 -0.0415
23552W        W42406   0.603  13.598   4.572 -0.1597  0.0020  0.0368
23553W        W42407   2.079   3.391   1.332  0.3460  0.3850 -0.1435
23554W        W42408   2.367  12.786   1.072 -0.2567  0.1279  0.1251
23555W        W42409  11.015   6.230  15.232 -0.3137 -0.1581  0.0838
23556W        W42410  12.869   7.606   2.921 -0.1138 -0.2009  0.1557
23557W        W42411   8.273  10.984   5.939  0.0304 -0.0093  0.0916
23558W        W42412   3.564  11.000  15.242 -0.1527 -0.5713 -0.1033
23559W        W42413   4.568   0.785   2.454  0.1623 -0.3043 -0.2383
23560W        W42414   5.391  10.947  13.321 -0.3370 -0.0303 -0.1267
23561W        W42415  16.471   5.164   0.999  0.1870 -0.1860  0.2691
23562W        W42416   4.072   8.393   0.217  0.4503  0.0240  0.3194
23563W        W42417   7.294  11.312   2.610  0.1899 -0.0283  0.2185
23564W        W42418   7.826   3.290   0.885 -0.1292  0.2692 -0.1937
23565W        W42419  12.875   4.256  13.471 -0.2855  0.0006  0.0715
23566W        W42420  16.748   9.806   1.176  0.1355 -0.1535  0.2792
23567W        W42421   7.770   1.704  15.989  0.3242  0.1360 -0.3664
23568W        W42422   4.533   6.913  13.639 -0.1504  0.3351 -0.0431
23569W        W42423   9.723   3.624  14.093 -0.2793  0.1604  0.0871
23570W        W42424  16.972   5.462  14.318 -0.0397 -0.1859  0.1239
23571W        W42425   9.322  17.598   0.779  0.0188 -0.0213  0.1701
23572W        W42426   2.850   7.253  16.222 -0.2006 -0.0123 -0.1658
23573W        W42427   3.268  12.182  11.919  0.1621  0.2164 -0.1548
23574W        W42428  13.038  12.585   0.606 -0.1169  0.0370 -0.4261
23575W        W42429   5.994   3.015  12.287 -0.1416 -0.1188  0.2007
23576W        W42430   5.346   9.112   0.201 -0.2794 -0.0991  0.1083
23577W        W42431   4.601   2.198   2.319  0.0573  0.4526 -0.0369
23578W        W42432  15.386   4.026   4.843 -0.1435  0.1355 -0.1256
23579W        W42433   4.996   4.053  12.140 -0.1969  0.1715  0.1065
23580W        W42434   9.740  14.888   2.663  0.0986 -0.0987 -0.2116
23581W        W42435   8.734  11.021  15.254 -0.3160 -0.0415 -0.0304
23582W        W42436   4.486   1.228  12.697 -0.0448  0.2067 -0.0165
23583W        W42437   6.370  14.010   1.179  0.0428  0.3342  0.0125
23584W        W42438  15.995  14.599   5.051  0.0575  0.0390 -0.1639
23585W        W42439   6.379   2.484  12.486 -0.1435 -0.0897  0.0467
23586W        W42440   7.060   7.492  14.726 -0.2003 -0.0375 -0.2860
23587W        W42441  13.930   4.242  13.600 -0.2323 -0.3319 -0.3860
23588W        W42442   9.115  13.995  13.385 -0.0716 -0.0281  0.1712
23589W        W42443  14.310   7.786  14.935  0.1033  0.3863  0.0527
23590W        W42444  15.378   2.611  15.112  0.2317  0.0925 -0.0687
23591W        W42445   5.782  14.946  16.176 -0.0779  0.0338  0.0270
23592W        W42446  10.881  14.724  12.905 -0.1072  0.0407 -0.2032
23593W        W42447  12.223  11.299   0.997  0.3108 -0.0641 -0.1090
23594W        W42448   5.607  10.158   3.119  0.0046 -0.1632  0.0559
23595W        W42449   9.848  13.973   2.429 -0.0350 -0.1299  0.0341
23596W        W42450   7.269   8.187  12.785 -0.0888 -0.1211 -0.2513
23597W        W42451   4.811   8.318   2.096  0.0038  0.0044  0.0546
23598W        W42452   2.591  16.058  12.480  0.0955 -0.1816 -0.2148
23599W        W42453  14.110   6.280  15.842  0.0682  0.0912  0.0154
23600W        W42454  11.355   9.850   1.323 -0.0129 -0.2084  0.1870
23601W        W42455   3.427   0.657  15.054  0.0349  0.1648 -0.0476
23602W        W42456  17.067   6.916   2.052 -0.0758 -0.0430  0.2417
23603W        W42457  12.777  16.647   0.147 -0.3019 -0.1422  0.1145
23604W        W42458  16.409  14.368   0.636 -0.0550 -0.0168 -0.5331
23605W        W42459   5.690   5.111  15.353 -0.1039 -0.0142 -0.0142
23606W        W42460   1.161   1.692   3.320 -0.0077 -0.0654 -0.2781
23607W        W42461   0.407   3.831   3.697 -0.0315  0.1210  0.2717
23608W        W42462   2.021  12.922   4.169 -0.0695  0.2457 -0.0056
23609W        W42463   0.368  13.632   1.396  0.1670  0.1143 -0.2575
23610W        W42464   6.732  13.123   3.551 -0.2065 -0.2951 -0.0303
23611W        W42465   6.498  14.170   3.574 -0.0215 -0.0147  0.1418
23612W        W42466   8.098   7.508  11.278 -0.0547  0.0084 -0.3057
23613W        W42467   7.730  17.587  15.089  0.2851 -0.2066  0.3973
23614W        W42468   9.740   3.496   1.411  0.3390 -0.1764 -0.1215
23615W        W42469   5.166  12.414   0.248 -0.0713  0.1973 -0.3720
23616W        W42470  15.274   2.363  12.837 -0.0090 -0.2410 -0.0663
23617W        W42471  16.569  11.634  11.930  0.1273  0.0394  0.2256
23618W        W42472   2.506   7.236   4.467  0.0864  0.2348 -0.2572
23619W        W42473   6.135   8.814   0.039  0.1225 -0.2494  0.1214
23620W        W42474   8.746   7.579   3.646  0.3317 -0.0207 -0.3061
23621W        W42475  11.774   6.442  15.818 -0.0418 -0.0870 -0.0226
23622W        W42476  18.018  13.787  13.269 -0.0280  0.0061 -0.2205
23623W        W42477   6.863  16.505   5.470 -0.2339 -0.0195  0.0688
23624W        W42478   6.757  17.239   4.843  0.0300 -0.2353 -0.0254
23625W        W42479   9.538  10.616  13.936  0.0316 -0.0527 -0.2163
23626W        W42480  15.375   4.440   4.545 -0.2234  0.0564 -0.0867
23627W        W42481  12.289   0.599   3.786  0.1231  0.0994 -0.0628
23628W        W42482   9.674  13.400   1.073 -0.0876  0.2161  0.0947
23629W        W42483  16.631  17.698   3.632  0.2151 -0.2319  0.3268
23630W        W42484  16.004  10.719  15.232  0.0217 -0.1332 -0.0933
23631W        W42485   5.443   5.772  12.397 -0.0528 -0.0875 -0.0074
23632W        W42486  15.293  15.605  15.187 -0.0621  0.1515 -0.1886
23633W        W42487  10.810  10.537   2.945 -0.0708 -0.1954 -0.2555
23634W        W42488   6.089  16.789  15.819 -0.2072  0.0718 -0.3035
23635W        W42489  16.081   9.506   4.614 -0.1746  0.4092 -0.0554
23636W        W42490   8.161   4.386   2.855  0.0191  0.0456 -0.0426
23637W        W42491  10.636   1.457   0.724  0.1097 -0.0022  0.2144
23638W        W42492   0.729  17.654  15.179 -0.1065 -0.1219 -0.0179
23639W        W42493  16.368   3.508   0.011  0.1124  0.3363 -0.0674
23640W        W42494  16.654  15.583  13.805  0.0847  0.0597  0.1344
23641W        W42495   0.012   0.099   2.816  0.1102  0.1810 -0.2620
23642W        W42496  12.896  13.074  14.249 -0.0820  0.0756 -0.1401
23643W        W42497   1.611  15.170   4.267  0.0188 -0.1369 -0.0279
23644W        W42498   5.138   5.512   0.615 -0.1341 -0.0249  0.2030
23645W        W42499   6.678  13.416  13.202  0.1137  0.0752  0.2044
23646W        W42500   0.390  11.072  12.139 -0.3317 -0.3133 -0.0298
23647W        W42501  13.976  10.191  15.582  0.2576 -0.1719  0.1672
23648W        W42502  17.997   6.220  10.055  0.0390 -0.0857 -0.1440
23649W        W42503   0.462  15.112  11.769  0.0627  0.0073  0.0290
23650W        W42504   2.921   7.145  10.722  0.1847 -0.2113 -0.1557
23651W        W42505   6.022   4.490  14.109  0.2905  0.0247 -0.2018
23652W        W42506   9.400  10.333   4.133 -0.1697  0.1650  0.0513
23653W        W42507  11.118  15.541   2.977  0.4163  0.1860  0.0163
23654W        W42508  15.881   9.797   0.851 -0.1063  0.0781  0.0662
23655W        W42509  16.334   5.744  16.139  0.2590  0.3602  0.1480
23656W        W42510  14.590   5.673   2.455  0.0625 -0.0088 -0.0072
23657W        W42511  13.416   1.730  15.925  0.0766  0.1378  0.2284
23658W        W42512  14.073   8.798  12.394 -0.2738  0.0140  0.2472
23659W        W42513  17.778  13.219  15.017  0.3164  0.2014  0.1049
23660W        W42514  17.499   4.749  11.842 -0.0024  0.1208 -0.1992
23661W        W42515   4.367   5.270   3.655 -0.3061  0.1748  0.1488
23662W        W42516  14.488   1.581  16.047 -0.4157 -0.2134  0.2777
23663W        W42517  14.558  10.406  14.779  0.0866  0.0065 -0.1342
23664W        W42518  14.357  12.983  15.273  0.0585 -0.0668  0.2025
23665W        W42519  15.123   2.092  13.255 -0.4841  0.1145  0.0107
23666W        W42520  16.142   0.263   4.056  0.1025 -0.1175 -0.1069
23667W        W42521   4.743  15.047  14.204 -0.0980  0.0196 -0.1155
23668W        W42522  10.077   6.537  14.982 -0.2874 -0.1454  0.0735
23669W        W42523  11.844  17.300   1.092  0.1626  0.2382  0.0322
23670W        W42524  16.872  16.946   1.795 -0.1629 -0.0412  0.3247
23671W        W42525   3.001   5.866  12.149 -0.0211 -0.0723 -0.1745
23672W        W42526   5.050   9.836  15.233  0.0990  0.2886 -0.0362
23673W        W42527  14.121  17.372  13.775  0.2787  0.1154  0.2779
23674W        W42528   7.181   4.836  12.945  0.1177  0.0139  0.1397
23675W        W42529  13.425  14.355   2.812  0.0297  0.0206  0.0175
23676W        W42530   6.278  12.120   2.414 -0.1180 -0.2103 -0.0577
23677W        W42531   7.604   9.950   4.155 -0.1644 -0.4635 -0.1715
23678W        W42532  17.882   0.182  14.540 -0.1451 -0.0215  0.1311
23679W        W42533   5.037   5.772   1.054 -0.1269  0.1883 -0.0151
23680W        W42534   9.013   1.316  12.277 -0.1158  0.0740 -0.0721
23681W        W42535  16.385   7.738  14.165 -0.0933  0.2896  0.1494
23682W        W42536  13.445   8.187  14.125  0.0752  0.1148  0.3256
23683W        W42537  11.584   0.913   1.329  0.0943  0.0425  0.0685
23684W        W42538  16.061   5.107  12.761 -0.2375 -0.0197  0.2056
23685W        W42539  17.697  10.746  12.020 -0.1047 -0.1328 -0.1526
23686W        W42540   4.063   1.659   0.361 -0.1667 -0.3362  0.1193
23687W        W42541   6.227   5.030   0.513 -0.0483  0.1661  0.2879
23688W        W42542   8.501   0.761  13.278 -0.0735 -0.1043  0.0263
23689W        W42543   5.979  14.238   3.325  0.1237 -0.1198  0.1056
23690W        W42544  16.680  13.438   0.089  0.0931 -0.1052  0.0391
23691W        W42545  13.424   6.846  14.982  0.2147 -0.2391 -0.1184
23692W        W42546   0.352   3.780  15.052 -0.0279 -0.1148 -0.0957
23693W        W42547  13.176   3.932  10.955 -0.0938 -0.1148  0.1884
23694W        W42548   3.579  10.483  15.527  0.0901 -0.1273 -0.1306
23695W        W42549   3.325  11.737  12.183  0.0953 -0.0074  0.0743
23696W        W42550   8.974   3.913   0.736 -0.1611  0.3801 -0.0353
23697W        W42551  14.415   1.375   0.893  0.1069  0.1215 -0.0633
23698W        W42552  11.311  16.914   2.298 -0.0587 -0.0039  0.1975
23699W        W42553   7.683   0.228  12.432 -0.1920 -0.1752  0.0223
23700W        W42554  17.572  10.513  14.893 -0.1249  0.1634  0.0696
23701W        W42555  11.712  14.904   0.358 -0.0286  0.1869  0.0416
23702W        W42556  13.635   5.900   4.570 -0.2767  0.0003  0.0384
23703W        W42557  15.971  15.821   3.875  0.1768 -0.1827  0.2107
23704W        W42558   5.804   0.602  14.083 -0.0323  0.0884 -0.2878
23705W        W42559  15.321  11.491  14.025 -0.0952  0.1352 -0.0676
23706W        W42560  10.236  14.542  15.687  0.1346  0.0544  0.2984
23707W        W42561  15.004  11.983   4.058 -0.2148 -0.0741  0.2012
23708W        W42562   2.845  15.132   4.344  0.1233 -0.0820 -0.4420
23709W        W42563  11.156   8.046   3.148 -0.1021  0.3088  0.1772
23710W        W42564   6.740   9.271   1.199  0.0670 -0.1783  0.1331
23711W        W42565   4.599   6.859  12.974  0.1489 -0.0935  0.0739
23712W        W42566   8.325  14.292   3.334  0.1089  0.2869  0.1190
23713W        W42567   6.059   4.694  14.603  0.2150 -0.0774 -0.1347
23714W        W42568   7.089  12.176   0.550 -0.2392  0.1607  0.1748
23715W        W42569   4.701   2.964   2.567 -0.1821  0.1864  0.0589
23716W        W42570   1.243   0.949  13.629 -0.1534 -0.1334  0.1973
23717W        W42571   4.563  13.736   4.596 -0.3412 -0.1438 -0.2307
23718W        W42572  17.562   1.337   1.624  0.2441 -0.1118 -0.3541
23719W        W42573   9.059  12.933   1.324 -0.0830  0.2992 -0.0849
23720W        W42574   0.428  12.035   2.647 -0.1111 -0.1225  0.0177
23721W        W42575  14.121  11.410   2.562  0.1281 -0.1736  0.0705
23722W        W42576   1.967   2.663  15.435  0.0818 -0.1779  0.0295
23723W        W42577   8.226   8.291  15.714  0.0263  0.1191  0.1854
23724W        W42578  12.840  16.731  12.328  0.3310  0.1154  0.2245
23725W        W42579   0.349   0.982   3.066  0.1528 -0.2389 -0.0381
23726W        W42580   8.986   4.940   4.513  0.2934 -0.0055  0.1870
23727W        W42581  17.121  17.908   0.318  0.1419 -0.3911 -0.0492
23728W        W42582  13.492   6.191  12.783 -0.0856  0.0654  0.1673
23729W        W42583  15.909  16.103  13.948 -0.1712 -0.0076 -0.3029
23730W        W42584   3.838  16.664   3.439 -0.0295 -0.1384  0.0948
23731W        W42585   4.533   7.274  12.244  0.1608  0.0976 -0.0345
23732W        W42586   9.424   7.157  15.081  0.1487  0.1093  0.2551
23733W        W42587  14.150   0.222   0.199 -0.1915  0.1672 -0.0666
23734W        W42588   2.565   9.481   0.983  0.0964 -0.0949 -0.2261
23735W        W42589   1.829   4.544  14.477  0.0835  0.2659 -0.3117
23736W        W42590   5.770   3.739   4.494  0.1972  0.0647  0.0623
23737W        W42591   1.539   7.251  15.244  0.1525 -0.0163 -0.0580
23738W        W42592   0.008  12.898   5.007  0.0148 -0.3221  0.3901
23739W        W42593  10.236   9.948  15.002  0.0280  0.2637  0.2721
23740W        W42594   9.147   9.817  15.773 -0.1428 -0.0258 -0.0234
23741W        W42595   8.373   5.742   0.495  0.3442 -0.2543 -0.0881
23742W        W42596  11.192  11.750   3.460 -0.2080  0.0827  0.0189
23743W        W42597  12.664   9.519  15.327 -0.1103 -0.1036  0.2972
23744W        W42598   0.642   5.833   2.776 -0.0804  0.0778  0.3345
23745W        W42599   8.470  10.141  12.453 -0.0388 -0.1678  0.2343
23746W        W42600   3.310   7.117  12.484 -0.2384 -0.1384 -0.3458
23747W        W42601  16.438   2.362   3.816  0.1859  0.2353 -0.0720
23748W        W42602   1.478  17.696   0.129 -0.2300 -0.3118  0.1291
23749W        W42603  14.827   8.433  14.497 -0.4110  0.1625 -0.0242
23750W        W42604   1.175   1.345  12.811 -0.3877 -0.1146  0.1746
23751W        W42605   3.424   8.280   1.654 -0.2478  0.1199 -0.0425
23752W        W42606  14.084   2.560  13.103 -0.1928 -0.1243  0.1116
23753W        W42607   3.901   4.203  11.474  0.1080 -0.1215  0.1707
23754W        W42608   6.217   4.694  13.686  0.2954 -0.0246  0.0817
23755W        W42609   9.039  14.385  11.747  0.1852 -0.2013 -0.1050
23756W        W42610   8.517   2.438  13.709 -0.1312  0.1832 -0.1808
23757W        W42611  16.166  10.860   3.341  0.3485  0.0841 -0.1602
23758W        W42612   0.037   0.936  15.398 -0.0299  0.1035 -0.1408
23759W        W42613  11.032   6.032   1.997 -0.0616 -0.0571  0.0761
23760W        W42614  15.328   0.429  14.163  0.1888 -0.0383  0.0773
23761W        W42615   6.300   3.243  11.444  0.0020 -0.1722 -0.3410
23762W        W42616  12.224   4.640  11.730  0.0296 -0.3162 -0.0309
23763W        W42617   8.890  14.993   0.462 -0.1143 -0.1795  0.1592
23764W        W42618   1.799   7.128  11.806  0.0085 -0.2918 -0.0844
23765W        W42619   3.895  11.638   4.866 -0.0440 -0.0363  0.1502
23766W        W42620   7.195   1.979  14.358  0.1318 -0.2101  0.0739
23767W        W42621   7.787   8.102  16.106  0.2488  0.2399  0.2290
23768W        W42622   4.771  16.702   2.137  0.2245 -0.0404 -0.2014
23769W        W42623  11.478  13.315  11.630 -0.0348  0.0804  0.1267
23770W        W42624  11.550  12.833   4.193 -0.1448  0.2129  0.1171
23771W        W42625  10.900  14.960   4.190 -0.3526  0.0706 -0.1496
23772W        W42626  10.795   4.651   3.405  0.0646 -0.3108  0.2088
23773W        W42627   0.830   0.118  14.393 -0.3170  0.2250  0.3114
23774W        W42628   3.363  16.755   3.290  0.0139  0.1123 -0.5557
23775W        W42629  14.620  17.512  13.464 -0.0773 -0.2312 -0.1891
23776W        W42630  16.220  16.171   0.516  0.2491 -0.0867 -0.1422
23777W        W42631   2.889  15.060  12.750 -0.1026  0.0338 -0.0769
23778W        W42632  12.570   1.978   2.272 -0.1718  0.0027 -0.0995
23779W        W42633   8.171   6.424   3.375  0.1384 -0.2962  0.0447
23780W        W42634  14.482   3.142   1.583  0.2874  0.0253  0.1602
23781W        W42635   9.448   6.777   3.707  0.2622  0.0169 -0.0168
23782W        W42636  11.819   2.870   1.667 -0.0708 -0.0668 -0.0628
23783W        W42637   4.766   1.021  13.041 -0.0524  0.1275 -0.0263
23784W        W42638   7.355   9.870   4.967  0.1449  0.0012 -0.1104
23785W        W42639  15.851   5.339   3.768 -0.0359  0.3831  0.0644
23786W        W42640  15.571  16.406   2.717  0.4792 -0.0816 -0.1091
23787W        W42641   8.423  13.459  13.466  0.0280  0.2059  0.0042
23788W        W42642  17.327   3.805   4.271 -0.0426  0.0924 -0.2459
23789W        W42643   8.765   6.541   1.715 -0.3049 -0.1982 -0.0434
23790W        W42644   8.377   9.051   1.605  0.2265 -0.2652  0.0047
23791W        W42645  11.368   0.133  15.360  0.1300 -0.1138  0.0733
23792W        W42646  11.228  14.884  13.336 -0.1005  0.2292 -0.1645
23793W        W42647   5.373  11.696   0.943  0.0061  0.2142 -0.0343
23794W        W42648  11.056  16.000  12.969  0.0764  0.1446  0.0508
23795W        W42649   6.146  14.417  14.689 -0.0601  0.1464  0.1200
23796W        W42650  11.868   7.114  12.630 -0.0139  0.0529 -0.0071
23797W        W42651  12.622  14.289   0.311 -0.0046  0.2035 -0.1405
23798W        W42652   9.070   2.129   3.655 -0.1095  0.2811  0.0453
23799W        W42653   5.895  11.707  13.688 -0.0350 -0.2794 -0.0561
23800W        W42654   9.620   3.081  12.423 -0.2112 -0.0608  0.0964
23801W        W42655  17.687   3.416  12.667 -0.1228 -0.1380 -0.1454
23802W        W42656  13.066   5.174  11.749 -0.1252 -0.0681 -0.0076
23803W        W42657  17.045  15.599  16.048 -0.0123 -0.1851 -0.1062
23804W        W42658  16.162   1.281   3.813 -0.1089  0.0774 -0.0240
23805W        W42659  12.674  15.859  11.259 -0.0750 -0.1517  0.1312
23806W        W42660   8.741   8.490  14.428  0.0620  0.1307  0.1122
23807W        W42661  14.923  15.953  13.057  0.0245  0.2671 -0.2249
23808W        W42662   5.548   1.099   4.887  0.1204  0.4105 -0.0426
23809W        W42663  16.241   5.018   3.900  0.1283 -0.2305  0.0150
23810W        W42664  17.936  15.626   2.652 -0.0596 -0.2238  0.1133
23811W        W42665  13.688  18.028   0.435  0.0093  0.1644 -0.1652
23812W        W42666  15.017  15.852  13.629  0.1890  0.1577  0.3487
23813W        W42667   4.808   4.712  14.466 -0.0349  0.3008 -0.2070
23814W        W42668   2.710   7.083   3.053  0.0025 -0.0868  0.1589
23815W        W42669   0.339   7.687  13.683  0.0118  0.3102  0.4529
23816W        W42670  16.289   5.654   2.663  0.2372 -0.2657 -0.1017
23817W        W42671   7.009  16.672  13.479 -0.0575 -0.1439 -0.1794
23818W        W42672   1.989   9.827  13.371  0.0965  0.1011 -0.0638
23819W        W42673   6.400   6.043  14.154  0.2111  0.1588  0.1156
23820W        W42674   1.830   5.666  12.821 -0.0891 -0.2142  0.0185
23821W        W42675   6.745   5.523   2.296 -0.0036  0.0324  0.1014
23822W        W42676   0.131   9.663  15.652  0.0616  0.0805  0.1661
23823W        W42677   9.057  17.638  13.573  0.0174 -0.2620 -0.0043
23824W        W42678   4.770   5.208  13.424 -0.3195  0.4552  0.1677
23825W        W42679  16.921   2.768   4.502 -0.0225 -0.2225  0.2001
23826W        W42680  12.552   7.983   2.216  0.1405  0.0401  0.2645
23827W        W42681  10.473   9.070   2.644  0.2022  0.3347  0.3694
23828W        W42682  11.440   9.125   3.952 -0.0598  0.2006 -0.2592
23829W        W42683   8.605  12.425  10.766 -0.1193 -0.1566 -0.2898
23830W        W42684   5.276   5.081   4.451 -0.0523 -0.2417 -0.0991
23831W        W42685   3.457   0.314   1.140  0.2531  0.0680  0.1216
23832W        W42686   1.671  14.075   3.449  0.3052 -0.2766 -0.1272
23833W        W42687  10.719   5.049   0.081  0.1017  0.0259 -0.1475
23834W        W42688   6.748  15.978  15.742  0.1934  0.1836 -0.2671
23835W        W42689  10.257   9.887   4.556  0.1494 -0.1764  0.0779
23836W        W42690  11.289  14.433  13.024  0.1100 -0.0817 -0.5378
23837W        W42691  14.986   9.426  12.587  0.1688 -0.1036 -0.0326
23838W        W42692   8.559  12.308  15.618  0.2074  0.1767  0.2254
23839W        W42693  17.002   9.249   0.485  0.1552 -0.0597  0.0841
23840W        W42694   2.300  17.670   2.362  0.0531 -0.0647  0.0193
23841W        W42695  16.240   8.389  11.209 -0.3403 -0.1301  0.0981
23842W        W42696  17.581   1.064   2.510 -0.3618 -0.1180  0.0511
23843W        W42697  10.457  17.560   1.614  0.0167 -0.0622  0.3029
23844W        W42698   3.208   5.405  12.338  0.2155 -0.0462  0.0287
23845W        W42699   5.731  10.828   0.972 -0.1607  0.1792  0.3090
23846W        W42700  17.327   9.872   1.782 -0.1652 -0.0389  0.1501
23847W        W42701   3.314  17.970  11.795 -0.4595 -0.1520  0.0442
23848W        W42702  10.994   1.246  11.807 -0.2848  0.1433 -0.1305
23849W        W42703   5.728   3.603   2.013 -0.0426 -0.0850 -0.0215
23850W        W42704  10.857   7.094   4.114  0.1155  0.0272  0.0968
23851W        W42705  10.894  11.426   1.267  0.1714  0.0466 -0.2538
23852W        W42706   9.482  14.895   3.853 -0.3282 -0.0060  0.0623
23853W        W42707   5.114   1.551   2.097  0.0970 -0.1952  0.2427
23854W        W42708  14.501   3.646  13.895 -0.2276 -0.1345 -0.1286
23855W        W42709  10.906   0.172   3.376  0.3572 -0.0566 -0.1487
23856W        W42710   4.997   4.298   2.149 -0.2422 -0.1610 -0.0906
23857W        W42711   0.417   8.251   2.449 -0.2793 -0.0247 -0.1375
23858W        W42712   7.483   7.358   1.340 -0.0270  0.2598  0.2336
23859W        W42713   0.770  17.191   0.700 -0.3355  0.1495 -0.1281
23860W        W42714   9.669   4.916  12.783 -0.0420 -0.1457 -0.0994
23861W        W42715   5.170  11.812   4.597 -0.2594 -0.1101 -0.2363
23862W        W42716   0.681   4.836   3.626  0.0404 -0.0597 -0.1603
23863W        W42717   5.535   8.699   1.454  0.0426  0.0781 -0.0622
23864W        W42718  11.914   2.367   1.747 -0.4850 -0.2814  0.0608
23865W        W42719  13.475   1.174  13.822 -0.1527 -0.3143 -0.0553
23866W        W42720  12.144  13.559  14.662  0.0701 -0.1912 -0.1134
23867W        W42721  12.849   6.679   2.521 -0.1728 -0.0251  0.2343
23868W        W42722   3.121  13.137  14.907 -0.0604  0.0074 -0.0655
23869W        W42723  14.802  14.520  12.356  0.1955 -0.3530  0.1222
23870W        W42724   8.759   5.561   3.341  0.2103  0.2218  0.0685
23871W        W42725   3.087   4.619   1.044  0.4109  0.0431  0.1358
23872W        W42726   7.206  14.796   2.045 -0.0191  0.0012  0.1111
23873W        W42727  11.715   3.373   1.730  0.0626  0.0429  0.0665
23874W        W42728   8.616  10.106  11.991 -0.2179  0.0502  0.0332
23875W        W42729  12.116   4.180   5.343  0.0885  0.1150 -0.1143
23876W        W42730   6.289   4.435   1.668 -0.1869  0.0166 -0.1224
23877W        W42731  13.599   2.160   4.651  0.0339  0.0264  0.0672
23878W        W42732   7.977  11.065   4.102 -0.0088 -0.0433 -0.0546
23879W        W42733   1.582  14.402   1.155  0.3738  0.0678  0.0277
23880W        W42734  10.064   9.939  15.461  0.0895 -0.0302  0.0624
23881W        W42735   1.316  17.920  15.968  0.2033 -0.2154  0.0409
23882W        W42736   0.549   4.224   5.268  0.1691 -0.3618  0.0317
23883W        W42737  15.829  14.878   2.858  0.0988 -0.2702 -0.1754
23884W        W42738  16.633  11.212   1.757  0.2587  0.1724  0.3819
23885W        W42739   8.162   8.919   0.060  0.0681  0.3122  0.0929
23886W        W42740  13.015  13.911   3.954 -0.0882 -0.0224 -0.1596
23887W        W42741  12.064   6.363   3.178 -0.0409  0.1619  0.2315
23888W        W42742   1.995  12.525  11.428 -0.1627  0.1030  0.1172
23889W        W42743  11.676   7.242  15.255 -0.0148 -0.2173  0.0419
23890W        W42744   0.641   5.725  13.824 -0.0604  0.1035  0.1253
23891W        W42745   2.683   5.236   2.885  0.0179 -0.2447 -0.0626
23892W        W42746   8.090   1.209   4.525  0.0054  0.0019 -0.0252
23893W        W42747  11.889  10.070   1.871 -0.0885 -0.0647  0.0766
23894W        W42748   5.954  12.789  16.183 -0.0569  0.1448 -0.2187
23895W        W42749   4.215  12.407   2.601 -0.4542 -0.1806 -0.2452
23896W        W42750   8.770  15.628  12.602  0.0245  0.0339  0.3088
23897W        W42751  12.724   4.288  15.463 -0.0171 -0.0942  0.1904
23898W        W42752  16.759  11.454  14.465  0.0038  0.1835 -0.1234
23899W        W42753   6.542   0.515   0.898 -0.2744 -0.1356  0.0460
23900W        W42754   9.987  14.029   4.722 -0.1158 -0.0997  0.1466
23901W        W42755  13.682  17.796   1.357  0.1724 -0.2110 -0.2666
23902W        W42756  17.579   9.313   0.010 -0.0577 -0.0951  0.1316
23903W        W42757  13.057   9.307  15.094 -0.0164  0.1450 -0.1516
23904W        W42758   0.040  15.139   4.562 -0.1538 -0.1574  0.2846
23905W        W42759   5.180   0.951   3.904 -0.3090  0.1894 -0.2644
23906W        W42760  11.542   5.536   1.638 -0.1556 -0.0616  0.1592
23907W        W42761  13.922   4.704  12.677  0.0765  0.0172 -0.1417
23908W        W42762  17.491   1.731   4.558  0.0967 -0.2534 -0.0493
23909W        W42763  10.433   2.844   1.432 -0.0012 -0.1563  0.0644
23910W        W42764   2.883  15.210   4.994 -0.0100  0.1537 -0.0496
23911W        W42765  10.722   1.854  15.714 -0.0363 -0.2062 -0.2476
23912W        W42766   3.060  13.680  13.264 -0.6366  0.1406  0.3983
23913W        W42767  15.762   6.154  12.040  0.0145  0.2088 -0.2873
23914W        W42768  12.920  11.702   2.707  0.1677  0.0662  0.0933
23915W        W42769   5.219  17.871  12.008  0.0080  0.1150 -0.0817
23916W        W42770  10.268  11.599   2.514 -0.1403  0.1702 -0.1009
23917W        W42771  18.018   5.910   0.184 -0.2421 -0.1966 -0.0277
23918W        W42772  12.053  11.178   2.842  0.1526 -0.0312  0.1051
23919W        W42773   3.949   4.099  13.105  0.0690  0.0683  0.0452
23920W        W42774  15.599   6.483   2.618  0.0167 -0.3693  0.1214
23921W        W42775  15.332   2.675  15.596 -0.1530  0.3044 -0.1013
23922W        W42776   2.710   6.500   2.095 -0.0448 -0.0347  0.0031
23923W        W42777   1.731   0.009  14.243  0.2254  0.2714 -0.1346
23924W        W42778  14.925   2.509  11.267 -0.0706 -0.2507 -0.0520
23925W        W42779  14.518   5.410  11.139  0.0940 -0.2640 -0.0363
23926W        W42780   9.728   7.891  15.345  0.0010  0.1380 -0.0358
23927W        W42781   5.030  14.728  12.622  0.1411  0.1282 -0.0501
23928W        W42782   9.410  12.663   1.591 -0.2629 -0.1309  0.3148
23929W        W42783   6.750  11.679  16.175 -0.1189 -0.1429 -0.0443
23930W        W42784   1.712   6.099   0.034 -0.2947 -0.2603  0.2294
23931W        W42785   6.143  16.553   4.594 -0.0267 -0.0475 -0.1516
23932W        W42786   0.945  16.029   4.881 -0.2135  0.0080  0.3582
23933W        W42787   3.893   8.826  11.766  0.0166 -0.3291 -0.2423
23934W        W42788   8.202   8.524  15.138  0.0331 -0.0758 -0.0623
23935W        W42789  12.720   9.132  12.288  0.2150  0.0416 -0.2099
23936W        W42790  17.516  13.904   1.977  0.0022  0.0493 -0.2411
23937W        W42791  13.774  14.034   4.652 -0.0978  0.0298 -0.1175
23938W        W42792   6.449   8.479  13.445 -0.1437 -0.4102 -0.0062
23939W        W42793   0.722  10.505   1.827 -0.1621 -0.2453  0.0889
23940W        W42794  16.561   2.692  15.980 -0.0747  0.3420  0.0746
23941W        W42795   6.676  17.759   0.666 -0.2935 -0.0659 -0.0549
23942W        W42796  12.137  12.142  13.724  0.2367 -0.3219 -0.3388
23943W        W42797  12.773   1.077   0.652 -0.1118  0.1776  0.1423
23944W        W42798  11.370   3.894  12.603 -0.0185  0.2704 -0.0497
23945W        W42799   2.704  13.155   1.233 -0.0723 -0.0753  0.2438
23946W        W42800  17.143  11.656   3.762 -0.1214 -0.1317 -0.3211
23947W        W42801  18.031   1.196  12.501  0.0136  0.2067 -0.2369
23948W        W42802  10.369  11.133   3.483 -0.1066 -0.0740 -0.0585
23949W        W42803   9.035   8.423  11.346  0.1761 -0.1850 -0.0187
23950W        W42804  15.638  17.732  13.249  0.1650  0.1439  0.2357
23951W        W42805  16.171  14.974  13.274  0.1121  0.2314 -0.1035
23952W        W42806   5.694  14.375  13.267  0.0186  0.2150  0.1414
23953W        W42807   3.752   1.900   2.640 -0.0341 -0.3403 -0.2901
23954W        W42808  14.949   2.769  14.684 -0.0857  0.0064 -0.0707
23955W        W42809  14.674  14.861   0.895  0.0472  0.1705  0.0437
23956W        W42810   4.253  17.330   3.233  0.1987  0.1082  0.0465
23957W        W42811   8.799   3.158  15.006  0.3144 -0.0774  0.2529
23958W        W42812   8.530   4.405   3.328 -0.2028 -0.0905  0.0716
23959W        W42813   3.083   1.205   0.831 -0.1034  0.0165 -0.3240
23960W        W42814  15.671  13.475   6.029 -0.0164 -0.0605  0.0364
23961W        W42815  14.976   3.490   2.211  0.0155  0.2755 -0.1835
23962W        W42816  12.672   2.311  12.740 -0.0051  0.0038  0.0252
23963W        W42817  16.494   7.408  15.850 -0.1006 -0.0215 -0.2301
23964W        W42818  13.609   4.995   3.788 -0.3396  0.0806  0.2942
23965W        W42819  10.383  14.418   1.719  0.1758  0.3818  0.2176
23966W        W42820   1.416   5.959   3.795 -0.0015 -0.1300  0.1193
23967W        W42821  15.289  15.431   4.286 -0.0586  0.1012  0.0806
23968W        W42822   3.084  11.313   3.452 -0.0693 -0.2179  0.2042
23969W        W42823   2.385   7.446  12.878 -0.0580  0.0826 -0.1095
23970W        W42824   2.581  11.531   2.400 -0.1561  0.1299  0.0248
23971W        W42825  14.986   4.426  11.987 -0.2061  0.2192  0.0775
23972W        W42826  14.950   8.452  15.038  0.0579  0.0063  0.7050
23973W        W42827   3.573   9.158   0.412 -0.0328  0.0889 -0.0605
23974W        W42828   1.991   7.548   2.562 -0.0865 -0.1218 -0.0807
23975W        W42829  10.478   9.833  15.912  0.1500 -0.1625 -0.0542
23976W        W42830   7.494  17.011   3.574  0.1079 -0.0037 -0.3155
23977W        W42831  12.037   1.696  12.382 -0.0751 -0.2459 -0.2207
23978W        W42832   6.479  16.624  13.656  0.1353 -0.0042 -0.0285
23979W        W42833  12.108  17.107   2.502 -0.0392 -0.1596  0.0943
23980W        W42834  11.784  11.390   5.673  0.0018 -0.2586  0.0505
23981W        W42835   8.010   5.476   2.387 -0.3670  0.0840  0.0435
23982W        W42836   0.315  12.221  11.832  0.2611  0.3843  0.1656
23983W        W42837  14.591  16.575   3.592 -0.0519 -0.1953 -0.1302
23984W        W42838   7.137   5.805   3.439 -0.1639 -0.0700  0.2621
23985W        W42839   6.604  16.976  11.899  0.2517 -0.0021  0.0513
23986W        W42840   2.372   9.363  16.078  0.1963 -0.1682  0.4518
23987W        W42841  16.061  16.114  12.610 -0.0448 -0.0985  0.0765
23988W        W42842   8.416  14.921  15.810  0.2285 -0.2149  0.2965
23989W        W42843  15.146  13.703   3.167  0.0498 -0.0077 -0.1601
23990W        W42844  15.409   6.556   0.313  0.2225 -0.1313  0.0134
23991W        W42845  14.910  10.094  16.000 -0.0684 -0.2066 -0.0583
23992W        W42846  12.970   7.922   1.900 -0.0325 -0.1313  0.0871
23993W        W42847   3.279  13.673   1.055  0.0500  0.2203  0.0384
23994W        W42848  17.845   0.913   4.290  0.1782 -0.1157 -0.2768
23995W        W42849   0.396   0.742   1.654 -0.0384 -0.3089 -0.0247
23996W        W42850   7.910   1.512  12.097  0.0572 -0.0844 -0.2744
23997W        W42851  11.810   8.619  12.619 -0.1245 -0.1454 -0.0323
23998W        W42852  17.303   7.213   0.725  0.2395  0.1853 -0.1110
23999W        W42853  11.801  15.719   2.508 -0.3190 -0.1681 -0.0273
24000W        W42854   9.232   0.226   2.529  0.0269  0.1325  0.0867
24001W        W42855   7.701   1.383   0.437 -0.1598  0.2774 -0.0042
24002W        W42856   9.535  15.639  15.151 -0.2017 -0.0977  0.1531
24003W        W42857  15.426  15.245   2.780  0.1277 -0.0896 -0.1512
24004W        W42858  14.334   2.902  14.451 -0.1591  0.0438  0.1771
24005W        W42859  16.154  11.399   2.072  0.1353 -0.0770  0.0621
24006W        W42860  10.615   0.588  13.329  0.0763 -0.0595 -0.1161
24007W        W42861   8.059   7.288  14.704 -0.0854 -0.0522  0.0457
24008W        W42862  11.820   7.091   1.072 -0.1057  0.4087  0.0532
24009W        W42863  14.249   6.654  16.114  0.1574  0.2793  0.0995
24010W        W42864   4.354  10.359   4.576 -0.1626  0.5978 -0.0382
24011W        W42865  16.065   8.821   3.970 -0.0021 -0.0861 -0.1098
24012W        W42866   6.930  14.802   2.485  0.3794 -0.0406  0.1061
24013W        W42867   6.085   0.721   4.088  0.2164 -0.0303  0.3024
24014W        W42868  14.170   9.721   1.090 -0.0214 -0.1257 -0.3788
24015W        W42869   7.085  13.570   0.926 -0.2194  0.0594 -0.1033
24016W        W42870   0.093   3.738   2.215  0.1364  0.1535 -0.0094
24017W        W42871  12.500  16.843   0.910 -0.2236 -0.1127  0.0415
24018W        W42872  15.807   0.968  11.471  0.0037  0.1702 -0.1303
24019W        W42873   5.599   1.601   1.270 -0.0037  0.0981 -0.1405
24020W        W42874  17.256   0.199   0.961 -0.3961 -0.3025 -0.0951
24021W        W42875   9.177   8.335   3.798 -0.2463 -0.1903  0.0486
24022W        W42876  14.303   8.942  13.141 -0.2757 -0.0172 -0.1632
24023W        W42877   4.991   6.157  15.670 -0.0285  0.0923 -0.0440
24024W        W42878  12.468   4.910   5.889 -0.2186 -0.0359  0.3256
24025W        W42879   5.895  11.379  13.302 -0.0673  0.1877 -0.2527
24026W        W42880  11.215   4.644   3.127 -0.1125 -0.0410  0.1840
24027W        W42881   0.992   3.775  15.852 -0.2183 -0.0483 -0.3036
24028W        W42882   2.298  15.949   4.995 -0.3134  0.3640  0.2309
24029W        W42883   3.125  14.383   5.661 -0.3831  0.1076 -0.1007
24030W        W42884  16.284  15.534  13.451  0.0760 -0.0207  0.0075
24031W        W42885  16.645   6.074  13.257  0.1376  0.0766 -0.0940
24032W        W42886   6.810  16.275   1.786 -0.1438  0.1354  0.2103
24033W        W42887   3.548   7.550   3.154  0.0243 -0.1448 -0.0092
24034W        W42888   9.356   4.904  14.180 -0.2304 -0.4082  0.2120
24035W        W42889   1.730   0.945   1.847  0.2739 -0.2985  0.3727
24036W        W42890   4.114  13.173  11.932 -0.2992  0.2567  0.1005
24037W        W42891   2.852  10.017  12.365  0.3429 -0.2132 -0.0180
24038W        W42892   5.099   8.048  12.779  0.0186 -0.4178 -0.2236
24039W        W42893   7.484   8.231   3.566 -0.3969 -0.3310 -0.0690
24040W        W42894   0.578   1.754   0.180 -0.3284 -0.0266 -0.3028
24041W        W42895   5.169  10.917  13.847 -0.2766 -0.2746 -0.2111
24042W        W42896   6.959   6.962  12.332 -0.1962  0.0629  0.1828
24043W        W42897   4.366   9.752   3.634 -0.2276  0.3142  0.1294
24044W        W42898   7.112   8.463   4.767 -0.3166 -0.0256  0.2308
24045W        W42899  16.640   2.999  11.678  0.3116 -0.0226  0.1319
24046W        W42900   2.374   9.185  12.912  0.1592  0.4279 -0.0485
24047W        W42901  16.908   5.759   1.737 -0.5062 -0.2969  0.0863
24048W        W42902   2.771  13.525   1.685 -0.1915 -0.0036  0.1158
24049W        W42903  14.226  11.435  15.714 -0.0708  0.1807 -0.0174
24050W        W42904   1.259  10.996   2.228 -0.0580  0.3568 -0.0982
24051W        W42905  10.380  10.964   4.926  0.0743 -0.0931 -0.4098
24052W        W42906  15.628  13.905   3.881 -0.0843  0.2803  0.2884
24053W        W42907  12.050   3.606  15.423  0.0600 -0.2163  0.1343
24054W        W42908   3.612   9.893   2.582 -0.1091 -0.1043 -0.1157
24055W        W42909  14.668   9.673   2.011 -0.0984 -0.0053  0.0765
24056W        W42910   6.372   7.761  11.763 -0.4034  0.1643  0.0133
24057W        W42911   5.055   3.182   0.523  0.1168  0.1304  0.2065
24058W        W42912   5.037   5.755  14.920 -0.2053 -0.1489 -0.1998
24059W        W42913  16.383  16.616   3.432 -0.0105 -0.1166 -0.1209
24060W        W42914   4.325   0.165   1.065 -0.0547  0.0545 -0.0270
24061W        W42915  13.908  10.101  12.737  0.1410  0.2243  0.2066
24062W        W42916   2.432  13.055   4.460  0.1670  0.1162 -0.0944
24063W        W42917   8.127  12.942  13.512  0.1437  0.0752 -0.2628
24064W        W42918  17.220   6.692   4.269 -0.0765 -0.0716  0.2009
24065W        W42919  17.217  11.290  14.764 -0.0431 -0.2838 -0.0261
24066W        W42920   8.400  13.038  13.087  0.0441 -0.1030 -0.1293
24067W        W42921   4.578   9.966   4.891  0.2965  0.0658  0.0783
24068W        W42922   3.848   5.891  14.833 -0.0804  0.0899 -0.1525
24069W        W42923   2.712   0.951  14.514  0.1444  0.0908  0.0400
24070W        W42924  16.348   8.823  15.535  0.0416  0.0354 -0.1347
24071W        W42925  17.617   5.640  13.121  0.2207 -0.0494 -0.2130
24072W        W42926   7.923  15.600  12.061  0.0983  0.1216  0.3197
24073W        W42927  10.025  17.390   1.239 -0.6008  0.0738 -0.0103
24074W        W42928  13.845   8.647  14.679  0.0152 -0.1040  0.0694
24075W        W42929   8.573   3.552   0.931 -0.0495  0.3541 -0.1338
24076W        W42930   6.463  13.707  14.660 -0.0134  0.1274  0.2147
24077W        W42931   6.575  16.990  13.317  0.1912  0.0684 -0.0429
24078W        W42932   5.675  14.041  12.158  0.0121 -0.4367 -0.0405
24079W        W42933  12.964  15.744   2.840  0.1539 -0.1246 -0.0921
24080W        W42934  16.907   1.522  16.013 -0.0029 -0.1255  0.0295
24081W        W42935  13.649  16.554  13.570  0.0870  0.1437  0.0832
24082W        W42936   6.621  12.012   5.093 -0.0410  0.1331  0.1891
24083W        W42937  11.917  14.735   3.288 -0.3995 -0.3326  0.0477
24084W        W42938  14.720   0.159  15.250 -0.1470 -0.1627  0.2463
24085W        W42939  14.893  10.439   4.259 -0.1040  0.0336 -0.0247
24086W        W42940  16.531  11.919   3.175  0.1624 -0.3332 -0.0418
24087W        W42941   3.338   9.805   3.517  0.1108 -0.1422 -0.2939
24088W        W42942   4.594   8.440  12.572 -0.1978  0.1523 -0.0477
24089W        W42943   3.367  13.055  11.347  0.0546 -0.0520 -0.0469
24090W        W42944  15.433  12.020   2.825 -0.0648 -0.1343  0.1594
24091W        W42945  14.744   7.756   2.982  0.1086  0.0228  0.1301
24092W        W42946   6.843   8.166  15.992 -0.0541 -0.1669 -0.0031
24093W        W42947   3.444  12.635  13.163 -0.0342  0.1404 -0.0595
24094W        W42948  14.379  11.842  15.927  0.1274  0.0446 -0.2261
24095W        W42949  14.408   0.751  13.086 -0.2470  0.0480  0.1552
24096W        W42950   6.002  14.067  11.563 -0.1825 -0.0948 -0.2296
24097W        W42951   7.502   8.367   5.063  0.2078 -0.0715 -0.0440
24098W        W42952   4.965   9.835   1.838  0.1156  0.1904 -0.4553
24099W        W42953   3.434  10.221  14.819  0.2031 -0.0552  0.0058
24100W        W42954   4.014   0.425  13.407  0.2595 -0.1177  0.2278
24101W        W42955   3.309   7.905   3.475  0.0036  0.0238 -0.1483
24102W        W42956  12.761  10.510  15.104 -0.1232 -0.2103  0.2134
24103W        W42957   9.497  17.812  13.658 -0.2872 -0.0604  0.1810
24104W        W42958  17.729  11.700  15.319 -0.1065  0.0100 -0.1205
24105W        W42959  15.892   5.764   3.599  0.0884  0.1057 -0.2705
24106W        W42960  10.157  11.583   3.497  0.0379  0.0743  0.1724
24107W        W42961   4.321  16.787   1.026  0.3107  0.2483  0.0938
24108W        W42962   5.743   4.827  12.956  0.0437 -0.0423  0.2966
24109W        W42963   9.541  13.373  14.124  0.1463 -0.2448  0.0087
24110W        W42964   9.270   8.749   4.068 -0.2586 -0.2568  0.0841
24111W        W42965  16.366   8.590   4.269 -0.0321 -0.0523  0.2231
24112W        W42966   2.633  16.653  12.124  0.1290  0.1390 -0.0885
24113W        W42967   1.132  12.451   2.757  0.0586 -0.1245  0.0073
24114W        W42968  17.393   7.651  14.632  0.0087  0.0353 -0.2289
24115W        W42969   0.996   6.223   4.183  0.2815  0.1484 -0.2619
24116W        W42970  13.797   5.936   0.906 -0.2713  0.0028 -0.1146
24117W        W42971  16.427   7.505   0.624 -0.0142 -0.0527  0.1571
24118W        W42972   8.637   1.219   4.306 -0.2323  0.1308  0.2658
24119W        W42973  10.224  10.140   0.207 -0.5007  0.2098 -0.1443
24120W        W42974   3.184  10.049  15.238  0.1361  0.0745  0.0216
24121W        W42975  12.461   1.731   3.130  0.2052 -0.0225  0.1381
24122W        W42976   4.386   9.799   0.193 -0.1008  0.0295  0.1497
24123W        W42977   2.268   0.469  12.745 -0.0284  0.0946  0.0344
24124W        W42978   5.278   2.968  13.853  0.1219 -0.3748  0.1091
24125W        W42979  14.994  14.875  14.090 -0.0800 -0.1950  0.0946
24126W        W42980   3.617  10.254   3.393  0.0933 -0.0088  0.0586
24127W        W42981   6.241   0.882   4.933  0.1537 -0.1625  0.0122
24128W        W42982  13.554  12.427  13.737  0.0053  0.2310 -0.0948
24129W        W42983   2.170   7.547   1.183  0.0330 -0.1223 -0.0023
24130W        W42984   5.026  17.872   3.889 -0.0289  0.0436 -0.1876
24131W        W42985   0.340   2.568  11.886 -0.0142 -0.1068  0.1245
24132W        W42986   4.350  11.466   4.368 -0.0579 -0.2279 -0.0100
24133W        W42987   7.031   9.709   5.294  0.1211  0.0636 -0.2314
24134W        W42988   7.100   7.341  14.166 -0.2550 -0.1379  0.1267
24135W        W42989   2.784   1.846  14.045 -0.2239  0.0000  0.0976
24136W        W42990   8.307   0.245   0.217 -0.0947 -0.1616  0.1222
24137W        W42991   1.713  14.976   1.896 -0.0304 -0.0334  0.1214
24138W        W42992   9.384  10.246  13.602  0.0077  0.0575 -0.2612
24139W        W42993   4.413   0.683   4.344  0.0096 -0.1183 -0.1259
24140W        W42994   7.477   6.045   0.707  0.0810  0.2078  0.0999
24141W        W42995  12.867  12.443  15.692 -0.2717  0.0145 -0.2027
24142W        W42996   3.858   1.097  11.933  0.0272 -0.0079 -0.1172
24143W        W42997  15.803  12.823   2.834  0.0310 -0.0884 -0.2419
24144W        W42998  17.095   8.899   3.983 -0.0234  0.2157  0.2652
24145W        W42999  13.797  14.801   1.080  0.0793 -0.2386  0.0516
24146W        W43000   2.989   5.123  14.622 -0.0164 -0.1599 -0.0889
24147W        W43001  12.812  16.336  13.118  0.0460  0.0319 -0.1365
24148W        W43002   4.494   7.565  14.781  0.1204 -0.0668  0.1047
24149W        W43003   6.971  12.264   4.864 -0.2156  0.0574  0.0593
24150W        W43004  10.383  13.212   5.182  0.4869  0.2745  0.1980
24151W        W43005   6.436   4.592   2.673 -0.2096 -0.2035  0.2335
24152W        W43006  10.295   6.879  14.689 -0.1532 -0.1167 -0.2440
24153W        W43007  18.023   5.771   2.655 -0.1520 -0.2437  0.0609
24154W        W43008   3.053   4.686  11.674  0.0300 -0.1454 -0.0883
24155W        W43009   0.407   0.010  15.357 -0.2283  0.2467  0.1917
24156W        W43010   9.952  10.398  15.294  0.0877 -0.2604  0.3397
24157W        W43011  17.486   3.666  15.265  0.0481  0.0475 -0.0365
24158W        W43012  15.885   5.309  13.205  0.0369 -0.1979 -0.0292
24159W        W43013   1.015   0.324   2.207  0.0397  0.0317 -0.0979
24160W        W43014   8.808   6.940  12.775  0.1873  0.1365 -0.0430
24161W        W43015  15.922   2.235   0.735 -0.0060 -0.1303 -0.1923
24162W        W43016   2.342  10.677   1.115  0.2019  0.1752  0.1094
24163W        W43017  14.534  16.051   3.684  0.0927 -0.1135 -0.3201
24164W        W43018   7.617   9.448   4.112  0.1100  0.2520 -0.3886
24165W        W43019  11.160  14.119   3.908 -0.0962  0.2825  0.0578
24166W        W43020   7.999   6.217   2.862  0.3109  0.1721 -0.4082
24167W        W43021   7.525  11.478  15.290  0.2167 -0.0834  0.0085
24168W        W43022   3.658   5.247  12.739  0.3100 -0.1584  0.0745
24169W        W43023   4.042  15.119  13.434 -0.0372  0.0797  0.0140
24170W        W43024   6.766   9.913  12.866  0.0705 -0.2903  0.1830
24171W        W43025   7.720  15.622  16.065  0.3374  0.0757 -0.1473
24172W        W43026  16.974  12.973  12.877  0.2246 -0.0566 -0.1895
24173W        W43027   0.360   9.081   3.667  0.0109 -0.0263  0.0519
24174W        W43028   2.129   0.227  15.432 -0.0734  0.3230 -0.1662
24175W        W43029   7.652  17.174   4.524 -0.0544 -0.0358 -0.0327
24176W        W43030  10.399   5.863   2.911 -0.1699 -0.2232  0.1011
24177W        W43031   5.163   1.549  10.713  0.1589 -0.2295 -0.0500
24178W        W43032   5.339  10.485   2.897  0.0703  0.0784 -0.0489
24179W        W43033   1.800   1.201  12.420 -0.0851 -0.1275  0.3087
24180W        W43034  13.746  12.761  14.172  0.1612 -0.0058  0.0327
24181W        W43035   5.027   1.259  16.193 -0.0711  0.3061 -0.1116
24182W        W43036  16.545   3.844  14.452  0.1254  0.3183  0.0233
24183W        W43037  17.982   7.672  11.471 -0.2343  0.0565  0.3058
24184W        W43038   8.520  11.199  15.625 -0.0187 -0.2499  0.0327
24185W        W43039  16.661  16.629   1.328  0.1423  0.3234 -0.0585
24186W        W43040   8.213   5.465   4.243  0.2279 -0.1101  0.1723
24187W        W43041  11.434  16.277  14.420  0.0131 -0.2608  0.1451
24188W        W43042   8.601  13.714  11.646  0.2815  0.1628 -0.0759
24189W        W43043  11.389  12.625   3.364 -0.1159  0.1767 -0.0317
24190W        W43044  10.345  11.110   1.684 -0.2237 -0.0202  0.0323
24191W        W43045  14.938   0.266   4.919  0.0339 -0.2282 -0.2369
24192W        W43046  16.183  17.331   2.718 -0.0870  0.0303 -0.0514
24193W        W43047   0.385   1.928  15.477  0.0361  0.0995  0.0850
24194W        W43048   3.135   9.063  13.317  0.0257 -0.0637  0.1476
24195W        W43049   9.059  16.774  14.633 -0.1540 -0.1148 -0.2145
24196W        W43050   9.868  16.734   3.547  0.1028 -0.1771  0.1712
24197W        W43051   9.823   8.889   4.740 -0.2539  0.4251  0.3418
24198W        W43052   8.834   7.717  12.391 -0.2866  0.0098  0.1534
24199W        W43053  10.507   7.492  15.031  0.1088 -0.0566 -0.1114
24200W        W43054   4.642   1.634  12.476 -0.0155  0.0657 -0.2346
24201W        W43055   0.512  11.956   0.745 -0.1917  0.0844 -0.1836
24202W        W43056   5.689   2.877  11.870  0.0453  0.1922 -0.1400
24203W        W43057  13.566   0.676  14.582 -0.0956 -0.0044 -0.0026
24204W        W43058  15.972   7.898  14.490 -0.1240 -0.2599 -0.1074
24205W        W43059  14.068  14.893   1.488  0.2723 -0.0132  0.3337
24206W        W43060  13.548   6.557   3.027 -0.0799 -0.2150  0.3281
24207W        W43061  14.315  15.750   0.021  0.1113  0.2457 -0.1149
24208W        W43062  15.049  16.722  15.453 -0.1195  0.0359  0.0444
24209W        W43063  14.717  15.824   4.629 -0.4175  0.2763 -0.2787
24210W        W43064  12.970  10.891   1.389  0.0478  0.1963  0.0918
24211W        W43065   2.525   7.606  12.383 -0.0016  0.0504  0.0285
24212W        W43066  13.690  13.951   1.404 -0.0110  0.0613 -0.1290
24213W        W43067   5.245   2.193  13.329  0.1396 -0.0567 -0.3736
24214W        W43068  16.734   1.788   2.435  0.0491 -0.1649  0.0559
24215W        W43069  17.403   2.102  11.754 -0.0510 -0.0837 -0.1863
24216W        W43070   2.321   1.491   4.981  0.3779 -0.0234  0.1474
24217W        W43071  17.856  14.991   4.109  0.2931 -0.2411 -0.1630
24218W        W43072   0.375   9.265   2.420  0.0632  0.1417  0.0865
24219W        W43073   5.416   9.209  15.428  0.1515  0.0425 -0.0041
24220W        W43074  16.162  13.896  12.338 -0.1851  0.1528 -0.1894
24221W        W43075  14.936  15.947  15.095  0.0055  0.0701 -0.1389
24222W        W43076   5.087  12.267   3.599 -0.2007  0.3352 -0.1794
24223W        W43077  13.678   2.527   3.528 -0.1456  0.1755 -0.2265
24224W        W43078   9.802  17.217  14.990  0.1651 -0.3312 -0.2153
24225W        W43079  12.365  14.345   2.903  0.0520  0.3760  0.3221
24226W        W43080  16.868   4.724   0.969 -0.1386  0.0247 -0.1260
24227W        W43081   3.812   7.507   2.688 -0.0333  0.1013  0.1529
24228W        W43082   9.814   4.005   1.158  0.1343  0.2157  0.0309
24229W        W43083   8.178   0.491   3.546  0.1080  0.3763  0.1627
24230W        W43084  16.576   8.395  12.883 -0.0439  0.0050  0.0119
24231W        W43085  11.295  10.031  11.508  0.1446 -0.1001 -0.1831
24232W        W43086  16.177  12.690   0.175 -0.3905 -0.2750  0.0186
24233W        W43087   2.968   3.203  12.064 -0.0365 -0.0670  0.1935
24234W        W43088   5.633  12.563  14.746  0.1884 -0.0967 -0.2702
24235W        W43089   4.795   5.491   3.468 -0.1659  0.2282 -0.1367
24236W        W43090  15.646  15.050   3.280  0.2178  0.1284 -0.0225
24237W        W43091   9.806  13.891  11.076 -0.0502  0.0774 -0.0732
24238W        W43092  17.895  10.370   0.846  0.2514  0.1038 -0.0913
24239W        W43093   5.555   0.823  12.449 -0.1791 -0.1278  0.0108
24240W        W43094   0.335  14.638   5.310  0.0234 -0.0476 -0.1951
24241W        W43095   3.329   4.284  14.683  0.0722 -0.4575  0.1652
24242W        W43096  12.005  10.726   3.052  0.1474  0.0431  0.0139
24243W        W43097   2.217  15.793  12.715 -0.0645 -0.3196  0.1095
24244W        W43098  11.520   5.436  11.876 -0.0015  0.0562  0.3100
24245W        W43099   4.042   7.623   4.234 -0.0591  0.2328  0.0169
24246W        W43100   5.110   6.866   0.555  0.1387  0.1691 -0.2039
24247W        W43101  12.045   3.122  14.178  0.0423  0.1407 -0.0681
24248W        W43102   1.851   8.663   4.076 -0.2986 -0.1335  0.1762
24249W        W43103   3.470   2.681   3.661  0.0130  0.3839  0.0627
24250W        W43104   0.125  13.288  13.549 -0.2205  0.1243  0.1365
24251W        W43105   3.260   4.739   3.458  0.2186  0.0869 -0.0972
24252W        W43106  12.679   7.524   2.027 -0.0934  0.1210 -0.0418
24253W        W43107   7.460  16.400  13.638  0.0637  0.0093 -0.3147
24254W        W43108   2.061  13.140   5.277 -0.2374 -0.1386  0.0893
24255W        W43109  16.663   2.610  12.560 -0.0711  0.0823 -0.2353
24256W        W43110   5.874   4.427  13.376  0.3240  0.2410  0.1668
24257W        W43111  13.763  14.396  15.853  0.0725  0.1822 -0.2719
24258W        W43112  12.032   8.469  14.810 -0.0417  0.2648  0.0845
24259W        W43113  11.944   5.847   2.262  0.0950  0.0470  0.1202
24260W        W43114   2.908   1.376   1.658  0.2353  0.0385 -0.1392
24261W        W43115  10.976   8.103  13.789  0.2406  0.4262 -0.1383
24262W        W43116  10.452   5.757   1.906  0.0801 -0.1032  0.0386
24263W        W43117  11.598  15.618  11.721 -0.0458 -0.2465 -0.2701
24264W        W43118   4.827   2.138  14.326 -0.1215 -0.1892 -0.0442
24265W        W43119  15.297   2.345   1.455 -0.2347 -0.1130  0.0354
24266W        W43120  16.415   4.979  15.931 -0.0092 -0.0447  0.0819
24267W        W43121  14.372   9.002   2.596  0.2225 -0.0180  0.1116
24268W        W43122  12.796  17.025   3.994 -0.1762  0.1850  0.4446
24269W        W43123   2.800   4.539   2.227 -0.4466  0.1031 -0.2289
24270W        W43124  15.886  10.057   3.355  0.0828  0.1104 -0.2474
24271W        W43125  10.146  10.002  14.061 -0.1207 -0.1758  0.0073
24272W        W43126   7.927  13.346   5.278 -0.3376  0.0952 -0.1803
24273W        W43127   5.143  14.329   2.527 -0.0862  0.1314  0.1795
24274W        W43128   2.024   3.437   4.262 -0.0633  0.2226 -0.0521
24275W        W43129  10.518   1.120  14.040 -0.1331  0.2056 -0.1163
24276W        W43130   9.418   8.954  14.627 -0.0070  0.0455  0.1540
24277W        W43131  17.136   2.244  13.918  0.0650  0.0298  0.1353
24278W        W43132  13.156   0.768   4.142  0.0672 -0.3701  0.0376
24279W        W43133   5.476   8.796  13.932  0.2822 -0.2168  0.2964
24280W        W43134  12.385   8.527  12.087  0.2888  0.4365  0.0429
24281W        W43135  17.836   9.359  11.966  0.1036 -0.0076  0.0144
24282W        W43136   9.949  16.825  10.606 -0.0093 -0.0280  0.1179
24283W        W43137   0.281   5.994  12.952  0.1824  0.0026 -0.2719
24284W        W43138   6.563  14.228   0.787  0.1492  0.0229 -0.0292
24285W        W43139   0.041  17.064  14.067 -0.2801  0.1587 -0.2318
24286W        W43140   2.771  15.350   3.903 -0.0532  0.0544  0.1081
24287W        W43141  14.302   6.038  13.143  0.3545  0.2125  0.2319
24288W        W43142   0.407   5.527   2.395  0.3932  0.1627 -0.0057
24289W        W43143   1.789  12.597  14.646 -0.0636  0.2364 -0.2495
24290W        W43144   6.868   0.861  13.883 -0.2664  0.1523 -0.1961
24291W        W43145   9.910  17.344   1.823  0.0786 -0.0477  0.1491
24292W        W43146  10.667   1.350  15.701  0.3502 -0.3215 -0.2157
24293W        W43147   3.148  15.376  13.410  0.1609 -0.0760  0.1669
24294W        W43148   5.732   6.172   5.161  0.0310  0.0751  0.1568
24295W        W43149   7.689  11.807   1.262  0.0738  0.0638 -0.1354
24296W        W43150   6.880  11.498  11.868  0.4397 -0.5478  0.1608
24297W        W43151   5.769   7.135  11.440  0.0944  0.0130 -0.0408
24298W        W43152   7.036   4.837  15.584  0.0880  0.1125  0.1670
24299W        W43153   5.686   9.711   2.971  0.2027 -0.0613  0.0491
24300W        W43154  15.380  13.559   3.578 -0.0025  0.0894  0.2085
24301W        W43155   0.331   6.895   0.964 -0.3973  0.0356  0.3220
24302W        W43156   6.784  17.250  10.669  0.1854  0.1258  0.0875
24303W        W43157  11.963   5.478   3.855  0.2006  0.2118 -0.2912
24304W        W43158   0.208   9.184  15.462  0.1977 -0.1495  0.1610
24305W        W43159   1.263   0.529   1.040  0.0126  0.0635 -0.0170
24306W        W43160  17.897   8.908  15.770  0.2515  0.0265  0.1779
24307W        W43161   0.126   3.767   3.291  0.4545  0.1748 -0.3055
24308W        W43162  14.948   4.195  11.079  0.2583  0.1058 -0.1789
24309W        W43163   3.128  17.429  15.156 -0.1200  0.1982  0.4061
24310W        W43164   9.348   0.431   1.651 -0.0487  0.2217  0.1630
24311W        W43165   3.072  10.119   0.726  0.3370  0.1182 -0.1625
24312W        W43166   5.651  16.598  15.055 -0.2666 -0.1440 -0.1014
24313W        W43167   6.783   5.638   1.146 -0.1333  0.0937 -0.0592
24314W        W43168   1.413   7.103   0.600  0.1333  0.3252 -0.1111
24315W        W43169  17.667   1.720   0.367  0.0742  0.2035 -0.1876
24316W        W43170  17.388  10.710   2.593 -0.0535 -0.1104 -0.2656
24317W        W43171   8.881  12.031  14.271 -0.2433  0.3013  0.0758
24318W        W43172   9.944  11.454   0.309 -0.0091 -0.1225  0.3261
24319W        W43173   7.506   8.158   5.528  0.1868 -0.0745 -0.1004
24320W        W43174   7.961   6.834  12.380  0.0523 -0.0675  0.1063
24321W        W43175  15.763  10.764  16.166 -0.1709 -0.2689  0.0172
24322W        W43176   4.573   4.712   2.144 -0.1091 -0.1303  0.1057
24323W        W43177   4.443   7.019  11.675  0.0770 -0.0230 -0.1070
24324W        W43178  16.094   1.219  15.088 -0.0596  0.1746  0.1273
24325W        W43179   6.368  10.717   0.924 -0.3182 -0.1234  0.1702
24326W        W43180  12.536  12.016   3.099  0.1664  0.2248 -0.0656
24327W        W43181   9.123  13.336   3.376 -0.0512  0.1401 -0.1783
24328W        W43182   2.452   1.262   1.465 -0.1274  0.2092  0.1061
24329W        W43183   9.302   5.597   3.381  0.0037 -0.1044  0.3088
24330W        W43184   1.156  13.168  13.762  0.2109  0.1298 -0.1126
24331W        W43185  17.057   6.414   2.967  0.0701  0.0573 -0.0459
24332W        W43186  12.641  13.598  13.242 -0.0874  0.0570  0.0013
24333W        W43187   6.507   6.110   4.027  0.1027 -0.0349 -0.4430
24334W        W43188  12.083  16.787  14.205 -0.1415 -0.2270 -0.0338
24335W        W43189   1.164  11.952  13.562  0.2848 -0.1301  0.1597
24336W        W43190   0.941   4.063   0.639  0.0711 -0.0638  0.0924
24337W        W43191  14.916  12.128  12.785 -0.0432  0.1890 -0.0007
24338W        W43192   5.670   0.847  11.462  0.0083 -0.0327  0.0905
24339W        W43193  11.064   2.471   3.792  0.0070  0.3272  0.1144
24340W        W43194  10.456  14.038   5.314 -0.0548  0.2129 -0.0778
24341W        W43195   4.271   0.219   3.980  0.0183  0.1257 -0.0418
24342W        W43196  13.256  15.794   4.504 -0.2509 -0.1086 -0.2891
24343W        W43197   5.594  11.110  12.450 -0.1441 -0.2912 -0.1520
24344W        W43198  15.485   8.465   0.846  0.0792  0.0681 -0.1987
24345W        W43199   5.405   6.005   0.704 -0.0501 -0.0027 -0.0156
24346W        W43200   6.502   4.965  14.708 -0.0688 -0.0337 -0.2783
24347W        W43201   4.342  13.891  14.043  0.0616 -0.2467  0.2181
24348W        W43202  16.309  17.587  12.132 -0.0353  0.0733  0.0634
24349W        W43203   1.655   9.565  13.629  0.3588  0.0273 -0.0723
24350W        W43204   6.313   4.002   4.679  0.1580  0.0075 -0.1987
24351W        W43205   4.322  16.478  16.027  0.0918 -0.2018 -0.1198
24352W        W43206   4.677  16.765  12.563 -0.0911  0.3818  0.0756
24353W        W43207  15.734  16.897   0.436 -0.1029  0.0494 -0.1520
24354W        W43208  12.270   6.447   3.640 -0.1136  0.0863 -0.0090
24355W        W43209  17.453   5.172  12.139 -0.0114 -0.1396 -0.0072
24356W        W43210  10.254  15.631  15.549  0.1155 -0.1705  0.2439
24357W        W43211   8.833  15.163   3.658 -0.0528 -0.2043  0.4377
24358W        W43212  17.106   9.534  11.422  0.1841  0.1471 -0.2094
24359W        W43213  10.923  14.735  11.746  0.2938 -0.2096  0.1209
24360W        W43214   1.350   8.504  14.502  0.1477 -0.2845  0.2357
24361W        W43215   3.927   7.564   5.461 -0.0165 -0.0137  0.1681
24362W        W43216  16.569   2.096   4.244  0.3131 -0.1442 -0.2816
24363W        W43217   2.282  10.269   2.860  0.0910 -0.2130  0.1598
24364W        W43218   1.826  15.451  15.119 -0.0217  0.1511 -0.0571
24365W        W43219   8.942  18.005  12.271  0.0721  0.0444 -0.2049
24366W        W43220   4.597   0.548   1.225  0.0238 -0.0821  0.0296
24367W        W43221   3.206   4.694  14.388 -0.1506  0.0756  0.1846
24368W        W43222   8.335  11.852   4.299  0.2226  0.5514 -0.0124
24369W        W43223   1.195   5.303   1.998 -0.0738 -0.0248 -0.2457
24370W        W43224   9.826   7.587  14.527  0.0509  0.3143 -0.0940
24371W        W43225  15.860   9.538  12.684  0.1445  0.3519  0.1491
24372W        W43226   1.969  14.152   0.975 -0.1324  0.0792  0.1737
24373W        W43227   3.240  11.256  12.960  0.3517  0.0167 -0.1507
24374W        W43228  16.583  15.185  14.142  0.1858 -0.1399  0.1482
24375W        W43229   3.780  16.304  15.595 -0.1077  0.1841  0.2247
24376W        W43230   4.401  17.084  15.664  0.1804 -0.1906 -0.0658
24377W        W43231   7.239  13.982   2.666 -0.0464 -0.5692 -0.1209
24378W        W43232  13.797   6.693   4.364  0.4749 -0.2682  0.2361
24379W        W43233   3.536  15.548  11.641  0.0304  0.1822  0.2810
24380W        W43234  17.434  10.721   4.628  0.0908  0.0702  0.2264
24381W        W43235   4.601  16.425   0.316  0.1495  0.0411  0.1216
24382W        W43236  12.011  13.308  15.676 -0.0829 -0.0926 -0.0118
24383W        W43237  10.935  12.549   0.953  0.0011  0.0246 -0.2433
24384W        W43238  14.391   5.234  12.145  0.1268  0.0116  0.0141
24385W        W43239   6.593  13.231  14.473 -0.0091 -0.0155  0.2259
24386W        W43240   2.158   1.362  12.765  0.1674  0.0507  0.2107
24387W        W43241  16.248  11.837   3.935  0.0987 -0.0402  0.1255
24388W        W43242  13.411  11.368  12.486  0.0431 -0.1028  0.2805
24389W        W43243   6.769   6.145   1.458 -0.1523  0.2033  0.1039
24390W        W43244   6.847   2.142   2.704  0.0436  0.0491 -0.0114
24391W        W43245  15.456   4.984  13.631 -0.1637  0.0201  0.0868
24392W        W43246  12.100   7.780   3.170  0.1094 -0.2318  0.1606
24393W        W43247  16.709  18.035   2.363  0.0061  0.1696  0.0636
24394W        W43248  14.345   0.093   3.861  0.0213  0.0387 -0.2687
24395W        W43249  15.338   1.756  13.500 -0.2457 -0.0228  0.1308
24396W        W43250   3.948  13.775  13.107 -0.2067 -0.1299 -0.2154
24397W        W43251   6.592  13.890  15.803  0.0439 -0.2023  0.1192
24398W        W43252   5.014  10.427  12.842 -0.1030 -0.2286 -0.0946
24399W        W43253  12.472  10.291  14.280  0.4425  0.0991 -0.0047
24400W        W43254  16.750   9.986  12.660  0.1072 -0.2296 -0.0756
24401W        W43255   5.883  17.032   2.131 -0.2031 -0.2991 -0.0034
24402W        W43256   9.785  10.220   1.878  0.1547  0.2814 -0.3541
24403W        W43257   4.174   5.271  15.388  0.0041  0.2066 -0.0296
24404W        W43258  10.815  15.793  10.941 -0.2270  0.2993  0.2986
24405W        W43259  10.474   7.890  15.992  0.4425 -0.0730 -0.0999
24406W        W43260   3.559  17.313  12.871  0.4307 -0.0880  0.0170
24407W        W43261  15.121   4.806   1.722 -0.2798 -0.2865 -0.1141
24408W        W43262   0.810   9.453  12.010 -0.0395  0.0407 -0.0808
24409W        W43263   7.087  11.159  13.925 -0.1812 -0.0898  0.2631
24410W        W43264   7.575   1.549   1.768 -0.3016 -0.0217 -0.1272
24411W        W43265   4.501  15.859   1.505 -0.1566  0.4939  0.1215
24412W        W43266   6.461  17.374  13.012 -0.0802  0.3585  0.2003
24413W        W43267   2.249  17.609   0.901 -0.1154  0.0139 -0.0392
24414W        W43268   7.648  17.858  14.632 -0.2262  0.2407  0.3654
24415W        W43269   8.550   6.971  13.945  0.2552  0.0650 -0.0858
24416W        W43270  10.619  15.639   4.725  0.1362  0.0538  0.0373
24417W        W43271   5.310  15.676  11.546 -0.0356 -0.2378 -0.3635
24418W        W43272  11.177  12.954  11.747 -0.1263  0.2187 -0.0545
24419W        W43273   5.407  15.665   2.733  0.2392 -0.0343  0.2429
24420W        W43274  16.216   9.683   3.345 -0.3197  0.0315 -0.0741
24421W        W43275   6.564  11.341  15.421  0.0917  0.0321 -0.0404
24422W        W43276   4.897   0.515  15.600  0.2248 -0.3646  0.0436
24423W        W43277   3.068   9.776  13.269  0.1310  0.1277  0.0255
24424W        W43278  13.648  12.616   3.343 -0.0810 -0.0069  0.1717
24425W        W43279   1.042  14.194   2.798  0.0681  0.3681 -0.0405
24426W        W43280  15.901  13.152  16.188  0.0125  0.0255  0.1394
24427W        W43281   9.178   8.141  14.299  0.0460 -0.1278 -0.1238
24428W        W43282  12.238  15.198   4.034 -0.3232  0.2727 -0.2150
24429W        W43283   7.348   6.577  14.759  0.0991 -0.1752 -0.1965
24430W        W43284   2.323  11.592   0.259  0.2645  0.1409  0.1377
24431W        W43285  11.989   8.254  14.322  0.1600 -0.1002 -0.0440
24432W        W43286   1.895   1.859  11.659  0.0582 -0.1858 -0.3077
24433W        W43287  14.461   6.300  10.802  0.0209 -0.3156  0.4467
24434W        W43288  10.218   5.348  15.689 -0.0017 -0.2959  0.0082
24435W        W43289   3.564  16.833  13.049  0.0544 -0.1267  0.2258
24436W        W43290  13.345   0.369   3.876 -0.2018  0.0117 -0.1094
24437W        W43291  14.284   2.016  12.956  0.3060 -0.2242 -0.0218
24438W        W43292  15.733   1.699  14.905 -0.1143 -0.0744 -0.1266
24439W        W43293  11.292   6.613  11.289 -0.0306 -0.2491 -0.1184
24440W        W43294   7.591   9.879   0.788 -0.1479 -0.0123 -0.1156
24441W        W43295   6.569  12.479  13.925  0.2149 -0.1127  0.0685
24442W        W43296   1.693  14.981  15.181  0.5289 -0.1662 -0.1117
24443W        W43297   9.405  10.108  12.659  0.0801  0.0451  0.1602
24444W        W43298  17.641  11.186  12.626  0.0067  0.0406 -0.3361
24445W        W43299  10.854   5.920  16.031  0.0627 -0.0277  0.2942
24446W        W43300  10.753   7.368  14.631 -0.0050 -0.2141  0.1687
24447W        W43301   3.097   6.403   3.746  0.2431 -0.3699  0.2866
24448W        W43302   0.601  12.955  15.360  0.1094 -0.1331 -0.0942
24449W        W43303  10.106  13.357   0.790  0.0132 -0.0398 -0.4119
24450W        W43304   4.691   4.396  12.892 -0.2121  0.0434 -0.1147
24451W        W43305   8.329   4.938   3.992 -0.3295 -0.1780 -0.3907
24452W        W43306   4.944   7.235   2.870  0.4091  0.2779  0.3253
24453W        W43307   5.033  11.469   1.314 -0.0049  0.3123  0.0346
24454W        W43308   4.101  16.263   2.295  0.2511  0.0624 -0.2964
24455W        W43309   8.076  15.888   0.059 -0.0910  0.0958 -0.1059
24456W        W43310  14.647   4.841   1.820 -0.0552 -0.0188  0.0080
24457W        W43311   9.990   8.783  14.541  0.4187  0.1261 -0.1520
24458W        W43312   1.420  14.468  14.173 -0.3981 -0.1918 -0.0392
24459W        W43313  16.179   8.326   3.830  0.2711  0.0128 -0.3594
24460W        W43314  10.581   8.007  13.458 -0.2842  0.1854 -0.0420
24461W        W43315   3.545   8.779  10.039  0.1320 -0.0199 -0.1727
24462W        W43316   3.039  10.414  12.147  0.0107  0.3422 -0.0866
24463W        W43317   0.792  12.143   5.568  0.3286  0.1910 -0.1183
24464W        W43318   6.484  14.675   2.668 -0.0445 -0.0778 -0.3497
24465W        W43319  13.161  12.534   3.217  0.0522 -0.0084  0.0087
24466W        W43320  10.922  10.064   1.546 -0.1934 -0.1675 -0.2136
24467W        W43321   5.753  10.037   3.575 -0.0054  0.1635  0.0654
24468W        W43322  10.340  15.523  15.016 -0.3991 -0.0742  0.0402
24469W        W43323  13.583   4.734  14.843  0.0307 -0.0072 -0.1020
24470W        W43324  15.245  14.849   3.724  0.1277 -0.2722 -0.1960
24471W        W43325   4.867   5.815  16.051 -0.1921 -0.2356 -0.0182
24472W        W43326  17.732   3.597   4.000 -0.1615 -0.1003 -0.3182
24473W        W43327  13.329   8.878  15.594  0.0800 -0.2167  0.2373
24474W        W43328   2.372   4.909  13.173  0.0020  0.1483 -0.2437
24475W        W43329   5.725  12.755   1.100 -0.0511  0.2192 -0.0454
24476W        W43330   9.112  13.025   2.934 -0.1271 -0.0609 -0.1197
24477W        W43331   8.447  12.226   2.738  0.1028  0.1386 -0.0551
24478W        W43332  16.262  10.910   2.338  0.0829 -0.0203 -0.0329
24479W        W43333  11.939   6.807  13.197  0.2389 -0.1217  0.2223
24480W        W43334   1.283   5.253   2.571  0.2323  0.0060 -0.2167
24481W        W43335   1.943   1.528  14.695 -0.1700  0.0703 -0.0508
24482W        W43336  13.373   3.442  13.974  0.0494  0.0201 -0.3012
24483W        W43337   9.497   5.898   1.594  0.3700  0.2078 -0.0866
24484W        W43338   4.366  11.792   2.534 -0.1824  0.1185 -0.0978
24485W        W43339   7.639   6.476  13.187 -0.0324 -0.1227  0.1008
24486W        W43340  11.719   7.667  12.537 -0.0253  0.1306 -0.1069
24487W        W43341   9.326  17.107   3.906 -0.2357 -0.0092  0.1156
24488W        W43342  10.115  10.236   3.385 -0.3053  0.2459  0.2782
24489W        W43343  11.321   1.642  13.488 -0.2425 -0.0523  0.2166
24490W        W43344   5.359  15.026   3.860 -0.1250 -0.1650  0.4019
24491W        W43345   4.735   2.808   0.371 -0.2246  0.0087  0.1428
24492W        W43346  15.427  17.198   1.177  0.0095  0.0191  0.2088
24493W        W43347   7.310   1.866   3.613  0.0649  0.0990  0.1011
24494W        W43348   0.435  15.431   4.807  0.3288 -0.0827 -0.1262
24495W        W43349  16.771  13.380  14.976 -0.0384 -0.1489  0.1479
24496W        W43350  17.256   0.766  13.224  0.1176  0.2437  0.0819
24497W        W43351  11.643   4.902   3.101 -0.3132  0.0877  0.2006
24498W        W43352   3.758   6.771  16.181 -0.0947  0.0854  0.3440
24499W        W43353   4.571   9.323   3.376  0.1749 -0.1129  0.0263
24500W        W43354  15.576  13.358  15.738  0.2217 -0.0377  0.0194
24501W        W43355  16.509  12.438   4.720  0.0717 -0.2454  0.2418
24502W        W43356  13.880  13.634   3.166 -0.0725  0.0129 -0.1413
24503W        W43357   5.040  16.669  12.866  0.1233 -0.0189 -0.0714
24504W        W43358   6.696   4.832   1.739  0.5200 -0.1548  0.6348
24505W        W43359  13.707  17.247  12.605  0.0507 -0.0967 -0.0808
24506W        W43360  18.005  12.807  12.132  0.1334  0.0541  0.1185
24507W        W43361   5.978   1.067  12.352  0.0660 -0.3476  0.2976
24508W        W43362  12.306   7.730  12.573  0.1304  0.1336  0.3494
24509W        W43363   2.542   1.938   2.968  0.0272  0.0568 -0.2446
24510W        W43364  12.071  16.393   3.923 -0.0528  0.0028 -0.1475
24511W        W43365  10.824   3.897   3.918  0.0180  0.2799 -0.4327
24512W        W43366   1.967   7.677  14.645  0.0165  0.0721 -0.0741
24513W        W43367   6.485   1.327  13.222 -0.0148 -0.1281  0.0905
24514W        W43368   2.271   7.462  15.623 -0.1440 -0.0244 -0.1439
24515W        W43369   9.871   9.941  15.921 -0.2391  0.0698  0.2059
24516W        W43370  16.417  15.550   3.117  0.2269 -0.2195 -0.1322
24517W        W43371  10.252  12.900   0.956  0.0092 -0.2500 -0.0817
24518W        W43372  17.936   8.507  14.559  0.1838  0.1992  0.1533
24519W        W43373  11.732   6.826  11.033  0.0489 -0.0266  0.0102
24520W        W43374  13.865   9.955  14.128  0.0912  0.2852  0.1935
24521W        W43375   4.539   7.293  13.289 -0.0379 -0.0728  0.1568
24522W        W43376   7.062  14.323  14.906 -0.0606  0.1234  0.1188
24523W        W43377   8.508   5.430   1.905  0.0354 -0.2401  0.0537
24524W        W43378   2.325   5.270  13.595  0.0884 -0.1120  0.0413
24525W        W43379   8.774  11.656   0.657 -0.1643  0.0436  0.0391
24526W        W43380   7.136  13.919   3.621 -0.3105 -0.4164 -0.1985
24527W        W43381   5.788  10.711  11.615  0.0135  0.3055 -0.0781
24528W        W43382  13.092   6.469   0.639 -0.0711 -0.3598  0.1463
24529W        W43383  12.384  13.503  10.653  0.5965 -0.0682  0.0813
24530W        W43384  17.616   4.745   4.518 -0.0330 -0.0793 -0.2366
24531W        W43385   6.722  10.201   3.294  0.0229 -0.4933  0.0061
24532W        W43386   4.333  10.086  14.509 -0.0909  0.1757  0.0270
24533W        W43387   1.338   9.831   4.647 -0.1573 -0.4167 -0.0153
24534W        W43388   4.790  10.861  12.551 -0.1275  0.0258 -0.0129
24535W        W43389  12.869   9.639  13.513  0.0317  0.2994 -0.1070
24536W        W43390   3.298  10.061   3.083  0.1571  0.1840 -0.1858
24537W        W43391   4.702  11.035  13.826 -0.2192  0.0394 -0.0362
24538W        W43392   8.243   6.535   4.398  0.0545  0.0576  0.1019
24539W        W43393   0.643   7.814  13.172 -0.2831  0.0463  0.1852
24540W        W43394   2.232  17.427   0.334 -0.2381 -0.4680 -0.0304
24541W        W43395  10.513   5.870   0.193  0.1713 -0.0715  0.2810
24542W        W43396  14.988  17.778  13.947 -0.1245  0.0413 -0.1563
24543W        W43397   9.296   0.536  14.784  0.1383  0.1582  0.1054
24544W        W43398   8.924  13.237   5.254 -0.1257 -0.2170 -0.0055
24545W        W43399  15.462   7.287   4.311  0.1391 -0.3007  0.2389
24546W        W43400   1.549   1.990   3.153 -0.0409 -0.0927  0.1790
24547W        W43401   6.297   3.060  13.393  0.0764 -0.1278 -0.1842
24548W        W43402   0.325   0.260   1.387  0.2109  0.1259  0.1402
24549W        W43403   7.190   8.811  12.150 -0.0187  0.1317 -0.1870
24550W        W43404   1.634   0.412  16.103  0.0799  0.2044  0.0806
24551W        W43405  15.620   2.428   2.699 -0.2477  0.2832 -0.0087
24552W        W43406  14.805   7.430   4.955  0.0739  0.0626 -0.2422
24553W        W43407  16.544   7.311  11.574  0.0828  0.1438  0.1665
24554W        W43408   6.807  17.229  12.546 -0.0167 -0.0310 -0.0796
24555W        W43409   6.355   2.801  15.055  0.3943  0.3697 -0.2100
24556W        W43410  14.818   5.916   0.730  0.5144  0.2163 -0.1856
24557W        W43411   0.350  11.550  10.908 -0.1561  0.0714 -0.2529
24558W        W43412  16.667  10.654  15.184  0.0304 -0.0914  0.1307
24559W        W43413   5.567   9.782   1.669  0.3589 -0.1495  0.3024
24560W        W43414  12.344   8.380   1.427 -0.2216 -0.0488  0.0671
24561W        W43415  13.203   8.521  15.941 -0.2155  0.2620  0.1160
24562W        W43416   7.688   4.469   1.988 -0.0395 -0.0878 -0.1614
24563W        W43417   3.003   7.021  15.785  0.3435 -0.0271  0.1863
24564W        W43418  10.975  12.948  12.268 -0.0966  0.0004 -0.0516
24565W        W43419  13.886   4.533  15.482 -0.1767 -0.2804 -0.0233
24566W        W43420  12.567   1.864   1.752 -0.0665  0.0885 -0.0238
24567W        W43421   5.742  14.394  11.269 -0.2849  0.2611 -0.3878
24568W        W43422   1.990   4.355   1.813  0.0057 -0.0431  0.0912
24569W        W43423  17.619   3.002  13.801 -0.1094 -0.3068 -0.2571
24570W        W43424   2.877   4.292  11.473 -0.0877  0.2215 -0.1182
24571W        W43425   6.828  17.491   4.207 -0.0143  0.1526  0.2804
24572W        W43426   5.021   2.801  16.047  0.2491  0.1371 -0.3482
24573W        W43427  16.603  16.382  13.279 -0.0045  0.3927 -0.2834
24574W        W43428  10.636  15.981  16.093  0.2094 -0.1162  0.1182
24575W        W43429   8.506   0.883  15.506  0.0812  0.2610 -0.2048
24576W        W43430   9.005  14.563   2.253  0.1571  0.0339 -0.2017
24577W        W43431  11.485  11.979   3.794 -0.1749 -0.1728 -0.1517
24578W        W43432   2.701   6.702   0.828  0.0919 -0.1080 -0.0793
24579W        W43433  10.645  13.131  13.734  0.6364  0.2286 -0.1079
24580W        W43434   1.160   9.078   2.859 -0.0957 -0.0078  0.4458
24581W        W43435  11.877   1.147   0.103 -0.2145  0.1702 -0.4336
24582W        W43436   7.540   4.696  12.654 -0.1544  0.2726 -0.1437
24583W        W43437  15.206   8.189  12.886 -0.0558 -0.1329  0.1802
24584W        W43438  15.726   4.193   1.818 -0.1362  0.1300  0.0859
24585W        W43439  12.125   3.089  13.661  0.2438  0.2439  0.0980
24586W        W43440   9.282   4.386   2.688  0.0349 -0.3217  0.3068
24587W        W43441   0.416  17.927  12.365  0.0208  0.3350 -0.0873
24588W        W43442   1.761  15.366  13.196 -0.0164  0.1644 -0.2314
24589W        W43443  10.235   0.971   2.317 -0.1284 -0.0167 -0.1325
24590W        W43444  16.706   7.229  11.997 -0.1291  0.2815 -0.2428
24591W        W43445  11.129   0.977  14.270 -0.1171  0.0067 -0.0498
24592W        W43446  12.507   8.372  13.392  0.4054 -0.4196 -0.0007
24593W        W43447   2.594   9.164  11.645 -0.1176  0.0901 -0.4010
24594W        W43448   1.169   1.139  14.293  0.2824 -0.2618 -0.3131
24595W        W43449  16.243  12.208  11.797 -0.2319 -0.0685 -0.2327
24596W        W43450   7.381  16.913  12.813  0.1128 -0.2541 -0.1669
24597W        W43451   3.201   7.196   3.233  0.2703 -0.0291  0.0268
24598W        W43452   9.634   6.658  14.793  0.2266  0.4970  0.1052
24599W        W43453   6.270   8.620   0.735 -0.2009 -0.1703  0.1980
24600W        W43454  16.069  14.614  14.345  0.3099 -0.1132  0.0865
24601W        W43455  11.888  14.195   4.815 -0.3710  0.1353  0.1792
24602W        W43456   8.961  13.434   0.186  0.1680  0.0790  0.1187
24603W        W43457   2.908  16.069  15.764 -0.2839  0.2105  0.1315
24604W        W43458   4.636  10.080   3.270  0.1851  0.0801 -0.1687
24605W        W43459  10.879   1.418  13.447 -0.1825 -0.0243  0.2502
24606W        W43460  17.753  17.466   3.891 -0.2413  0.2557 -0.2953
24607W        W43461  11.566   1.002   1.845  0.1867 -0.3759  0.0449
24608W        W43462  11.139   3.241  14.583  0.2131 -0.2818  0.1091
24609W        W43463   3.333   7.938  12.610 -0.0921  0.2631  0.1373
24610W        W43464  16.302  12.730   2.472  0.1087  0.3391  0.2844
24611W        W43465   0.849  11.007   4.272  0.3874  0.0270 -0.0528
24612W        W43466   7.963   4.521  15.844 -0.1570 -0.0085 -0.1354
24613W        W43467  14.088  11.667  14.653  0.1173  0.0114 -0.1874
24614W        W43468   7.143  13.627  12.836  0.0653  0.0911 -0.1638
24615W        W43469  17.815  17.528   0.842 -0.2292 -0.1374 -0.3227
24616W        W43470   2.635   2.031  11.494  0.1357 -0.0484 -0.0851
24617W        W43471   6.038   1.158  13.272  0.1247  0.1161 -0.0062
24618W        W43472   0.121  17.485  13.200  0.3734 -0.2683  0.0137
24619W        W43473  14.513   4.023   1.488 -0.1438  0.1251 -0.0608
24620W        W43474   7.849   3.828   5.395 -0.1595 -0.2112 -0.0749
24621W        W43475  13.795   1.767   4.329  0.0481 -0.1321  0.1141
24622W        W43476   3.494  15.938  12.858  0.0160  0.1468  0.0714
24623W        W43477   6.991   3.957  12.588  0.1603  0.2832 -0.0586
24624W        W43478   3.644  15.528   1.101 -0.1151  0.1170  0.0029
24625W        W43479   3.137  12.013  14.100  0.0223 -0.0311  0.0009
24626W        W43480   5.684  16.303   4.456 -0.2035  0.1008 -0.2542
24627W        W43481  11.547   8.521  13.680 -0.1637  0.0569  0.0524
24628W        W43482   5.313   7.157  14.839  0.0555 -0.0673 -0.3649
24629W        W43483   4.277  16.156   4.309 -0.2416  0.0653 -0.2718
24630W        W43484   1.123  16.880   2.852 -0.1567  0.1017  0.1514
24631W        W43485   8.614   8.944   3.286  0.0063  0.0501 -0.0462
24632W        W43486  11.577   8.154  13.117  0.0829 -0.0429  0.0227
24633W        W43487  10.188  16.999  14.407  0.0449  0.0263  0.2272
24634W        W43488  11.615   8.732  14.172  0.0279  0.0113 -0.2133
24635W        W43489  11.072   6.332  13.351 -0.0195  0.2509 -0.4172
24636W        W43490   6.710   6.080   0.927 -0.3355 -0.0092 -0.1140
24637W        W43491   4.586  15.456  16.003 -0.2648 -0.1336  0.0876
24638W        W43492   7.051  14.182  12.914 -0.2525 -0.1481  0.1023
24639W        W43493  15.719   7.074   3.895  0.1541 -0.1386  0.0966
24640W        W43494   8.163  16.025  12.044 -0.1112  0.3530 -0.0475
24641W        W43495  10.136  15.456  10.588  0.0332 -0.1607 -0.3462
24642W        W43496   9.300   3.376  11.964 -0.2030 -0.0751  0.1552
24643W        W43497   4.836  17.696  11.749  0.1957 -0.2412  0.2507
24644W        W43498   4.576   4.210   4.560  0.1200  0.0117 -0.0966
24645W        W43499  15.188   4.640   3.838 -0.1056  0.3418  0.1830
24646W        W43500  17.579  10.017  16.202  0.1107 -0.0365  0.2746
24647W        W43501  12.915  17.471  15.618 -0.2486 -0.0178  0.0170
24648W        W43502   5.306   5.657  13.012  0.1760  0.3338  0.0337
24649W        W43503  12.900  10.665  12.360 -0.0391 -0.1281 -0.1021
24650W        W43504   8.408  10.145  13.469 -0.0088 -0.2480  0.0888
24651W        W43505   4.167  16.487   4.668 -0.2858 -0.0160 -0.0059
24652W        W43506  11.689  17.338   3.859 -0.1213 -0.2970  0.0808
24653W        W43507   3.191  12.064  14.607  0.4147  0.0629 -0.0617
24654W        W43508   1.096  10.201   1.604 -0.0842  0.1757 -0.0550
24655W        W43509   6.171  11.189   0.949  0.0280  0.0157 -0.1266
24656W        W43510   2.125   7.331   3.487 -0.1802  0.2812 -0.1997
24657W        W43511   5.478   1.770  11.814 -0.5383 -0.0350 -0.0184
24658W        W43512  12.371  17.023  12.416  0.1432  0.2793  0.0507
24659W        W43513  11.509   5.128   3.736 -0.0925 -0.0811 -0.0060
24660W        W43514   0.588   0.927  14.455 -0.0893  0.3990 -0.2409
24661W        W43515   2.665   8.892  12.089  0.0419 -0.0335 -0.0077
24662W        W43516  13.150   7.385   2.078  0.0210  0.1542 -0.0752
24663W        W43517   7.285  10.612  15.136  0.1449 -0.0426  0.0416
24664W        W43518   8.578  11.653   1.751  0.1198 -0.1108 -0.1971
24665W        W43519   3.060  16.083  14.779 -0.1704 -0.1545 -0.2417
24666W        W43520  11.419  11.412   2.735  0.1648  0.0518  0.1097
24667W        W43521  14.576   8.523   3.374  0.1877 -0.3013  0.1904
24668W        W43522   6.716  15.630  15.393 -0.0052  0.0228 -0.2732
24669W        W43523  11.165  13.374   0.499  0.0971  0.1260  0.1187
24670W        W43524   6.616  11.865  11.648 -0.1990  0.0214  0.1869
24671W        W43525  14.862  10.431   1.586  0.1774 -0.2316  0.0883
24672W        W43526  11.894  13.268  11.968 -0.0941 -0.2971 -0.2160
24673W        W43527   7.027   9.044   0.420 -0.0983  0.3340 -0.2131
24674W        W43528  16.625  13.920   0.305  0.0780  0.2029 -0.0305
24675W        W43529  12.087  12.012   4.456 -0.1222 -0.1232  0.1647
24676W        W43530   9.758   8.006   4.471 -0.0594  0.1437 -0.2486
24677W        W43531   2.572  11.507   3.661  0.0768  0.1509  0.2196
24678W        W43532   5.370   2.189  14.916 -0.2234  0.1756  0.0649
24679W        W43533   2.208   5.502  14.569  0.2059  0.1381 -0.0113
24680W        W43534   7.025  13.548   3.284  0.0753  0.2541 -0.0315
24681W        W43535  16.643  17.909   4.802 -0.4979  0.1862 -0.1970
24682W        W43536   6.160   4.381  16.016 -0.0496 -0.0464 -0.1878
24683W        W43537   6.584  15.213  15.156  0.2913  0.0374  0.0568
24684W        W43538   0.123   9.971  15.295 -0.0891  0.0094 -0.2152
24685W        W43539  12.590   0.173   3.774  0.3253 -0.0230 -0.0964
24686W        W43540  10.055  15.580  11.751  0.0498 -0.3129 -0.0078
24687W        W43541   1.495   8.936  12.513 -0.2740  0.1411  0.1118
24688W        W43542  13.288  10.252   0.050 -0.0741  0.1449 -0.1357
24689W        W43543   6.809   3.717   0.929 -0.1974  0.0579 -0.3306
24690W        W43544   1.977   8.446   1.876  0.0639 -0.0103  0.0512
24691W        W43545  12.286   2.534  14.197  0.2573 -0.0033 -0.1543
24692W        W43546  15.337  17.292  15.367  0.0665 -0.1790 -0.0743
24693W        W43547   6.698   3.991  13.427  0.0184  0.4327  0.0178
24694W        W43548  10.601   3.831  12.659 -0.1581 -0.0648  0.1421
24695W        W43549   3.057  10.196  11.115  0.2106  0.5358  0.1090
24696W        W43550  11.317  10.819   4.347  0.1573 -0.0127  0.3311
24697W        W43551   8.389  11.340  14.472 -0.0155  0.0057 -0.0383
24698W        W43552   9.117   8.379   4.646  0.0239  0.0761  0.2211
24699W        W43553  14.022   2.685   3.211  0.0108 -0.1840  0.1859
24700W        W43554  16.182  16.282   3.731 -0.2064  0.1733 -0.0056
24701W        W43555   6.572   8.247  11.283 -0.3655  0.1090  0.0749
24702W        W43556  11.857  14.648  12.142  0.0686  0.5566  0.1780
24703W        W43557   7.293  16.821  14.606  0.2506  0.0496  0.0044
24704W        W43558   3.983  16.963  12.126 -0.2691 -0.2778  0.0602
24705W        W43559  10.504   9.082   4.013 -0.0165 -0.0459  0.1426
24706W        W43560  11.605  14.065  12.684  0.0444  0.1569 -0.1420
24707W        W43561  17.981   5.477  16.175  0.1952  0.0282 -0.1941
24708W        W43562  13.158   3.461   3.902 -0.1273 -0.1122 -0.1700
24709W        W43563   6.037  16.195   3.463  0.2538  0.1267  0.0443
24710W        W43564   8.863   6.206   4.121  0.2116  0.0125 -0.0910
24711W        W43565  14.394  11.580   4.462  0.0977 -0.1969  0.1221
24712W        W43566   0.603   5.323   0.615 -0.1373 -0.1816  0.0947
24713W        W43567   1.488   3.412  13.194 -0.3969  0.3686  0.1794
24714W        W43568   2.945   3.003   1.968 -0.0046 -0.2514  0.1054
24715W        W43569   6.333   5.607   3.240  0.0205 -0.2241  0.0746
24716W        W43570  12.611  15.154  12.319 -0.2767  0.0106 -0.0776
24717W        W43571   7.726   2.062  10.867 -0.0323  0.2459 -0.2248
24718W        W43572   3.498   6.173   1.129  0.2398 -0.0768  0.1665
24719W        W43573   2.614  10.258   4.542  0.0934 -0.0950  0.3241
24720W        W43574   9.813  13.300   4.770  0.0132 -0.0507 -0.2539
24721W        W43575   0.774   6.144   1.019  0.0759 -0.1065 -0.5529
24722W        W43576   6.982  10.639  12.703 -0.1685 -0.0513  0.2848
24723W        W43577  16.583  12.717   1.792  0.0070 -0.2053 -0.0918
24724W        W43578  15.636   4.296  13.257  0.3375  0.1290  0.2628
24725W        W43579  15.749  16.574   2.184 -0.2270  0.0444  0.0644
24726W        W43580  13.157  11.902  15.025  0.0664  0.0678  0.0807
24727W        W43581   5.612   2.036   4.760 -0.0288  0.1075 -0.0879
24728W        W43582   8.270  13.968   1.015  0.0580  0.0547 -0.1133
24729W        W43583  13.722  12.173   2.285 -0.1141  0.0284 -0.1313
24730W        W43584   8.730   0.997  13.683  0.0216  0.2176  0.1784
24731W        W43585   9.530  10.772  14.978 -0.2136  0.0306 -0.1307
24732W        W43586  10.584  12.323   2.318  0.0491 -0.0088 -0.1378
24733W        W43587   8.354   7.399  14.162 -0.0201  0.2737 -0.2076
24734W        W43588   3.587   9.564   1.778  0.0607  0.0626  0.2006
24735W        W43589   1.662  14.087  13.098  0.1469  0.1744  0.1169
24736W        W43590   8.120   0.349   4.826  0.1254  0.0549 -0.2232
24737W        W43591   3.383   0.946   0.527  0.1470  0.0078 -0.0266
24738W        W43592  17.276  13.604  12.155  0.1927 -0.0410  0.2902
24739W        W43593  15.589   1.599   1.616  0.1112 -0.0363  0.4120
24740W        W43594   1.016   0.662  14.355 -0.2397 -0.1298 -0.3771
24741W        W43595  13.181   4.020   4.008  0.1440 -0.4916 -0.1952
24742W        W43596   2.878   3.012   4.682 -0.0528 -0.3447 -0.3952
24743W        W43597  17.802   1.307   3.839  0.1454  0.1441  0.4045
24744W        W43598  13.041   7.913   3.312 -0.6485 -0.2445 -0.1018
24745W        W43599   1.264  15.682  13.762 -0.2885 -0.0706  0.2478
24746W        W43600   4.914   1.283  11.692  0.2009  0.0513  0.1617
24747W        W43601  14.424   1.099   4.629  0.1214 -0.2940 -0.0193
24748W        W43602   7.410   3.402  14.864  0.0354  0.2320  0.0556
24749W        W43603  12.071   4.896   1.329  0.1429  0.0217  0.0525
24750W        W43604  10.843  10.851   0.575  0.1110 -0.1863  0.0947
24751W        W43605   4.125  10.846  11.310 -0.2950 -0.0966 -0.2862
24752W        W43606   6.090   3.251   2.958 -0.0485  0.0083  0.1027
24753W        W43607   4.981   1.898  14.763  0.2567  0.0036  0.1805
24754W        W43608   6.247  16.439   0.312 -0.0961 -0.4357  0.2955
24755W        W43609  14.174   6.996   4.481 -0.2232 -0.0060  0.3520
24756W        W43610   5.619   4.429   0.031 -0.1611 -0.3495  0.1394
24757W        W43611   9.691   6.334   3.822 -0.1597  0.1009  0.1983
24758W        W43612   8.419  12.779  15.471  0.0107  0.0738 -0.0133
24759W        W43613  17.658  15.145   3.598  0.1654 -0.1917  0.1823
24760W        W43614  16.922   8.294  13.322 -0.1929  0.1559 -0.2084
24761W        W43615  11.570   6.847   1.919  0.1600  0.1665 -0.2640
24762W        W43616   6.102  13.322  14.508  0.2400 -0.0383  0.1395
24763W        W43617   8.689  17.471  12.237 -0.1994  0.0281 -0.0835
24764W        W43618  12.021  13.407   6.161  0.2603  0.0270 -0.2698
24765W        W43619  15.100   9.603  11.204  0.0406  0.0860 -0.0312
24766W        W43620   4.512   1.351   3.205 -0.0672  0.1031  0.0745
24767W        W43621   8.886  13.603  13.652 -0.0267  0.1396 -0.0413
24768W        W43622  17.493  12.214  12.745 -0.0077  0.0477 -0.0211
24769W        W43623   0.047  16.170   4.466  0.0689  0.0723 -0.0820
24770W        W43624   0.700   4.634  16.142  0.0512  0.4003 -0.1948
24771W        W43625   8.588  16.456   2.874 -0.2328  0.1484  0.2160
24772W        W43626   4.859  10.706   0.756  0.2116  0.1060  0.0529
24773W        W43627  13.727   4.827  12.115 -0.2250 -0.1244  0.1107
24774W        W43628  15.737  11.676   4.762 -0.2143  0.1218  0.0032
24775W        W43629  12.868  12.411   4.005  0.1953 -0.0563 -0.0802
24776W        W43630  15.864   0.430  16.172  0.1159 -0.2102 -0.0054
24777W        W43631   9.300  17.801   2.349 -0.1219  0.1078  0.0253
24778W        W43632  10.959  13.583  13.653 -0.1021  0.1798  0.2580
24779W        W43633  16.131   2.265  14.420  0.0258  0.1228  0.0352
24780W        W43634   1.188  14.950   2.730  0.0468 -0.1515  0.2272
24781W        W43635   8.652  13.897  13.290 -0.0194  0.1555  0.0674
24782W        W43636   9.502   6.766   2.913 -0.0171  0.0643  0.1476
24783W        W43637   6.161   9.097  12.211  0.3459  0.1800  0.3574
24784W        W43638   7.724   9.724  15.078  0.1107  0.0118 -0.0214
24785W        W43639  11.002  17.260  15.464  0.1286 -0.1965 -0.1208
24786W        W43640   0.058   8.973  11.858 -0.0848  0.3293 -0.2377
24787W        W43641  13.089  12.639  12.453  0.0154 -0.0132 -0.3620
24788W        W43642   8.692   4.062   4.609 -0.0325  0.2175 -0.2294
24789W        W43643   7.671  15.944   2.576 -0.1442 -0.2429  0.1745
24790W        W43644  17.631  13.162  12.206 -0.0374  0.0808 -0.1097
24791W        W43645   3.501  12.439  15.816  0.0668 -0.2663 -0.0325
24792W        W43646   5.099  12.964   2.447 -0.3323  0.1884 -0.0541
24793W        W43647   2.537  10.694   2.951 -0.1414  0.2426  0.0455
24794W        W43648   5.723   2.122  13.125 -0.0137  0.0838 -0.3039
24795W        W43649   4.439  15.827  15.211 -0.0575 -0.2340 -0.1989
24796W        W43650  17.545  15.229   2.681 -0.3609  0.1806 -0.2306
24797W        W43651  11.039  13.800   4.675  0.3153  0.2183  0.2798
24798W        W43652   5.219   2.451   2.941 -0.2696  0.0536 -0.0008
24799W        W43653   8.175  12.404   1.957 -0.1060 -0.0842  0.0368
24800W        W43654   0.676   3.043   0.072  0.3562 -0.0120  0.2660
24801W        W43655  17.884   8.367   3.624  0.2824 -0.0840  0.1737
24802W        W43656  12.086  17.681  11.713  0.1982 -0.1829  0.2351
24803W        W43657  16.410  10.433   0.669  0.3238 -0.2302  0.4309
24804W        W43658  17.235  16.704  16.028  0.0302 -0.0400 -0.0451
24805W        W43659   8.054   1.767  12.615  0.0504  0.2697 -0.0561
24806W        W43660   0.136   8.919   0.515 -0.0180  0.0740 -0.1627
24807W        W43661  12.639   2.490   4.685  0.1438  0.0596 -0.1137
24808W        W43662  17.615  16.979   4.149  0.0315 -0.0616  0.0913
24809W        W43663   0.858   7.879  12.718  0.3609  0.1160  0.1649
24810W        W43664   6.417   6.961   3.423  0.0023 -0.0124  0.1016
24811W        W43665   2.213   3.785  12.528 -0.2836  0.0865  0.4372
24812W        W43666  17.346   1.680  13.217  0.0486 -0.1383 -0.1832
24813W        W43667   9.030  15.792   4.711  0.4058 -0.2727  0.1690
24814W        W43668  11.635   0.110  14.719  0.0149  0.0719  0.1596
24815W        W43669  16.939  16.404  11.566 -0.1297 -0.1978  0.3201
24816W        W43670   8.185   1.054   0.334  0.0697 -0.2981 -0.1568
24817W        W43671  11.203   3.762  11.217 -0.2121  0.1533 -0.0136
24818W        W43672   6.778   3.967  15.311  0.0935  0.0300 -0.0036
24819W        W43673   4.193  16.137   0.230 -0.1273 -0.2233  0.2751
24820W        W43674  15.919   6.219  14.942  0.2381  0.0599 -0.0909
24821W        W43675   8.161   1.238  14.314  0.0060 -0.1669  0.2912
24822W        W43676  14.347  13.399  14.241  0.0093  0.0722 -0.0882
24823W        W43677   6.074  16.204  12.375  0.3988  0.0724  0.1192
24824W        W43678  12.410   8.762   0.776 -0.2547 -0.0913  0.3685
24825W        W43679   6.176   3.859   3.717  0.1531 -0.2815  0.0475
24826W        W43680  15.001   1.961   3.417  0.2842 -0.0384 -0.2754
24827W        W43681  12.079   0.824  14.423  0.2078  0.2290  0.1451
24828W        W43682   5.524  13.096  15.941 -0.0438  0.2719  0.1989
24829W        W43683  14.764  13.665   0.212  0.0334 -0.0551 -0.1822
24830W        W43684   4.715  10.227  15.392 -0.0089 -0.0319  0.1771
24831W        W43685   4.893   3.329  15.193  0.1169 -0.0833  0.1287
24832W        W43686  15.825  11.070  12.519  0.1317 -0.2211 -0.0100
24833W        W43687   5.688   8.716   3.492  0.1076 -0.1610  0.2270
24834W        W43688  15.488   9.066   2.364 -0.0351 -0.0269 -0.1924
24835W        W43689   8.578  15.368  13.156 -0.1111 -0.0620 -0.0363
24836W        W43690   1.116   6.214  12.532  0.1233 -0.1958 -0.1480
24837W        W43691   6.838  14.225   3.955  0.0302  0.0763 -0.2157
24838W        W43692   7.098   7.797   3.410 -0.0349 -0.2210  0.2369
24839W        W43693   1.586  10.213  12.865 -0.1745 -0.0833 -0.2494
24840W        W43694  17.183   0.782  16.135 -0.2356 -0.0904  0.0936
24841W        W43695   9.553  12.545  15.946  0.0556 -0.1568  0.1914
24842W        W43696   0.877  11.024   1.913 -0.3484 -0.1656  0.2855
24843W        W43697  11.840   5.918  14.205 -0.1827  0.1068 -0.0194
24844W        W43698  17.598   9.007  14.311  0.1894  0.1320  0.0690
24845W        W43699  15.287  14.340  15.168  0.1385 -0.0679  0.0461
24846W        W43700   4.954   7.597   4.088 -0.0009 -0.1869 -0.1397
24847W        W43701  13.986   5.477  15.320 -0.0443 -0.0520 -0.0577
24848W        W43702   3.537  17.094  13.876  0.0435 -0.1667  0.2591
24849W        W43703   8.388   6.429   4.896 -0.1777  0.3102 -0.2662
24850W        W43704  11.203  17.256  12.901 -0.0843 -0.3046 -0.1689
24851W        W43705  15.705  11.678  13.683  0.0756  0.0123  0.0092
24852W        W43706   3.370   1.425  11.714  0.0944  0.4323  0.0228
24853W        W43707  15.199   5.380  15.665  0.0883  0.1523 -0.2756
24854W        W43708   6.036   8.152  13.424 -0.1375  0.2213  0.4111
24855W        W43709   3.575   9.436  14.354 -0.3137  0.1751  0.0103
24856W        W43710   8.413  17.416   2.333  0.1097  0.1923 -0.2856
24857W        W43711  16.929  13.593   0.532 -0.2266 -0.3241 -0.0030
24858W        W43712  10.372  14.369  14.315  0.0009 -0.1629 -0.3283
24859W        W43713  15.230   4.006  12.307 -0.3183  0.2409 -0.2278
24860W        W43714  16.204  16.460  12.190  0.0167  0.1665 -0.0065
24861W        W43715  11.274  16.178   0.480  0.1737 -0.1453 -0.0197
24862W        W43716  14.903   1.065  11.190  0.0747 -0.1529 -0.1374
24863W        W43717   2.369   9.184  13.861  0.1451 -0.0592 -0.3421
24864W        W43718  16.169  16.892  11.792 -0.1250 -0.0781  0.1720
24865W        W43719   0.534  10.899   3.306 -0.0601 -0.0431 -0.4359
24866W        W43720   3.286  12.549  14.752  0.2248 -0.0594  0.1383
24867W        W43721  11.547   2.508   2.086  0.0443 -0.0081  0.1397
24868W        W43722   3.607  13.924  13.541 -0.1644  0.1620 -0.2620
24869W        W43723  15.161   6.644   3.488  0.0932 -0.0511 -0.2260
24870W        W43724  17.856  16.233  12.081 -0.1761 -0.4620 -0.0714
24871W        W43725  10.108  14.763   3.081 -0.1283  0.0314  0.1216
24872W        W43726  10.201   8.487  15.459  0.1531  0.0732  0.2110
24873W        W43727   1.914   0.085   3.477  0.0058 -0.3816  0.0696
24874W        W43728  10.681  16.286   5.262  0.1392  0.2780  0.1964
24875W        W43729   3.446   2.321  15.994 -0.0643  0.0353  0.1241
24876W        W43730  15.701  11.115  14.356 -0.3201 -0.1100 -0.3378
24877W        W43731   7.490  11.921   4.158 -0.0485 -0.2458  0.1274
24878W        W43732  15.384   1.781   3.700  0.0280  0.1323 -0.1563
24879W        W43733   2.181  13.380  15.271  0.0651 -0.0768  0.4971
24880W        W43734   1.561   6.470   0.339 -0.0624  0.2208 -0.1016
24881W        W43735  13.862   6.666   3.470 -0.1230 -0.0666 -0.2162
24882W        W43736   3.190  17.643   1.322 -0.2279 -0.0189 -0.0077
24883W        W43737   5.664  11.958  11.210  0.1031 -0.0921 -0.1245
24884W        W43738  14.321   0.691  12.235 -0.0449 -0.2457 -0.3064
24885W        W43739   9.001  17.200   2.542 -0.1129  0.1616  0.2107
24886W        W43740   3.056   0.332   2.817  0.0775  0.2662  0.3474
24887W        W43741  11.556  14.583  12.614 -0.2989  0.0671 -0.0517
24888W        W43742  13.259   1.652  10.690  0.0410 -0.1038 -0.0729
24889W        W43743  17.085  15.264  13.938  0.1212 -0.1456  0.1748
24890W        W43744  17.421   2.533   1.684 -0.5878  0.1897  0.1152
24891W        W43745  13.974   3.431  11.071 -0.0436 -0.1649 -0.0758
24892W        W43746  14.923  14.573   3.426 -0.0631  0.0921 -0.1782
24893W        W43747   5.881   3.941   2.378 -0.0551  0.2205 -0.2190
24894W        W43748  14.921   0.503   0.408 -0.0200 -0.0299 -0.3053
24895W        W43749   1.283   2.336   2.549 -0.0217 -0.1017 -0.0867
24896W        W43750   9.645  14.881   3.176 -0.0269 -0.2068 -0.1381
24897W        W43751   9.528   1.566   2.288  0.0002  0.3089  0.0596
24898W        W43752  12.998  15.373  15.048 -0.0512  0.0113 -0.0735
24899W        W43753   3.110  11.896   4.243 -0.0366  0.1934  0.0772
24900W        W43754   6.797   9.172   2.703 -0.1725  0.0120 -0.1016
24901W        W43755  17.621  13.132   4.644 -0.1530 -0.0543 -0.3128
24902W        W43756  12.509   0.597   0.743 -0.0483 -0.3320 -0.0410
24903W        W43757   5.185  12.427   1.353 -0.2445 -0.0235 -0.0598
24904W        W43758  16.539  10.803   4.763 -0.1257  0.0397 -0.3819
24905W        W43759  10.365   6.723   3.333 -0.1127  0.1453 -0.2233
24906W        W43760  15.125   1.722   4.206 -0.0025  0.0296  0.2512
24907W        W43761   6.917  15.003  16.144 -0.2780  0.0795 -0.0013
24908W        W43762   6.567  16.227  14.842  0.1454  0.1438  0.3135
24909W        W43763  16.754  12.150   1.714  0.1424 -0.1874 -0.1905
24910W        W43764  11.989   3.090   1.276 -0.0090 -0.0496 -0.2665
24911W        W43765  11.114  10.078  13.832 -0.1873 -0.2011 -0.1010
24912W        W43766   7.848   5.465  12.237 -0.2493  0.1405  0.4285
24913W        W43767   7.321  10.832  15.612 -0.0266 -0.1183 -0.2218
24914W        W43768  15.283   9.578   4.443  0.0442 -0.1883  0.1828
24915W        W43769  17.731  17.733   3.100 -0.0020 -0.4618 -0.0313
24916W        W43770   2.497   0.642  16.131 -0.1701  0.2882 -0.0069
24917W        W43771   8.483  11.803   2.978 -0.0631  0.1117  0.1018
24918W        W43772   1.368   5.448   0.543  0.0918 -0.1681  0.0730
24919W        W43773   3.749   7.794  15.447  0.1151  0.2885  0.3765
24920W        W43774  14.681   3.028   4.032  0.0161 -0.1853  0.1402
24921W        W43775   3.499  16.087  10.961  0.1726 -0.2031 -0.1845
24922W        W43776   0.997  17.605  12.997  0.0089 -0.1134 -0.4202
24923W        W43777  10.948  17.579  13.144  0.2298 -0.0555 -0.0335
24924W        W43778   0.127   1.661   3.753  0.1473 -0.0004  0.0069
24925W        W43779  15.862   0.232  13.039  0.3673 -0.2730  0.0750
24926W        W43780  16.619   1.192  13.784  0.0845  0.0941  0.1178
24927W        W43781  15.110  15.483  11.876 -0.2411  0.0914  0.3503
24928W        W43782  14.986   6.161   1.747  0.1060  0.0199 -0.1384
24929W        W43783  14.685   3.006   0.061 -0.2548  0.2333 -0.2072
24930W        W43784  13.802   3.564   1.971  0.0766 -0.0505 -0.0319
24931W        W43785   1.948   3.266  13.036 -0.2932  0.1072  0.1026
24932W        W43786  12.004   9.802  12.294  0.1751 -0.0931  0.1128
24933W        W43787  15.384  14.763   0.124  0.1298  0.1363 -0.2642
24934W        W43788   8.280   2.855   1.084 -0.1897  0.1089  0.3191
24935W        W43789   3.934  12.031   2.371 -0.1367 -0.0393 -0.1667
24936W        W43790   4.619   1.003  14.817 -0.0364 -0.1376 -0.2044
24937W        W43791   7.097  13.389  13.545  0.0754 -0.0909  0.0809
24938W        W43792  12.745   5.752   0.015  0.3207 -0.1294 -0.1513
24939W        W43793   5.292   3.942   3.432  0.1505  0.2864 -0.0763
24940W        W43794  17.546   0.295  13.922 -0.1687 -0.3428  0.0574
24941W        W43795  14.133  17.824   1.475  0.0300  0.0877  0.1437
24942W        W43796   1.088   5.468  16.015  0.0184  0.2475  0.2062
24943W        W43797  13.428   3.192   2.147  0.0294  0.1837  0.0241
24944W        W43798  17.156   1.358  11.313  0.2723  0.2004  0.3423
24945W        W43799   0.428   3.815   1.813  0.1365  0.1914  0.0831
24946W        W43800  11.585  17.410   3.053 -0.0835 -0.2315 -0.0001
24947W        W43801   0.823  12.684  14.427  0.1397  0.1605  0.0179
24948W        W43802   9.705   6.172  15.972  0.2339 -0.2239  0.1535
24949W        W43803  10.161  16.791  16.176 -0.0255 -0.2492  0.0034
24950W        W43804  10.029  12.451  14.241  0.0328  0.1908  0.2497
24951W        W43805   7.814   8.902  13.211  0.4583  0.1270  0.0657
24952W        W43806   5.486   7.313   5.754  0.2342 -0.0678  0.1251
24953W        W43807   1.646  16.425   4.351 -0.1569  0.1744 -0.0760
24954W        W43808   3.377  15.040  11.426 -0.4127  0.0153  0.4254
24955W        W43809  13.287   6.472   2.554  0.2551 -0.2249 -0.2757
24956W        W43810  12.077  13.563   3.092  0.0204 -0.0650 -0.1264
24957W        W43811   6.630   4.110  15.844 -0.1869  0.2938 -0.1529
24958W        W43812   1.450   5.741  15.155 -0.2020  0.1174 -0.3347
24959W        W43813   9.040   7.075  11.270 -0.0622 -0.0113 -0.2576
24960W        W43814  17.513   1.187  12.350  0.3374 -0.0668  0.0489
24961W        W43815   0.364  16.573   5.713  0.0663 -0.1827  0.0317
24962W        W43816  10.787  15.389   1.606 -0.1871  0.0558 -0.1253
24963W        W43817  12.463   2.125  15.786  0.0638 -0.3442 -0.0951
24964W        W43818  15.359   9.363  15.932 -0.1510 -0.2628 -0.0388
24965W        W43819  14.822   9.373   0.424  0.1768 -0.1710  0.0094
24966W        W43820   8.153   1.982  15.847 -0.1673 -0.0476 -0.0501
24967W        W43821   4.241   5.354   0.962 -0.0683 -0.1591  0.2520
24968W        W43822   6.428   5.931  15.106 -0.2906  0.1677 -0.0447
24969W        W43823   7.826  11.244   2.294  0.2184  0.2363  0.0996
24970W        W43824  10.683   6.748   2.067  0.1363 -0.3083 -0.0819
24971W        W43825   7.524   7.937   3.158 -0.0093  0.2198  0.0003
24972W        W43826  15.712  15.792   4.452 -0.1845 -0.1521 -0.1960
24973W        W43827   2.130   1.183  11.818 -0.0820  0.1663 -0.1921
24974W        W43828   4.835   9.804  13.786  0.1410 -0.1108 -0.0358
24975W        W43829  15.343   8.586  15.316  0.0887  0.0905 -0.1272
24976W        W43830   4.584  10.512  13.651 -0.0853 -0.0596  0.0868
24977W        W43831  13.889   9.291  12.571  0.4503 -0.0519 -0.3197
24978W        W43832   8.433   1.513   0.465 -0.0868 -0.0574 -0.2659
24979W        W43833   4.723   8.945  14.426  0.2146 -0.0052  0.1525
24980W        W43834  14.512   3.577   0.752  0.3292 -0.0219 -0.1637
24981W        W43835   2.806  12.885   4.093  0.4431  0.3767  0.0341
24982W        W43836   2.408   4.546  14.671 -0.1541 -0.1795 -0.2694
24983W        W43837  10.837   7.805  14.922 -0.1885 -0.0361  0.0937
24984W        W43838   4.644  15.183   4.920  0.0145  0.1409 -0.2299
24985W        W43839   8.837   8.589   5.044 -0.0120 -0.1877 -0.2936
24986W        W43840   7.828  12.531   4.715  0.1728 -0.1356 -0.2085
24987W        W43841  16.001   2.193  15.346 -0.0150  0.2161 -0.0046
24988W        W43842  15.212   7.850  12.441  0.2053  0.1114  0.1404
24989W        W43843   0.834  16.897   4.558 -0.0093  0.2354  0.0871
24990W        W43844  10.178   7.695  13.578 -0.2533  0.1394  0.0969
24991W        W43845   6.349  12.257  11.426 -0.3223 -0.3015  0.0643
24992W        W43846  15.971  11.365  13.311 -0.1175  0.0577 -0.0023
24993W        W43847   7.428  12.080   4.771 -0.0289  0.0054  0.2828
24994W        W43848  17.706   8.935  14.865 -0.1966 -0.0489 -0.0112
24995W        W43849   1.549   2.426  13.210  0.0227  0.0269 -0.2184
24996W        W43850   8.410  10.531   3.560 -0.0694  0.3197  0.0706
24997W        W43851   5.734   7.877   3.367  0.0819  0.1647  0.2792
24998W        W43852   0.921  16.175  14.599 -0.2744  0.1516  0.2058
24999W        W43853   0.027   2.664  13.629  0.4386 -0.0237 -0.2238
25000W        W43854   7.982   7.952   4.274  0.1924  0.1547 -0.1327
25001W        W43855   7.863   6.755  11.880  0.2755  0.2104 -0.1026
25002W        W43856   4.380   1.401   4.308  0.3844 -0.0362  0.1384
25003W        W43857   4.532   5.437   1.322 -0.0413 -0.0859 -0.3024
25004W        W43858   7.038   8.760   1.163  0.1450  0.0914  0.0564
25005W        W43859  11.675  11.692  16.067 -0.0190 -0.0771 -0.1639
25006W        W43860  16.284  17.229  14.446  0.0520 -0.1603 -0.1667
25007W        W43861   6.996  16.868   1.341 -0.0135  0.1654 -0.2049
25008W        W43862  17.567   1.137  13.392  0.3378 -0.0088  0.3135
25009W        W43863  17.983  13.895   4.110  0.2181  0.2358  0.0973
25010W        W43864  14.400  15.503  14.293 -0.1174 -0.2432  0.0230
25011W        W43865  10.435  17.173   0.091  0.2239 -0.1167  0.0784
25012W        W43866  13.776  10.705   5.230 -0.0293 -0.3336 -0.0693
25013W        W43867   0.044   6.371   4.277  0.0827  0.0309 -0.0117
25014W        W43868   9.455  10.048  16.145 -0.0457 -0.4789 -0.0539
25015W        W43869  11.244  12.414   4.094 -0.0365  0.2009  0.1944
25016W        W43870   4.639   3.241  12.036  0.0487 -0.3149 -0.0235
25017W        W43871   5.275  10.146  10.183  0.3163  0.0137 -0.0083
25018W        W43872   2.878  14.180  13.149 -0.2921 -0.2465 -0.1074
25019W        W43873   4.136  15.296   2.455 -0.1532 -0.3971  0.0623
25020W        W43874  11.195   2.436  15.947  0.0457 -0.2929 -0.0362
25021W        W43875   3.183  17.062   3.690 -0.1680 -0.0471  0.0638
25022W        W43876   6.339   2.828   2.173 -0.0112  0.1417  0.2299
25023W        W43877   5.271  16.403   3.869  0.0795 -0.0400  0.2014
25024W        W43878  17.291   4.922  13.505  0.0380 -0.0309  0.1096
25025W        W43879  14.583   2.428   5.071  0.0070  0.0734  0.1825
25026W        W43880  16.541  10.371   1.157  0.2022  0.2653 -0.1021
25027W        W43881   9.434   8.750  12.902  0.3998 -0.1988  0.2048
25028W        W43882   0.417   6.870  13.226  0.2035 -0.3818 -0.0795
25029W        W43883  17.808   7.670   0.817 -0.0523  0.0992 -0.1601
25030W        W43884   9.732   0.762   1.891 -0.1895 -0.1930 -0.1824
25031W        W43885   6.138  13.515  15.422 -0.0989  0.3075  0.1038
25032W        W43886   5.015  11.362   3.763 -0.2437  0.0056  0.0820
25033W        W43887  14.812   7.837  12.768 -0.2968  0.0167  0.1540
25034W        W43888   0.697   6.185  13.657  0.1436  0.2142 -0.2236
25035W        W43889   6.112   0.747   1.701 -0.0704 -0.2792  0.1992
25036W        W43890  12.115   7.346   3.437  0.1061  0.0799  0.2312
25037W        W43891   8.879  16.475   3.299 -0.1233 -0.0846  0.2237
25038W        W43892   3.234  17.952   2.548 -0.1961 -0.1262  0.0270
25039W        W43893  10.314  16.104  12.912  0.1491 -0.1993 -0.2637
25040W        W43894   5.371  12.775  12.734  0.3351 -0.2123  0.1872
25041W        W43895  13.956  10.034  11.234  0.1602  0.0061  0.0042
25042W        W43896   3.890  11.302  15.506 -0.1772 -0.0990 -0.1217
25043W        W43897   3.586  10.076   1.795  0.0890 -0.1107  0.1903
25044W        W43898   7.945   7.760  14.933 -0.2103 -0.1877  0.0492
25045W        W43899  10.379   8.429  13.744  0.1826 -0.1426 -0.0894
25046W        W43900  10.993   7.067  11.072  0.1869  0.1108  0.3077
25047W        W43901  12.595   7.107   3.823  0.1106 -0.1316 -0.3475
25048W        W43902   7.548   6.082   3.185  0.1893  0.1079 -0.1412
25049W        W43903  15.587   9.192   0.849 -0.3204 -0.1761 -0.2241
25050W        W43904   0.683   6.565   0.700  0.1664  0.2335 -0.1663
25051W        W43905  16.132  12.578   3.778 -0.0821 -0.1938 -0.1251
25052W        W43906  16.967   7.314  16.022 -0.0277  0.3193 -0.1738
25053W        W43907   2.088  15.263   1.217 -0.2268  0.4481 -0.2217
25054W        W43908   2.029  13.830  12.200 -0.0999  0.0658 -0.2231
25055W        W43909   5.070  12.544  13.050  0.2842 -0.0055  0.1193
25056W        W43910  12.434   7.805  14.528 -0.0443  0.2887  0.1377
25057W        W43911   8.651   7.503  12.837 -0.0232 -0.4180  0.2939
25058W        W43912   2.998   6.104   2.933 -0.1354 -0.0241 -0.0145
25059W        W43913   1.286   9.754  13.305 -0.4009 -0.1104 -0.1279
25060W        W43914  16.281  10.880  12.607  0.1130  0.3183  0.4792
25061W        W43915  13.803  14.110   5.819 -0.1589  0.0546 -0.0854
25062W        W43916   6.325   5.533  15.963  0.0415 -0.0340 -0.2176
25063W        W43917  13.125  10.181  13.361 -0.1095  0.3160  0.0288
25064W        W43918  16.076   9.973  14.351  0.1188 -0.2272  0.1616
25065W        W43919   6.321  16.599  12.126 -0.1457  0.3236  0.0095
25066W        W43920  15.646  14.036   2.804  0.2151 -0.0241 -0.0717
25067W        W43921  14.924  17.464   1.284  0.0618 -0.1154 -0.0092
25068W        W43922   9.183   7.693  12.796  0.1758 -0.3969  0.1713
25069W        W43923  14.114  17.819  15.577  0.0974 -0.1891  0.2413
25070W        W43924   5.296   1.793   0.868  0.1334  0.1746 -0.1218
25071W        W43925   7.512   4.152  15.841 -0.3661 -0.1177  0.1075
25072W        W43926   8.876   2.378  12.370  0.2817  0.2077  0.1879
25073W        W43927  14.330   3.171  13.838  0.2999  0.0450 -0.3362
25074W        W43928   2.266  16.530   1.690  0.4516  0.0363  0.3712
25075W        W43929   8.899   5.077   1.992  0.0383 -0.1449  0.3161
25076W        W43930   3.843   1.223   2.957  0.1981 -0.0561  0.2489
25077W        W43931   0.237  14.089   1.199 -0.2119  0.2470 -0.2573
25078W        W43932  12.463  11.577   0.013 -0.1449  0.2684  0.0482
25079W        W43933   5.934   5.127  13.945 -0.0270  0.3994 -0.2551
25080W        W43934  16.263  14.529  11.642 -0.2954  0.1454  0.0188
25081W        W43935   9.983  13.485  13.004  0.1598 -0.2042  0.4298
25082W        W43936  15.260  14.217   3.089 -0.1863 -0.2474 -0.1619
25083W        W43937   6.172   7.161  11.710 -0.1293  0.0951 -0.0999
25084W        W43938  11.304   6.334  14.762 -0.1449  0.1220 -0.0639
25085W        W43939  14.051   4.479  14.938 -0.1915 -0.3174 -0.1413
25086W        W43940   7.857   0.590   2.593 -0.0207  0.0540 -0.2988
25087W        W43941   2.945   6.205  13.614  0.0963 -0.0496 -0.0637
25088W        W43942  12.617   7.472  14.164 -0.1712  0.0794  0.0055
25089W        W43943  15.338  14.148  13.375 -0.0302  0.0813  0.1423
25090W        W43944  14.850   6.977   3.428 -0.0478 -0.0623 -0.3022
25091W        W43945  13.462  10.537  12.593  0.0026  0.1714  0.1121
25092W        W43946  12.180   1.149  15.971 -0.3408  0.1121 -0.0075
25093W        W43947  17.074  14.185  11.891  0.2837 -0.0581  0.2809
25094W        W43948   1.285   6.477  13.773  0.1638 -0.1061  0.1411
25095W        W43949   6.908   1.401  13.708  0.1082 -0.2492  0.1457
25096W        W43950  10.597   5.397   0.471 -0.0821  0.2153  0.2511
25097W        W43951   8.826   2.617  15.819 -0.1658 -0.0314  0.3569
25098W        W43952  13.434  15.553  13.526 -0.2877 -0.1100  0.0825
25099W        W43953   1.224  16.359   0.286  0.0717 -0.0585  0.3678
25100W        W43954  17.012  14.295   0.192  0.0387 -0.2025  0.1248
25101W        W43955   3.262   9.447   4.439  0.1579 -0.1523  0.0327
25102W        W43956  13.103   0.889  12.132  0.2625 -0.2507 -0.0621
25103W        W43957   8.972  17.076  12.375  0.1842 -0.0848  0.3636
25104W        W43958   9.477   8.522  15.998 -0.5617  0.1641 -0.1353
25105W        W43959  14.598  14.939  15.274 -0.0842  0.0911  0.1680
25106W        W43960   5.339   1.387  15.799  0.1927  0.2101  0.0316
25107W        W43961  10.152  14.733  16.155  0.0660 -0.3701 -0.0343
25108W        W43962   6.550   8.984   4.811 -0.1269 -0.0123  0.0091
25109W        W43963   8.418   6.290  13.040 -0.2823 -0.1260 -0.1299
25110W        W43964  14.082   1.010   1.766 -0.2604  0.0895 -0.2045
25111W        W43965  10.132  17.126  15.327 -0.2163 -0.0513 -0.0590
25112W        W43966   6.322   3.640   1.108  0.1499  0.0700  0.1075
25113W        W43967   7.452   1.386  16.106 -0.0268 -0.1506  0.2003
25114W        W43968  12.122   6.780  11.418 -0.0498 -0.0794  0.0962
25115W        W43969  16.064   9.356   0.600  0.2982 -0.0376  0.1699
25116W        W43970  15.729   3.101   0.739  0.0962  0.0890  0.0845
25117W        W43971   1.283  14.905  16.175 -0.0469 -0.1413 -0.1562
25118W        W43972  14.309   3.458   3.693 -0.2488 -0.1899  0.1494
25119W        W43973   7.143  15.893   1.852  0.0002 -0.1226 -0.1121
25120W        W43974   7.029   8.444  13.118 -0.4237  0.0386 -0.1484
25121W        W43975   9.897   0.991  12.499 -0.0585  0.0233  0.0966
25122W        W43976   0.155   5.407  10.769 -0.0615 -0.2081 -0.3470
25123W        W43977   5.905   4.549   4.122 -0.0969 -0.3303 -0.0761
25124W        W43978  15.514  14.442  15.841 -0.2248  0.2520 -0.0341
25125W        W43979  11.614   6.491   4.241  0.1495  0.0708  0.2189
25126W        W43980  16.818  12.506   1.404 -0.1047  0.1868  0.0963
25127W        W43981   8.027  13.814  13.205 -0.4641  0.1193  0.1182
25128W        W43982   2.705  10.321  15.478 -0.1124  0.0408  0.1434
25129W        W43983   7.034   4.422  12.648 -0.1376  0.2007 -0.1562
25130W        W43984  17.869  13.141  11.740 -0.3226  0.1544 -0.0922
25131W        W43985   5.220   1.480   3.975 -0.0385 -0.0961 -0.0156
25132W        W43986   4.299   9.270   2.912 -0.1755  0.2105  0.0705
25133W        W43987  11.535   8.372   1.464  0.0550 -0.0841  0.1945
25134W        W43988   0.612  12.462  15.831 -0.1996 -0.0142  0.1270
25135W        W43989   1.999   6.044   0.484  0.1112 -0.1435  0.0790
25136W        W43990  17.139   4.542  14.390  0.0334 -0.0688 -0.3305
25137W        W43991  12.445  15.402   1.070 -0.0630 -0.1023 -0.3350
25138W        W43992  14.667   2.524   0.267  0.1426  0.1952  0.1037
25139W        W43993   7.910  14.206   0.716 -0.0930 -0.1228 -0.4549
25140W        W43994   7.463   8.701   2.106 -0.0006  0.0012  0.0126
25141W        W43995   9.063   3.338   0.897  0.3404  0.1022 -0.2820
25142W        W43996  12.515   6.961  13.083  0.3962  0.1426  0.1726
25143W        W43997   6.667   6.305  16.007  0.1498 -0.2412  0.1098
25144W        W43998   5.955  10.447   3.901  0.2089 -0.1225  0.0990
25145W        W43999   1.382   1.782  11.953 -0.0409  0.1534 -0.1577
25146W        W44000  16.656   6.547  13.536  0.0307  0.2314  0.0412
25147W        W44001   1.931   1.845   2.216 -0.0697  0.0142 -0.4376
25148W        W44002   7.110   7.685   0.593 -0.2311 -0.0086 -0.0793
25149W        W44003  14.397   5.923  12.132  0.3765 -0.1683 -0.2294
25150W        W44004  10.958  11.677   0.636  0.1233  0.3520  0.0005
25151W        W44005   9.176  16.773   4.772  0.0196 -0.1194 -0.0755
25152W        W44006  12.151   3.669  14.412 -0.1456 -0.1683  0.1810
25153W        W44007   3.500  11.594   0.048  0.1018 -0.1348  0.0123
25154W        W44008   3.790  15.347   5.809  0.1916 -0.1768 -0.0223
25155W        W44009   5.276   7.218   3.903  0.0933 -0.2750 -0.2677
25156W        W44010  10.713  11.693  14.024 -0.0164  0.0269  0.1403
25157W        W44011   2.973   3.401   3.324 -0.1205  0.1524  0.0352
25158W        W44012   3.620  17.009   2.108  0.1233  0.1643  0.3064
25159W        W44013   5.720   9.117  14.813 -0.1256 -0.1603 -0.2009
25160W        W44014   1.726  11.358   1.568  0.0376  0.0990  0.0105
25161W        W44015   1.423  11.885   0.469 -0.1228  0.1536 -0.1422
25162W        W44016  17.893  12.947  12.610 -0.1107 -0.0500  0.0821
25163W        W44017   1.136   6.617  11.564  0.0254 -0.0665 -0.3154
25164W        W44018  17.403   8.592   1.695 -0.0130 -0.0525 -0.0557
25165W        W44019   8.294  11.220   2.372 -0.1723  0.0029 -0.0022
25166W        W44020  13.577  17.365  14.978 -0.0385 -0.0956  0.2411
25167W        W44021  15.129  10.120  15.446  0.0969 -0.0690 -0.0169
25168W        W44022  13.861  15.322  14.766  0.1547 -0.0173 -0.1514
25169W        W44023   2.756   2.808  12.504 -0.1539 -0.0447 -0.0230
25170W        W44024  14.873  10.136   2.027  0.1265 -0.2576 -0.0102
25171W        W44025   8.124   8.221  14.727  0.0303 -0.1399 -0.1103
25172W        W44026  10.050  10.699  12.897  0.1079  0.0100  0.0140
25173W        W44027  10.626   3.036   3.437  0.2511 -0.0977 -0.2112
25174W        W44028  12.058   4.909  14.664  0.0859 -0.0245 -0.0641
25175W        W44029  12.583   8.811  13.163 -0.0045  0.3282 -0.1549
25176W        W44030  10.208  11.744   5.043 -0.2084  0.3461  0.2596
25177W        W44031   0.333  16.893  15.859 -0.1092  0.2145 -0.1154
25178W        W44032   8.515   9.711  16.122  0.1507  0.2796  0.0520
25179W        W44033  14.391   3.846   0.096  0.2654  0.0100  0.2785
25180W        W44034  15.186   1.360  13.720  0.0640  0.0175  0.0865
25181W        W44035  14.679  16.876   2.476 -0.0346  0.2933  0.3049
25182W        W44036   9.016   9.917  14.435 -0.1318 -0.0454 -0.0484
25183W        W44037  12.771   3.098  14.863 -0.1695 -0.2822 -0.0182
25184W        W44038  13.136  10.233  14.859  0.1434  0.1030 -0.2598
25185W        W44039   8.031  11.409  14.078  0.2810  0.3676  0.0594
25186W        W44040  11.589  13.996  15.898  0.2447  0.2227  0.0393
25187W        W44041  12.529  15.600   3.941 -0.2702  0.1840 -0.0599
25188W        W44042   9.340   2.627   2.542 -0.1703  0.0075  0.2301
25189W        W44043   0.833  10.028   0.345  0.1420  0.1705 -0.0756
25190W        W44044   7.757  11.456   2.713 -0.1296  0.0258  0.0061
25191W        W44045   9.720  16.321   3.200  0.2415 -0.1382  0.2458
25192W        W44046   6.990  11.048   1.089 -0.1508 -0.1640  0.1731
25193W        W44047  11.941   4.191  16.071 -0.2135  0.0296 -0.0712
25194W        W44048   3.971   9.342  13.437  0.1425 -0.2275 -0.1814
25195W        W44049   5.045   9.126   3.342  0.0210 -0.0662  0.2288
25196W        W44050  10.406  16.933   4.194  0.1475 -0.0325 -0.1371
25197W        W44051  13.208   5.060   2.101 -0.0729 -0.1575 -0.0536
25198W        W44052   1.926   4.632   0.876  0.2382 -0.1029  0.3504
25199W        W44053   7.737   6.544   3.282  0.1400 -0.0073  0.2663
25200W        W44054  17.014   0.738  15.623 -0.0390  0.2683 -0.0382
25201W        W44055   8.596   3.280  15.847 -0.0185  0.1858 -0.2195
25202W        W44056  10.554  11.232  13.086  0.1242 -0.0293  0.0739
25203W        W44057   6.103  16.366  13.422 -0.1304  0.3460  0.0409
25204W        W44058  11.866   0.924   4.707  0.2636 -0.0925  0.1581
25205W        W44059   4.358   0.986   0.294  0.0559  0.3439  0.0666
25206W        W44060  12.881   1.550   2.076 -0.3254 -0.0176  0.1311
25207W        W44061  11.633   7.325  11.403 -0.0942 -0.0532  0.1933
25208W        W44062  17.706   4.645  12.535  0.1731 -0.1198 -0.1257
25209W        W44063  14.823   0.656  12.156  0.2770  0.2156 -0.0755
25210W        W44064   5.082  10.703   1.732 -0.2168 -0.4499  0.0713
25211W        W44065  14.631  16.904   1.057  0.0701  0.0656 -0.0304
25212W        W44066  13.957   8.187  13.326 -0.1613  0.0048  0.2249
25213W        W44067   8.227  10.812  14.608  0.1419  0.3814  0.1826
25214W        W44068  14.976  15.705   1.977 -0.0051  0.2412  0.1314
25215W        W44069  11.509   4.197   0.539 -0.0027  0.0444  0.1120
25216W        W44070  10.205  11.875   0.183  0.1188 -0.0673 -0.0410
25217W        W44071   6.210  16.810   2.841 -0.1208 -0.2367 -0.3286
25218W        W44072  15.935   0.997  13.418 -0.2692  0.0105 -0.1618
25219W        W44073  16.885   7.808   1.886  0.2401  0.1661 -0.0331
25220W        W44074  13.028   3.834   4.471 -0.3075  0.2250 -0.0402
25221W        W44075   9.413  14.694   4.366 -0.2104  0.1191  0.1957
25222W        W44076  16.734  12.148  13.887  0.1668 -0.0673  0.0124
25223W        W44077  12.888   3.225  15.624  0.1346 -0.2121  0.3799
25224W        W44078   3.701  17.831  14.470  0.2450 -0.0996  0.1113
25225W        W44079  11.750   6.578   3.729 -0.0392 -0.2696  0.0757
25226W        W44080  11.127   2.250  14.245 -0.0386 -0.1380 -0.1167
25227W        W44081   1.765   5.000   3.654 -0.0055  0.0073 -0.0577
25228W        W44082   3.166  14.735  12.440  0.1054 -0.2814  0.1533
25229W        W44083   8.798  15.364   4.586  0.3630 -0.0224 -0.0103
25230W        W44084   3.107   3.674  13.758  0.0224 -0.1043  0.0924
25231W        W44085   0.289  10.365   0.656 -0.1732 -0.0178  0.2108
25232W        W44086   3.207  12.924   2.121  0.2019 -0.0697 -0.0458
25233W        W44087  10.823  17.661  11.764 -0.1460 -0.0301  0.0529
25234W        W44088   0.033   5.521  12.940  0.0556  0.2089 -0.1408
25235W        W44089   7.041   6.643  12.842  0.0449  0.0620  0.2692
25236W        W44090   2.707   8.362   3.949  0.1590  0.0609 -0.0690
25237W        W44091  17.842   0.743  15.754  0.0998  0.3745 -0.3053
25238W        W44092   1.706   6.892  13.073  0.0656  0.0825  0.0742
25239W        W44093  12.182   0.883  13.816  0.1956 -0.1886  0.3430
25240W        W44094   0.361  12.685   3.645 -0.3270  0.3186 -0.2317
25241W        W44095  11.729   2.764   1.062  0.0035  0.0313  0.2833
25242W        W44096  12.233   6.878   1.953  0.2195  0.0489 -0.0008
25243W        W44097   3.589   8.874   2.526  0.0893 -0.3226 -0.0989
25244W        W44098  14.142   5.506   1.631 -0.0233 -0.2090  0.0578
25245W        W44099   4.981   5.921   3.685 -0.0536  0.1865  0.0351
25246W        W44100   1.025   4.012   3.088 -0.1238  0.0238 -0.1397
25247W        W44101   5.714  14.753  14.068  0.2790 -0.0183 -0.0671
25248W        W44102   0.293  14.000  14.505  0.0829  0.1574 -0.0519
25249W        W44103  13.960  10.261   1.698  0.1515  0.0757 -0.1427
25250W        W44104  13.796  11.809  15.615  0.1220  0.0561  0.0221
25251W        W44105   5.964  10.551  14.439  0.0428  0.0259  0.0983
25252W        W44106   8.446   6.086   4.526 -0.0179  0.0096  0.1109
25253W        W44107  16.319  10.224  15.218  0.2449  0.1206 -0.2264
25254W        W44108   9.248  11.985  12.838  0.0120  0.2635  0.0067
25255W        W44109   6.539   2.843  11.228  0.2282  0.0762 -0.0563
25256W        W44110   5.203   8.343   1.589  0.2495 -0.5080 -0.2205
25257W        W44111  10.877   3.330   4.023 -0.1602 -0.0292 -0.1451
25258W        W44112   2.537  17.909  15.567 -0.1925 -0.1221 -0.1284
25259W        W44113   4.620   2.572   2.860 -0.1117  0.0219 -0.1051
25260W        W44114  11.074   5.706   4.533 -0.0719 -0.0822 -0.3905
25261W        W44115  12.166  15.916  13.848 -0.1014 -0.1504 -0.2769
25262W        W44116  12.610   4.382  12.678 -0.3392  0.2692  0.0049
25263W        W44117   6.639   3.107   4.548  0.0519 -0.2817  0.3439
25264W        W44118  15.874   7.773   2.624  0.0927  0.0666  0.3805
25265W        W44119   8.434  14.850   0.526  0.0302 -0.4515 -0.0205
25266W        W44120  17.960   2.325   3.133 -0.0008  0.2564 -0.0867
25267W        W44121   1.760   4.756   3.121 -0.0257 -0.2014 -0.3711
25268W        W44122  10.226  15.874  12.298 -0.1514  0.1402  0.2246
25269W        W44123   2.464  15.823   0.436 -0.2232  0.0905  0.0578
25270W        W44124   9.829   5.431  13.581  0.2161 -0.1165  0.0410
25271W        W44125  15.047  17.324   2.526 -0.2186 -0.1842  0.0393
25272W        W44126  12.041   2.043  16.079  0.0126  0.1520 -0.3325
25273W        W44127   0.673   2.494   0.318  0.1498  0.1724 -0.0362
25274W        W44128   0.405  14.490   3.485 -0.2363  0.1837 -0.0520
25275W        W44129   1.570  13.804   4.486 -0.1506 -0.1022 -0.0809
25276W        W44130   8.113  14.390  14.598 -0.0690 -0.1430  0.2116
25277W        W44131   9.933   6.913  15.291  0.1560 -0.0841  0.4283
25278W        W44132   9.487   5.502   1.932 -0.3545  0.2708 -0.0713
25279W        W44133   1.499   0.806   0.149 -0.1919 -0.0335  0.4711
25280W        W44134   2.198   9.114   3.496 -0.3743 -0.0435  0.1581
25281W        W44135  16.957  17.354   1.005  0.1895 -0.1294 -0.0459
25282W        W44136  17.216   1.455  12.652 -0.1994  0.1022  0.1101
25283W        W44137   6.565   3.008   5.508  0.0828 -0.1619 -0.1815
25284W        W44138   3.092  17.648   5.721  0.0880  0.2734  0.2886
25285W        W44139  16.215  10.788  12.067  0.5598 -0.0554 -0.2856
25286W        W44140  15.472   3.006   2.671 -0.0503  0.0265  0.0787
25287W        W44141   1.972  14.671   5.285  0.1406 -0.2979 -0.1446
25288W        W44142  16.535   6.236   4.831 -0.0625  0.1768  0.1190
25289W        W44143  13.069   8.316   2.425 -0.2216 -0.0561 -0.0086
25290W        W44144   8.909  12.547  13.940  0.0276  0.0421 -0.2956
25291W        W44145   9.690  14.617  13.532 -0.0232 -0.0861 -0.0169
25292W        W44146   4.167   5.452  14.091 -0.0646 -0.0695 -0.3426
25293W        W44147   9.424  17.118   3.036 -0.0950  0.1875 -0.0800
25294W        W44148  10.342   4.218  12.994  0.0652  0.0688 -0.0758
25295W        W44149   6.471   4.334  13.987  0.0296 -0.3554 -0.0726
25296W        W44150   1.487   0.517   3.077  0.1187 -0.2008  0.2670
25297W        W44151   9.325  15.088  14.749  0.2802 -0.1958 -0.1134
25298W        W44152  17.998  11.613   0.007  0.0926  0.0406  0.0710
25299W        W44153  17.448   0.124   2.853 -0.2532 -0.0625  0.3797
25300W        W44154   8.379   6.829  12.129  0.1420 -0.0572 -0.0692
25301W        W44155  10.643  13.373  11.833 -0.0288  0.2001  0.2906
25302W        W44156  14.629   0.513   3.908  0.1371  0.2864  0.2178
25303W        W44157   0.590  13.393  11.115  0.0942 -0.0286  0.2614
25304W        W44158  15.924  13.019   5.864  0.0267 -0.2386 -0.2782
25305W        W44159   7.868   6.756   2.101 -0.0182 -0.0265 -0.0041
25306W        W44160   8.977   2.901   2.228 -0.2377  0.0619  0.0634
25307W        W44161  15.383  13.605   1.207 -0.2211  0.2386  0.1028
25308W        W44162   7.440  14.785  12.139 -0.0577 -0.0770  0.0798
25309W        W44163   2.961   7.542  14.143 -0.0621 -0.0396  0.0157
25310W        W44164  17.069  13.764  14.275  0.0295 -0.0707  0.0989
25311W        W44165   0.871  17.113  12.984 -0.0566 -0.0121 -0.1144
25312W        W44166   7.918  10.865  13.053 -0.3173  0.0786 -0.0277
25313W        W44167   8.703   9.622  15.672 -0.0584  0.0791 -0.1959
25314W        W44168  12.016   8.280   3.888  0.2015  0.1692 -0.0433
25315W        W44169   1.364  12.834  16.119  0.0513  0.0911 -0.0085
25316W        W44170   0.860   0.445  11.494  0.1226  0.0612  0.0778
25317W        W44171   2.237   1.244  11.120  0.0127  0.1165  0.0259
25318W        W44172  13.334  11.970   2.517  0.0430  0.2284 -0.1338
25319W        W44173  12.502   3.110   1.318 -0.0189 -0.1447  0.1975
25320W        W44174   3.836  16.008   3.924  0.0128  0.2389 -0.1009
25321W        W44175  11.244   9.387  15.502 -0.0660  0.0442  0.2590
25322W        W44176   6.345   1.167  12.059  0.1376  0.0773 -0.4027
25323W        W44177   3.720   2.829   2.514  0.0099  0.0272  0.0791
25324W        W44178   1.121  10.594  15.852  0.0450 -0.1967  0.0252
25325W        W44179  16.707   9.569  15.221  0.3050 -0.0227  0.2096
25326W        W44180   5.171  14.924   2.108 -0.1197  0.4282  0.3159
25327W        W44181   5.516  12.946  15.107  0.1221  0.1401  0.2650
25328W        W44182   3.539  12.435   2.066  0.1732 -0.0863  0.0683
25329W        W44183  12.802   8.240   1.429 -0.1644  0.0621 -0.0355
25330W        W44184  17.632  16.362  16.024 -0.1319 -0.2640 -0.2309
25331W        W44185  12.020   7.371  12.243  0.3687  0.1118  0.4284
25332W        W44186  17.754  15.307  12.076 -0.0841 -0.1840 -0.0467
25333W        W44187   2.612  17.876  14.174  0.0223 -0.1361 -0.2865
25334W        W44188  13.223   0.439   1.181  0.1385  0.1203  0.1717
25335W        W44189  15.600  15.032   5.168  0.0797  0.2901  0.2395
25336W        W44190   3.793   7.229  14.254 -0.1308 -0.0718 -0.0034
25337W        W44191   9.682   8.112  12.206 -0.1053  0.1798 -0.0605
25338W        W44192   9.666  11.132  11.215 -0.1087 -0.1333 -0.4383
25339W        W44193   7.954  10.527  10.869 -0.0555  0.1653  0.2352
25340W        W44194   0.248   3.470   0.109 -0.3758 -0.1810  0.1396
25341W        W44195  12.664   9.591   1.099  0.0032 -0.0228  0.2524
25342W        W44196   1.851  12.146   1.630 -0.2522 -0.1486  0.0778
25343W        W44197  15.231   4.361   1.921 -0.1535 -0.1220  0.0949
25344W        W44198  17.272  13.906  15.519  0.1670 -0.0746  0.1684
25345W        W44199   2.610   7.779   0.991  0.0447 -0.2749 -0.0588
25346W        W44200  13.278  11.824   4.728 -0.0042 -0.3786 -0.0398
25347W        W44201  13.424   1.570   1.814  0.2990  0.3210  0.0085
25348W        W44202   7.546   9.804  14.595 -0.1934  0.0359 -0.1756
25349W        W44203  13.610   6.488   1.701 -0.3482 -0.0705 -0.4326
25350W        W44204   2.368  15.749   2.185  0.0835 -0.0364 -0.1728
25351W        W44205  16.696  11.072   2.840  0.3823 -0.0254  0.0816
25352W        W44206   8.159  10.281   3.084  0.2821  0.1401 -0.0585
25353W        W44207   7.197   4.746  13.987  0.1522 -0.0656 -0.0130
25354W        W44208  15.691  17.930  14.791  0.0426 -0.2061  0.4388
25355W        W44209   5.254   3.831  13.399  0.1753 -0.3260 -0.3583
25356W        W44210   4.583  17.817  14.172  0.1229  0.0080  0.0133
25357W        W44211   1.672  10.617  12.538 -0.2134  0.1060  0.2167
25358W        W44212  13.172   2.780   2.394  0.1336  0.1665 -0.3090
25359W        W44213   1.849   4.453   5.211  0.0916 -0.0683  0.0298
25360W        W44214  17.417   2.244   2.570 -0.1015 -0.2115 -0.1428
25361W        W44215   3.032   0.220  14.377 -0.2925  0.3439 -0.0944
25362W        W44216   0.029   6.735  14.070 -0.0496  0.0161 -0.1388
25363W        W44217  13.192  17.999   0.523 -0.0191 -0.1462  0.2017
25364W        W44218  14.411   0.527  16.042 -0.1241  0.0984  0.1423
25365W        W44219   5.497   0.981  16.116 -0.1527  0.0056  0.1572
25366W        W44220  14.031  14.570   2.805 -0.1794  0.3467 -0.2148
25367W        W44221  13.981   0.346  11.999  0.0458 -0.0074  0.2830
25368W        W44222   7.895   2.883  15.404 -0.1865 -0.1214  0.1550
25369W        W44223   3.386   5.225  13.860 -0.1161  0.2247 -0.1793
25370W        W44224   6.088  14.832  12.118  0.0158  0.3328 -0.0412
25371W        W44225  11.540   2.882   0.353  0.0830 -0.1861 -0.0221
25372W        W44226   2.991  16.745   4.026 -0.1095 -0.1175 -0.0312
25373W        W44227   5.556   4.690   0.497 -0.2022  0.0689  0.3502
25374W        W44228   2.169  14.420  13.832  0.0016 -0.1539  0.1870
25375W        W44229   6.916  11.641   4.675  0.0148  0.0351  0.2318
25376W        W44230   4.382  12.956   4.486 -0.0598 -0.1200 -0.0738
25377W        W44231  15.664   3.068  12.162  0.2413  0.0602 -0.3546
25378W        W44232   1.926   3.169  11.852 -0.1171 -0.1943 -0.0647
25379W        W44233  13.743   6.162  14.372 -0.2252 -0.1355  0.0172
25380W        W44234  17.548   8.944  11.920  0.2003  0.0279  0.4451
25381W        W44235   0.540  17.538   3.319  0.0290  0.1234  0.1402
25382W        W44236   4.767   8.081  15.513 -0.0970 -0.0825  0.0250
25383W        W44237   2.528   7.039  15.420 -0.0894  0.2084  0.1684
25384W        W44238  17.124   8.903  14.317  0.0313 -0.1014  0.1183
25385W        W44239   4.524  14.922  12.722 -0.0068  0.0782 -0.3169
25386W        W44240   8.432  15.191   1.991  0.3647 -0.0595  0.1150
25387W        W44241  13.905  10.883  14.825  0.0524  0.2188  0.0708
25388W        W44242  12.450   6.799   4.616  0.0887 -0.0313 -0.1994
25389W        W44243   4.914  17.390   2.063 -0.1610 -0.3136  0.0170
25390W        W44244   4.923   8.512  15.753 -0.1938 -0.3627 -0.0716
25391W        W44245  10.518  14.457  11.178  0.1910 -0.2089 -0.3548
25392W        W44246  15.475  12.203   3.479 -0.0019 -0.0645 -0.1164
25393W        W44247  15.106  12.027   4.557 -0.1198 -0.3034 -0.1375
25394W        W44248   9.218  13.473  13.293  0.5995  0.1125  0.0082
25395W        W44249  15.718   1.604  16.034 -0.2342 -0.0901 -0.1219
25396W        W44250  10.633  16.214  14.265  0.0303 -0.0001  0.4545
25397W        W44251  15.551   7.629   0.806 -0.1928  0.1504 -0.2030
25398W        W44252  14.921   9.914   4.369 -0.3481  0.1038  0.0791
25399W        W44253   3.554   8.396   2.558  0.0937 -0.4320 -0.0486
25400W        W44254   6.570   3.533  15.512  0.0086 -0.0820 -0.1726
25401W        W44255   5.334  12.741   2.892  0.0333  0.4096  0.0823
25402W        W44256   8.934   2.707   2.906 -0.1083  0.1817  0.3463
25403W        W44257   5.516   3.342   0.505  0.0374  0.1850 -0.1190
25404W        W44258  15.714   9.519   2.283 -0.0285 -0.2686  0.1459
25405W        W44259   0.841   0.002  13.888  0.1183 -0.0523  0.2204
25406W        W44260  14.751  18.013  11.109  0.1322  0.0766  0.0112
25407W        W44261   6.486  16.574  16.128  0.1984 -0.2404  0.1101
25408W        W44262   8.011   3.501  13.504  0.0160  0.0226 -0.1530
25409W        W44263  10.792  15.432  13.560  0.0354  0.0927  0.1134
25410W        W44264   1.574  17.068   1.913 -0.0785  0.1659 -0.0586
25411W        W44265   7.709   8.232   1.721 -0.0004 -0.0476  0.1858
25412W        W44266  16.643  17.435   2.727  0.1390 -0.0204  0.1031
25413W        W44267   2.301  11.631  13.120 -0.3099  0.0931  0.4563
25414W        W44268   8.914   7.670  13.502  0.1955  0.2375  0.0975
25415W        W44269   5.980   9.909   2.631 -0.1115  0.2169  0.0317
25416W        W44270  12.938   6.726   0.201 -0.0595  0.0409  0.1599
25417W        W44271  10.106  13.776   3.407 -0.0373 -0.1281 -0.0894
25418W        W44272   3.127  16.678  12.268 -0.0117  0.0835  0.0282
25419W        W44273   0.540  12.619   2.697  0.0992 -0.2327  0.1774
25420W        W44274  17.655   8.882   4.062  0.0054  0.4772 -0.1294
25421W        W44275   8.544  14.644  11.487 -0.5394  0.1830 -0.2183
25422W        W44276  15.305   9.704   1.544 -0.2519 -0.0478  0.2490
25423W        W44277   7.839   8.208  12.002  0.0912 -0.1220  0.2340
25424W        W44278  12.888  13.714  15.851 -0.1114 -0.0303  0.0987
25425W        W44279  15.379   7.420   0.384  0.1262 -0.0176 -0.0756
25426W        W44280  17.884  10.752   2.820 -0.2603  0.0786 -0.0003
25427W        W44281   8.369   0.735   4.509 -0.2534  0.1572 -0.0314
25428W        W44282   7.037  16.057   4.612  0.3168 -0.3478  0.0966
25429W        W44283   7.646   9.369   1.150 -0.3426  0.1356 -0.1874
25430W        W44284   6.432   8.520   4.988  0.2589  0.0921 -0.0412
25431W        W44285   6.933   1.353  15.969  0.1278 -0.0500  0.1731
25432W        W44286  14.042   1.807  12.563  0.1248 -0.3735  0.0762
25433W        W44287   4.762  17.134  14.840 -0.2413 -0.3513  0.3907
25434W        W44288  14.878  17.109  13.299 -0.0498 -0.1427 -0.0121
25435W        W44289  11.663   2.270  15.635  0.0828  0.0789 -0.0311
25436W        W44290  15.938  12.477   1.097 -0.0823 -0.1481 -0.1001
25437W        W44291   8.194   6.391   2.271  0.2508  0.3563  0.0656
25438W        W44292   1.518   1.885  12.835  0.1334 -0.2965  0.1130
25439W        W44293   6.071   1.550  12.414  0.2172  0.2527  0.0479
25440W        W44294   7.644   7.392  11.799  0.0375 -0.0769 -0.0640
25441W        W44295  14.745  15.570   4.182  0.0429 -0.2374 -0.0937
25442W        W44296  18.008   5.545  13.561  0.0621 -0.0928 -0.0770
25443W        W44297   4.325   6.115  14.985  0.2003  0.0975  0.1937
25444W        W44298   7.084   6.472  15.647 -0.0776  0.2717  0.1534
25445W        W44299   9.577  16.072   1.883 -0.0731  0.2524  0.1491
25446W        W44300   8.821   4.449  11.910 -0.2115  0.0324  0.1369
25447W        W44301  12.839   9.493   5.015 -0.2205  0.0955  0.0551
25448W        W44302   3.556  10.127  11.002  0.2953 -0.2862 -0.0068
25449W        W44303  17.242  14.457   1.010  0.2604 -0.0067 -0.1151
25450W        W44304  11.209   6.415   0.783  0.4185 -0.0538 -0.1149
25451W        W44305   5.649   4.999   2.366 -0.1099 -0.0651 -0.1321
25452W        W44306  10.150  15.070  11.912 -0.0622 -0.0834  0.2659
25453W        W44307   3.131  12.064   1.261 -0.1069 -0.0539 -0.2301
25454W        W44308  16.145  17.889  14.554 -0.2856  0.1719 -0.3256
25455W        W44309  11.678   4.699  11.436  0.1126  0.0875  0.0415
25456W        W44310  14.712   4.753  12.318 -0.1748  0.0450 -0.1682
25457W        W44311  16.672   5.681   3.920 -0.1625 -0.0957  0.0789
25458W        W44312   0.831  11.864  12.901 -0.0729  0.0471  0.0352
25459W        W44313   6.576   9.301  12.337 -0.0488  0.0002 -0.0132
25460W        W44314  13.078  10.176  15.342  0.1924 -0.0244 -0.0823
25461W        W44315  14.746  12.423   1.848  0.0338 -0.4433  0.2447
25462W        W44316  15.331   9.017  13.421 -0.0856 -0.2478 -0.1806
25463W        W44317   2.942  13.607  14.845  0.0333 -0.0083  0.0768
25464W        W44318  12.751   3.507   1.542  0.1236  0.0326 -0.2286
25465W        W44319  11.084  16.519   2.450  0.2724  0.2356 -0.0775
25466W        W44320  10.645   0.558   2.900 -0.5011 -0.0878  0.0188
25467W        W44321   9.617   6.678  15.952 -0.1725  0.0452  0.0803
25468W        W44322  13.260  13.468   3.921 -0.0592 -0.2943  0.1290
25469W        W44323  15.099   4.343  16.212 -0.2350  0.0791 -0.2618
25470W        W44324  10.655   8.266  14.791 -0.0865  0.1956 -0.1533
25471W        W44325   2.843  12.815   0.250 -0.1115 -0.0764  0.1255
25472W        W44326  11.028  16.510   0.837  0.1606 -0.0297 -0.5656
25473W        W44327  17.930  15.942   3.492 -0.3192  0.2876 -0.0907
25474W        W44328  16.638   9.005  14.665 -0.0090  0.3333 -0.0194
25475W        W44329   4.253   2.525  15.503  0.1367 -0.0049  0.0059
25476W        W44330  13.849  14.522  13.595  0.2955 -0.2511  0.0890
25477W        W44331  17.812   1.794  15.127  0.2810  0.1250 -0.3316
25478W        W44332   2.441   1.019   4.774  0.1512 -0.1641 -0.2966
25479W        W44333  11.742  11.034   0.782  0.0087 -0.2433  0.1082
25480W        W44334   0.611  17.702   4.261 -0.0539 -0.0247  0.4499
25481W        W44335  10.164  12.936   0.456  0.0803  0.1704 -0.3679
25482W        W44336   3.369   4.947  13.019 -0.0399 -0.3215 -0.0015
25483W        W44337  15.924  15.965   2.898 -0.1031  0.1077  0.1800
25484W        W44338   5.663  12.638  15.767 -0.1211 -0.0884  0.0941
25485W        W44339   7.818   8.228   0.721 -0.0600 -0.1874 -0.1786
25486W        W44340   8.622   6.334   1.212 -0.1494  0.1539  0.0081
25487W        W44341   8.532   5.405  14.511  0.0543  0.1040 -0.0687
25488W        W44342   2.567   6.095  13.203 -0.0852 -0.2396  0.1459
25489W        W44343   0.173  15.785   3.066 -0.0625 -0.1972  0.0066
25490W        W44344   7.101   3.017   1.675 -0.1978 -0.1841  0.1595
25491W        W44345  12.260  16.431  11.502  0.2871 -0.1147 -0.3515
25492W        W44346   2.207   8.487   2.358 -0.0586 -0.2210 -0.0106
25493W        W44347   4.056  12.539   2.124 -0.1068  0.0544 -0.1691
25494W        W44348  16.731  13.580   2.238  0.2403  0.0960  0.1824
25495W        W44349  14.362  17.616  15.207 -0.0961 -0.0080  0.1715
25496W        W44350  10.944   7.060   3.333 -0.1825  0.0559  0.0161
25497W        W44351  14.046  17.301   2.349  0.1100  0.2834  0.1540
25498W        W44352   7.996  17.243   2.723 -0.0860  0.0010  0.0889
25499W        W44353   8.260   4.456   0.683  0.2040  0.0722 -0.1267
25500W        W44354   6.073   8.576  12.178  0.0535 -0.1636 -0.0630
25501W        W44355   0.645   1.040  13.013  0.0757  0.2782  0.1279
25502W        W44356   1.898  10.731   0.873  0.0763  0.0608  0.1910
25503W        W44357   4.192   5.877  13.134 -0.0976 -0.2116 -0.1418
25504W        W44358   4.731   4.302   0.453 -0.2128  0.0314 -0.1473
25505W        W44359   9.527  15.494  14.463 -0.0732 -0.0006  0.0965
25506W        W44360   5.436   9.373   4.689 -0.3444 -0.1990  0.0604
25507W        W44361  14.323   3.022  15.873  0.0680  0.0560  0.0572
25508W        W44362  13.832  11.441  16.042  0.1441  0.2107  0.1477
25509W        W44363  13.218  15.312  13.053  0.0133  0.3255 -0.0403
25510W        W44364  11.277   5.916   0.723  0.0850  0.1416  0.0602
25511W        W44365   7.081   3.395   4.667 -0.1835  0.0514 -0.0123
25512W        W44366  16.791  12.781   2.265 -0.2936  0.2211 -0.1082
25513W        W44367  12.369  10.999  15.174  0.2021  0.0687  0.3229
25514W        W44368   6.535  17.135   1.986 -0.0874 -0.0114 -0.0305
25515W        W44369  10.246   3.743   1.215  0.0264  0.4786  0.0982
25516W        W44370   0.514  12.886   4.815 -0.0096  0.0891 -0.2186
25517W        W44371   6.043   5.071  14.922 -0.0643  0.0860 -0.1177
25518W        W44372   8.095   9.763  13.381  0.3648  0.2253 -0.1613
25519W        W44373   7.570  13.836  15.704 -0.0952  0.0319  0.3120
25520W        W44374   1.102   8.635   0.511 -0.0172 -0.2909 -0.2703
25521W        W44375   1.089  17.368   1.068  0.2102 -0.0475  0.3604
25522W        W44376   1.138  11.596  13.138 -0.2665  0.0736 -0.0494
25523W        W44377  11.535  17.364  15.300  0.1359 -0.0553 -0.0008
25524W        W44378   4.967   3.343   4.404  0.1309  0.4266 -0.1002
25525W        W44379   0.697   7.553   2.859  0.0593 -0.0278  0.0556
25526W        W44380   2.232   6.609  12.533 -0.3253 -0.1694 -0.2374
25527W        W44381  16.118  14.756   3.355 -0.0030 -0.3106  0.0517
25528W        W44382  17.922   8.357  10.524  0.1975 -0.1227  0.0652
25529W        W44383   2.417  14.306  12.890 -0.0536 -0.2233 -0.0694
25530W        W44384   9.869   9.462  11.570 -0.2216  0.0773 -0.0951
25531W        W44385   5.132  16.261   1.086  0.0083 -0.0495  0.1977
25532W        W44386  10.889   3.372   2.991  0.2360  0.0628 -0.1285
25533W        W44387   8.933   8.005   3.042  0.0542 -0.1451  0.0704
25534W        W44388   2.203   1.787   3.696  0.3261  0.2339  0.3414
25535W        W44389  11.066   4.870   3.764 -0.0499 -0.0537  0.0671
25536W        W44390   3.432   1.543  13.130  0.1512 -0.3573  0.0411
25537W        W44391   4.014   9.286  12.716 -0.1811  0.2228  0.1464
25538W        W44392  14.458   9.407   0.073  0.0499  0.2566  0.0587
25539W        W44393   4.315   1.935  12.038  0.0503 -0.1080  0.4109
25540W        W44394   8.381  14.141   0.588 -0.3078  0.0477  0.0572
25541W        W44395  14.250   4.934  14.058  0.2685 -0.3169  0.1071
25542W        W44396  15.899   9.764   0.297  0.0207  0.1537  0.1539
25543W        W44397  17.562  11.217   4.392 -0.2939  0.3980  0.1399
25544W        W44398  15.371  12.896  12.294 -0.4326 -0.3591 -0.0849
25545W        W44399   9.912   3.444   0.953 -0.0704 -0.0121 -0.0334
25546W        W44400  12.023   6.852  16.028  0.2575 -0.2378  0.1411
25547W        W44401   3.720  12.449  13.584  0.2268 -0.0501  0.1891
25548W        W44402  16.456  15.927  12.210  0.2843 -0.1814  0.0362
25549W        W44403  15.412  16.986  15.738 -0.0974 -0.0285 -0.0567
25550W        W44404  15.708   7.798   0.165  0.0131  0.0177 -0.1697
25551W        W44405  10.584  10.874  14.939  0.1542  0.0159 -0.4255
25552W        W44406   2.710  15.261   2.382  0.2654  0.0649  0.0881
25553W        W44407  12.860  15.074   1.108 -0.2045 -0.1389  0.0004
25554W        W44408   6.292   6.223  13.299 -0.0833  0.4750 -0.1459
25555W        W44409   0.512  17.368  13.802 -0.0511  0.3073  0.2061
25556W        W44410  15.741   6.787   3.507  0.1384 -0.1196 -0.2956
25557W        W44411  11.991  16.259  14.272 -0.0292 -0.0748 -0.0787
25558W        W44412   3.346  17.471  11.917  0.4277 -0.1440  0.0315
25559W        W44413   4.117  11.562  11.758  0.2746  0.3464  0.3444
25560W        W44414  11.407   4.089   2.631  0.0944  0.3417  0.1320
25561W        W44415  16.231   1.487  13.573 -0.2812  0.2660  0.1142
25562W        W44416  14.710   3.615   1.728  0.0819 -0.0589 -0.1104
25563W        W44417   4.894   5.637  11.632  0.1566  0.1210 -0.1773
25564W        W44418   9.516  15.845  16.106 -0.0128 -0.1929 -0.1213
25565W        W44419  17.797  13.105  15.716 -0.0355  0.2324 -0.1691
25566W        W44420   0.737   7.009   2.663 -0.0346 -0.1238 -0.0278
25567W        W44421   3.233  16.739  13.494 -0.2203  0.3227  0.1583
25568W        W44422  10.242   9.874   1.004  0.0505 -0.0543 -0.1180
25569W        W44423   0.717   2.614  12.200 -0.2318 -0.1681  0.1553
25570W        W44424  11.845  13.770  15.019 -0.3427 -0.0476  0.0394
25571W        W44425   3.642   1.827  15.312 -0.3255 -0.0275  0.0673
25572W        W44426  11.531  17.969  16.068  0.0212  0.0649 -0.2294
25573W        W44427  13.986   7.722   0.657 -0.0015  0.0752 -0.0052
25574W        W44428   0.187  13.551   0.860  0.3683 -0.0497 -0.1172
25575W        W44429  13.892  14.397  12.190 -0.0732 -0.0725 -0.2086
25576W        W44430   6.369   9.359  11.836  0.1426 -0.0415 -0.0229
25577W        W44431   7.347  13.249   3.037 -0.0047  0.2175  0.2787
25578W        W44432   7.194   6.039   1.710  0.2295  0.1243 -0.0247
25579W        W44433   5.545  16.062   2.238 -0.2288  0.2902 -0.0196
25580W        W44434   4.481   8.242  15.985 -0.1861  0.2526 -0.0208
25581W        W44435   2.309   9.143   4.083 -0.3132  0.0935  0.1181
25582W        W44436   6.909  15.587   4.560  0.0830 -0.0724  0.1081
25583W        W44437  17.037   0.357   3.963  0.3090 -0.0880 -0.2905
25584W        W44438  17.439   8.589  15.824 -0.2104 -0.0433  0.1592
25585W        W44439   0.676   6.944  15.559 -0.1301 -0.1217  0.0024
25586W        W44440  18.009  13.924  12.371  0.1226 -0.2063  0.2840
25587W        W44441  14.334  10.230   3.469 -0.1327 -0.0688  0.0184
25588W        W44442   9.212   5.694  13.716 -0.0858  0.0391 -0.1686
25589W        W44443  14.305   5.673  11.546 -0.2242 -0.2331  0.1408
25590W        W44444   3.628   4.186   4.839 -0.0120  0.1576 -0.1459
25591W        W44445   1.516   4.149   1.910 -0.1126  0.0003 -0.2324
25592W        W44446  15.637   9.368  13.713  0.2442 -0.0241  0.2224
25593W        W44447  14.474  15.158   2.727  0.0550 -0.3824  0.0481
25594W        W44448  16.325   1.097  10.346 -0.0250 -0.1912  0.2304
25595W        W44449  16.918   7.655  11.332 -0.2149  0.1871 -0.0500
25596W        W44450  12.353  14.162  13.898  0.4954  0.1290 -0.0878
25597W        W44451   6.976  17.080  14.154 -0.0065  0.1211 -0.4089
25598W        W44452  14.674   2.151  12.147  0.1419 -0.3291 -0.0099
25599W        W44453   2.447   5.071   3.507  0.2505  0.3849 -0.0476
25600W        W44454   9.427   0.804  11.596  0.0336 -0.0639  0.2738
25601W        W44455   4.466   7.338   4.191 -0.2207  0.0714 -0.0878
25602W        W44456  13.542   3.837   1.583 -0.2103 -0.0664 -0.2058
25603W        W44457   4.367   7.984   1.489 -0.0707 -0.1158  0.0493
25604W        W44458   6.119   6.186  15.961 -0.2071 -0.0646 -0.2424
25605W        W44459   3.851   6.410   2.297 -0.2340 -0.0590  0.2748
25606W        W44460   7.591  10.355   1.651 -0.1090  0.2122  0.1005
25607W        W44461   5.641  14.992  11.994  0.2388 -0.1193  0.0500
25608W        W44462  16.039  13.565  15.070  0.0946 -0.0326  0.1565
25609W        W44463   1.905  13.029  15.532  0.1025 -0.0805  0.5099
25610W        W44464   2.752   4.553   3.597  0.1170 -0.2890 -0.0274
25611W        W44465  15.249   4.753  15.844 -0.0358  0.0808  0.0203
25612W        W44466  11.152  14.900   0.367  0.0407 -0.3016 -0.0667
25613W        W44467   1.220   3.182   0.818  0.0504  0.0525  0.0629
25614W        W44468  11.868  16.099   4.320 -0.1000  0.1652  0.0329
25615W        W44469   3.904  16.646  15.129 -0.1645 -0.0502 -0.2312
25616W        W44470   4.083   2.435   4.361  0.0363 -0.1911  0.1365
25617W        W44471   5.077   5.502  12.552  0.1467  0.1053  0.0579
25618W        W44472   1.449   5.141  13.115 -0.1612  0.0040  0.0076
25619W        W44473   2.200   1.783  13.469  0.2081 -0.2194  0.1071
25620W        W44474   1.495   5.261   3.147 -0.0633 -0.1027 -0.2564
25621W        W44475  10.808  17.849   4.551  0.0005 -0.0946 -0.1090
25622W        W44476   3.112   0.446   4.432 -0.1060  0.1295  0.1009
25623W        W44477   1.931   6.388   4.345 -0.0722  0.1769  0.1732
25624W        W44478  16.229   6.790  13.765  0.1527 -0.0351  0.3305
25625W        W44479   9.542   8.792   0.207 -0.0148  0.4174 -0.1960
25626W        W44480   6.954  17.254  13.128  0.1569 -0.0061 -0.0748
25627W        W44481   7.799   8.225  15.119 -0.0103 -0.0493 -0.1165
25628W        W44482  13.470  13.915   3.397 -0.3139 -0.2076  0.0239
25629W        W44483   8.834  17.827   3.698  0.1345  0.1645  0.1841
25630W        W44484  10.593   4.953   4.734  0.0137 -0.2812 -0.4610
25631W        W44485   6.489  14.175  13.807  0.0117  0.1160 -0.0759
25632W        W44486   3.371  16.334   4.146 -0.0636  0.1024 -0.1480
25633W        W44487   3.695  15.257   4.870  0.1037 -0.0972 -0.0440
25634W        W44488  16.957   2.850  12.148  0.0268  0.2213  0.0458
25635W        W44489   9.199   0.359   3.030 -0.1046 -0.1400  0.2970
25636W        W44490  14.599   3.765   3.381 -0.1266  0.1585  0.0859
25637W        W44491   3.939   0.134   1.386  0.0831 -0.1859  0.0209
25638W        W44492  17.408  16.707  15.573  0.2074 -0.2028  0.0469
25639W        W44493  10.398   0.865   0.149  0.2260  0.0569 -0.1331
25640W        W44494  14.376  11.060   2.284  0.2858  0.1369  0.1050
25641W        W44495  16.330   7.356  10.710  0.4005 -0.1223  0.4264
25642W        W44496   6.312  15.467   2.167 -0.0062  0.0106  0.1139
25643W        W44497   2.546  14.886  13.730  0.0270 -0.1160 -0.1069
25644W        W44498   6.697   3.258   0.799  0.1027  0.2391 -0.1504
25645W        W44499  10.787  10.018   2.666  0.2171  0.3020 -0.0304
25646W        W44500  12.167   5.585  10.875  0.1241 -0.1812  0.0610
25647W        W44501   1.250  13.544   4.820  0.0219 -0.0414 -0.0712
25648W        W44502   7.838  10.162  11.354 -0.4249 -0.2964 -0.1099
25649W        W44503   3.991  15.605   4.813 -0.3088  0.1245 -0.2140
25650W        W44504   2.612   9.256  15.131  0.1212  0.2788 -0.2236
25651W        W44505   6.102  16.917   4.291  0.0343 -0.0441 -0.1311
25652W        W44506   1.821  11.732   0.187 -0.0612  0.0825  0.0566
25653W        W44507  17.685  14.271   3.048 -0.0556 -0.1194 -0.1440
25654W        W44508   0.825  12.606   0.536  0.1401  0.0562  0.1339
25655W        W44509  17.930  16.197   1.958 -0.0407 -0.2392 -0.1464
25656W        W44510   8.804   4.663  13.817 -0.0382 -0.0112 -0.1645
25657W        W44511  12.886  17.301   4.501  0.0780  0.0388  0.0063
25658W        W44512  10.609   7.024  12.400 -0.0217  0.2023  0.0233
25659W        W44513   7.352  17.852   2.665  0.3173  0.0769  0.1424
25660W        W44514  12.427  12.534   2.435  0.1169  0.2139 -0.4167
25661W        W44515   9.163  11.788   2.480 -0.0505 -0.1936  0.2257
25662W        W44516   8.102   4.159   3.332 -0.0092 -0.1350 -0.0635
25663W        W44517   0.293   7.862  14.222 -0.2303  0.0143 -0.0247
25664W        W44518   6.736  13.135   3.015  0.2088 -0.4068 -0.1430
25665W        W44519  16.880   1.948   3.869 -0.0991  0.0442 -0.1720
25666W        W44520   0.439   9.528  15.170 -0.0949  0.0251 -0.0300
25667W        W44521   7.200   1.123   3.191 -0.1591  0.3733 -0.0894
25668W        W44522   8.675   3.153   2.621 -0.1189 -0.0060 -0.0386
25669W        W44523   6.027   5.288   1.088 -0.1897 -0.1612  0.2040
25670W        W44524   3.954  15.312  14.592  0.0226 -0.0425 -0.1610
25671W        W44525   8.954   6.607  11.271 -0.4112 -0.0638  0.1134
25672W        W44526   1.551  10.755  12.058 -0.0541 -0.1001  0.0383
25673W        W44527   4.499   6.848   4.404  0.1742  0.0009  0.0548
25674W        W44528  13.224   4.087  15.569  0.0181 -0.1582  0.1655
25675W        W44529  13.518  11.885  16.074 -0.1032 -0.2431  0.0157
25676W        W44530  12.427  17.492   3.208 -0.0142  0.1564  0.2163
25677W        W44531   5.814   6.174   4.644  0.3066  0.2476 -0.2236
25678W        W44532  14.574  13.774   4.179  0.0955  0.1850  0.0782
25679W        W44533   6.922  14.563  11.489  0.1544 -0.0025  0.2659
25680W        W44534  11.321   8.050  11.127 -0.1261 -0.1548  0.0548
25681W        W44535   6.520  16.847  11.409 -0.2641  0.0116  0.0592
25682W        W44536   3.588  15.525  15.468  0.0835  0.1714 -0.0885
25683W        W44537  16.181  11.865  13.579 -0.1393 -0.0193 -0.1651
25684W        W44538   3.082  11.837   3.318  0.0062  0.0602  0.4419
25685W        W44539   3.409   7.905   2.606 -0.4634  0.1374  0.0472
25686W        W44540   0.555   4.384   1.615 -0.0886  0.0512 -0.0901
25687W        W44541   9.251  10.017   4.735 -0.1736  0.2032  0.1588
25688W        W44542   4.490   1.264  15.263  0.0376  0.1587 -0.0357
25689W        W44543   0.858   0.996   1.849  0.2099  0.1036 -0.1940
25690W        W44544   3.917   2.259  15.126 -0.0538 -0.2736  0.0060
25691W        W44545  16.329   1.035  15.606  0.2212  0.2020 -0.1137
25692W        W44546   7.947  14.617   4.622  0.0952 -0.0324 -0.2875
25693W        W44547   4.593   0.268  13.889 -0.2321 -0.1172 -0.3123
25694W        W44548  12.347   6.726  13.545 -0.0270  0.1006  0.1990
25695W        W44549   7.008  13.016   0.777  0.2768  0.0636  0.0186
25696W        W44550  15.669   2.193  14.185 -0.3043 -0.2357  0.1336
25697W        W44551   6.870   1.843   1.543 -0.1143 -0.0149 -0.0524
25698W        W44552  11.537  13.233   0.863 -0.0166 -0.3125  0.2553
25699W        W44553  13.321   4.486   2.835 -0.0019  0.1909 -0.1230
25700W        W44554  15.333   6.637  13.316  0.0530  0.0597  0.3521
25701W        W44555   4.992   6.676   1.458 -0.2864  0.1567  0.1222
25702W        W44556  16.116  11.781  12.059 -0.0847 -0.2269 -0.0347
25703W        W44557   8.244  16.014   3.989 -0.0913  0.0034 -0.1458
25704W        W44558   8.821   3.057   3.259 -0.3241  0.0092  0.1655
25705W        W44559   3.216  10.643  11.342 -0.0983 -0.0276  0.1332
25706W        W44560  17.907   2.438   2.647 -0.3523 -0.0428  0.1123
25707W        W44561   0.542  12.181   1.180 -0.0351 -0.1207 -0.1907
25708W        W44562  17.388   6.082   4.668 -0.1589  0.3579 -0.0236
25709W        W44563   8.998  15.640  13.056  0.0488 -0.1350 -0.2372
25710W        W44564  11.212  13.333  12.761  0.1391  0.3234 -0.0309
25711W        W44565   3.697   2.859   0.956 -0.1438 -0.2026  0.1837
25712W        W44566   2.507  13.935  12.548 -0.0096  0.2077 -0.0392
25713W        W44567   1.117  14.234  15.063  0.4870  0.0617  0.0906
25714W        W44568  11.557  16.299   3.913 -0.2073 -0.0195 -0.2499
25715W        W44569   3.692  14.334   2.605  0.0309 -0.0378 -0.0653
25716W        W44570   7.875  14.185   1.893  0.1216  0.0156 -0.3292
25717W        W44571  14.356   9.629  14.930 -0.0810 -0.0030 -0.2480
25718W        W44572  15.099   2.795   2.931 -0.3010 -0.1396  0.2382
25719W        W44573  13.215   2.998   4.168  0.1542  0.0344 -0.2592
25720W        W44574   4.742  12.458  14.738  0.1468  0.1339 -0.3033
25721W        W44575   8.146  11.002   3.623  0.2439 -0.1840  0.4315
25722W        W44576   0.484   4.597   4.864 -0.0737 -0.2745 -0.2236
25723W        W44577   7.496  16.932   2.482  0.0145 -0.0451  0.2468
25724W        W44578   1.228   4.737  13.290 -0.0621 -0.0763 -0.0743
25725W        W44579  13.360   9.336  14.644  0.3000  0.1328  0.1568
25726W        W44580   5.540  11.980  14.516 -0.0957 -0.0811  0.1470
25727W        W44581   1.876   6.108  12.524  0.0877  0.1489  0.1893
25728W        W44582   6.597   6.361   2.210  0.3716  0.0082  0.1496
25729W        W44583   5.506   7.895  12.153 -0.0868  0.2540 -0.0498
25730W        W44584  15.925   3.828   4.837  0.1613 -0.0560 -0.1362
25731W        W44585   4.279  17.017   2.814 -0.2202 -0.2252 -0.0190
25732W        W44586   3.851   3.889   2.834  0.5149  0.0666 -0.1324
25733W        W44587   1.932   3.061   3.470  0.3023  0.1273  0.0373
25734W        W44588  15.485  12.123   3.976 -0.3166 -0.1436  0.0368
25735W        W44589   6.897  16.384   4.947 -0.1702  0.0631  0.1553
25736W        W44590   4.475   5.721  11.215  0.2316  0.0280 -0.0040
25737W        W44591  11.119   9.586   2.659 -0.1824 -0.1906  0.0456
25738W        W44592   3.997  13.817  15.705  0.0240 -0.2076 -0.2334
25739W        W44593   4.473  16.099  14.749  0.0665 -0.3833 -0.1658
25740W        W44594  13.015  17.224  13.145 -0.0538 -0.1427 -0.0158
25741W        W44595   6.372   9.212  15.857 -0.2168 -0.0937 -0.0716
25742W        W44596   9.702   8.919   5.312  0.1968  0.2290  0.0245
25743W        W44597  14.728   4.771  11.387  0.1896 -0.1727  0.0862
25744W        W44598   6.666   3.998   1.308 -0.2128 -0.3031  0.0197
25745W        W44599   2.626  12.064  14.177 -0.0059  0.1680 -0.0560
25746W        W44600   6.834   0.021  14.100 -0.1003 -0.1052 -0.0513
25747W        W44601  12.437   3.423  15.615  0.0792  0.1838  0.3076
25748W        W44602  13.962   2.877  14.143 -0.0047  0.1700 -0.1784
25749W        W44603  12.251   0.946  15.033 -0.1082 -0.2219  0.0185
25750W        W44604  10.642   3.363  14.500  0.1316  0.0819  0.0795
25751W        W44605  10.682  13.559   4.844 -0.1232 -0.1548 -0.1902
25752W        W44606  17.102   3.880   2.023  0.0717 -0.1648 -0.0125
25753W        W44607   4.110  15.285   1.255  0.0221  0.1822 -0.1421
25754W        W44608   8.079   8.225  13.795  0.1559  0.0571 -0.1219
25755W        W44609   0.323   4.973   2.435 -0.2984 -0.1836  0.0277
25756W        W44610   2.792  11.518  13.155 -0.1655 -0.2306 -0.0562
25757W        W44611  11.643   0.070  11.999  0.1179  0.1254 -0.2468
25758W        W44612  17.191   4.483   3.579  0.5413  0.3617  0.0830
25759W        W44613  13.259  17.528  12.584  0.2328  0.0663  0.0320
25760W        W44614   7.591  10.598   4.773 -0.1848  0.0912 -0.0945
25761W        W44615   3.014  16.071   1.894  0.0130  0.1443  0.3478
25762W        W44616   5.709  10.215  15.668  0.0609  0.1410 -0.2692
25763W        W44617   9.092  11.284   2.483 -0.2615  0.1310 -0.2214
25764W        W44618  11.122   0.806  15.965  0.0624 -0.2465  0.0223
25765W        W44619  12.317   0.413  14.592 -0.2664  0.1737 -0.1019
25766W        W44620   5.046   4.357  14.279 -0.2528  0.0358 -0.2513
25767W        W44621   7.078  17.078   4.389  0.0410  0.0941  0.2652
25768W        W44622  16.736  17.013  14.574  0.1702 -0.2766  0.1474
25769W        W44623  17.556   1.183  12.884 -0.1989  0.1663  0.0317
25770W        W44624   7.689  16.990   0.540  0.3218 -0.2076  0.1272
25771W        W44625   3.950  17.151  10.706 -0.0529  0.0624 -0.0211
25772W        W44626  12.491  15.115  13.724  0.3377 -0.0440 -0.1105
25773W        W44627   3.598  17.251  13.343 -0.1407 -0.0530 -0.2642
25774W        W44628   5.896  16.692   5.035 -0.2564 -0.0224 -0.0330
25775W        W44629   8.131  13.887  14.169 -0.3530 -0.0717 -0.0485
25776W        W44630   8.768   0.571  12.871  0.0764  0.0079  0.0775
25777W        W44631   7.791   1.888   2.206  0.1253 -0.1237 -0.1969
25778W        W44632   0.581  10.208   4.553  0.1203 -0.1724  0.0459
25779W        W44633   4.430   3.190   3.843  0.0389 -0.0323 -0.1413
25780W        W44634  11.291  12.623  15.378  0.2969  0.1326 -0.0996
25781W        W44635   8.212   5.026  13.201 -0.0327 -0.1196  0.1216
25782W        W44636   8.343   8.227   2.936 -0.1543  0.0960 -0.4629
25783W        W44637  16.504   1.324  14.730  0.0415  0.1828  0.0393
25784W        W44638  17.591   8.148   0.769  0.0138 -0.0890  0.1127
25785W        W44639  12.751  16.716  14.988  0.0539  0.3652 -0.1385
25786W        W44640  14.617   3.899   3.896 -0.1854 -0.0156 -0.1941
25787W        W44641   3.605   1.979  13.752  0.1611  0.0035 -0.0590
25788W        W44642   9.910   5.041  15.884  0.0273  0.2499 -0.1278
25789W        W44643   8.485  17.235  13.125  0.0653 -0.2116 -0.0177
25790W        W44644  12.585   8.032   3.195  0.1596 -0.0989  0.0691
25791W        W44645   0.430  17.422   4.664  0.4337  0.5107  0.1338
25792W        W44646   9.429   5.668   4.616  0.0988  0.3259  0.2523
25793W        W44647  10.839  14.366  15.844 -0.2868  0.0577 -0.0392
25794W        W44648   9.921   9.408  12.205 -0.2290 -0.1642 -0.3130
25795W        W44649   2.661   3.411   1.501  0.0830  0.0826 -0.0254
25796W        W44650   9.201   0.489   4.650 -0.0857  0.1137 -0.2834
25797W        W44651   6.840  15.568  16.061  0.0724 -0.1117  0.0102
25798W        W44652   0.333   4.515  11.218  0.1300  0.1822 -0.2174
25799W        W44653  14.866   6.412   2.152  0.2581  0.1227  0.1571
25800W        W44654  11.292   4.155  14.866  0.2500  0.3028 -0.2603
25801W        W44655  12.717   6.649  13.899 -0.2311 -0.2205 -0.1019
25802W        W44656  10.305   9.147   0.495 -0.0825  0.0366 -0.1720
25803W        W44657   4.613  12.630   1.851 -0.0573 -0.1596 -0.0946
25804W        W44658  10.786   5.753  13.754  0.2609 -0.2518 -0.0563
25805W        W44659  13.200   3.729  12.913  0.1043 -0.2151 -0.1101
25806W        W44660   2.626   0.131   1.266  0.1735  0.0742 -0.1234
25807W        W44661   6.128   0.750  14.449 -0.1119 -0.0384  0.0069
25808W        W44662  15.227   7.582   5.737  0.2098  0.0758 -0.0957
25809W        W44663   0.952   5.463  11.879  0.0365 -0.1261  0.0037
25810W        W44664   8.837   0.066   2.256  0.0654 -0.4782 -0.0458
25811W        W44665   2.316   6.368  13.591  0.0792 -0.2016  0.1078
25812W        W44666   2.760   1.162  11.013 -0.0926 -0.6068  0.1975
25813W        W44667   0.233  11.599  11.952  0.4184 -0.0709  0.0659
25814W        W44668  15.854  13.303   1.964 -0.3298  0.0263  0.0232
25815W        W44669   4.028  17.658  15.401  0.3887  0.0329  0.0477
25816W        W44670   9.660  14.436   0.058  0.0546 -0.1094 -0.2275
25817W        W44671  15.134   6.588  11.307  0.0221 -0.0997 -0.0632
25818W        W44672  15.503   6.712  12.823  0.3539  0.0824  0.0148
25819W        W44673   7.216  10.893   3.488  0.0849  0.0780 -0.0890
25820W        W44674   3.890  10.103  12.304  0.1906 -0.3218 -0.1951
25821W        W44675   9.226   5.707   4.141  0.1619  0.0002  0.2325
25822W        W44676   3.084   0.659   1.549 -0.1144  0.3814  0.2469
25823W        W44677  17.003  15.082   5.486 -0.0739 -0.3132  0.1622
25824W        W44678   4.880  17.325  15.488  0.0565  0.1337 -0.0714
25825W        W44679   2.053   8.159  14.637  0.0379 -0.1341  0.1058
25826W        W44680  14.709  13.522  13.522  0.4269 -0.4674 -0.1108
25827W        W44681  14.387  11.274  14.704 -0.1609  0.2360  0.0377
25828W        W44682  16.524  14.644  14.138  0.1052 -0.0688 -0.1770
25829W        W44683  15.455   2.294   4.114 -0.0232 -0.0550  0.0045
25830W        W44684  10.201  12.855   4.774  0.0377 -0.0732 -0.2852
25831W        W44685  12.088  14.174  15.259 -0.2841  0.0687 -0.0494
25832W        W44686  17.646  12.153   1.723 -0.2109  0.0496 -0.3650
25833W        W44687   9.434  17.827   3.710  0.2834  0.1346  0.3285
25834W        W44688   7.653  13.350   0.360 -0.0739 -0.1448  0.3344
25835W        W44689   3.542  13.189   4.021  0.2580 -0.1432  0.1244
25836W        W44690   5.644  15.404  11.716 -0.2823 -0.1048 -0.3506
25837W        W44691   4.676  11.641  15.146  0.1767 -0.0596 -0.3283
25838W        W44692   8.758   2.725  14.132 -0.0442  0.2058  0.1067
25839W        W44693   7.568  10.168  14.997  0.0749 -0.0322  0.0364
25840W        W44694  15.086  15.600   0.717 -0.3185  0.1240 -0.2806
25841W        W44695  11.349  17.483  16.165  0.1771  0.0007  0.1246
25842W        W44696   6.876   1.743  11.819 -0.2486  0.0082 -0.0608
25843W        W44697   6.815   8.084   4.710 -0.1760  0.2437  0.1297
25844W        W44698   4.808  14.550   1.034  0.0330 -0.2514  0.0352
25845W        W44699   2.520  14.039  11.522 -0.1541 -0.0972  0.1976
25846W        W44700   2.885   2.532  15.864 -0.0831 -0.1556  0.0344
25847W        W44701  14.826  13.878   1.277 -0.0720  0.0803 -0.4318
25848W        W44702   9.133  14.278  10.277 -0.1430 -0.0019  0.1115
25849W        W44703   9.192   0.246   5.177 -0.2281 -0.0965 -0.1157
25850W        W44704   9.651  16.778  13.774  0.1734  0.0499  0.0937
25851W        W44705   4.864   1.382  15.550 -0.1038  0.0085  0.2724
25852W        W44706   6.237   0.715   6.228  0.7093 -0.2304 -0.3977
25853W        W44707   1.811  12.073  12.620  0.0639 -0.2106  0.2194
25854W        W44708   9.124  15.978   0.152 -0.4849 -0.0641 -0.6322
25855W        W44709  17.101   2.352   0.300 -0.1464 -0.2451 -0.1879
25856W        W44710   0.521  15.747   4.093 -0.0716 -0.2715  0.1546
25857W        W44711  15.401   3.694  15.565 -0.1173  0.1746 -0.2239
25858W        W44712   4.730  10.355  14.096 -0.1581  0.0369 -0.1682
25859W        W44713   9.107   0.059  15.722  0.0694 -0.2004  0.1661
25860W        W44714  16.730   3.575   2.666  0.3861 -0.0059 -0.1107
25861W        W44715   0.305   8.150  14.778  0.0527 -0.1016  0.0305
25862W        W44716  16.302   8.046   1.906  0.0908 -0.2664  0.2031
25863W        W44717   0.399   3.438  15.440 -0.0769 -0.0647 -0.1460
25864W        W44718   5.262   9.825  14.119 -0.1005  0.2186 -0.0012
25865W        W44719  15.293  16.699   1.910 -0.0903 -0.0900  0.2828
25866W        W44720   2.261  13.096  11.416 -0.1264  0.0973 -0.0811
25867W        W44721  12.556  16.529  15.911 -0.3180 -0.0417  0.0171
25868W        W44722   2.971  16.922   5.124 -0.0091 -0.3222 -0.0842
25869W        W44723   1.289   8.069   0.621 -0.0360  0.2563  0.2315
25870W        W44724   1.202  10.381  11.850  0.1509 -0.3618  0.1496
25871W        W44725  12.155   0.751   3.294  0.0873  0.3514 -0.0483
25872W        W44726   2.986  13.535  12.248  0.0828  0.0993 -0.1947
25873W        W44727   3.005   1.257   2.127 -0.1826  0.2605 -0.1025
25874W        W44728   9.539   2.266   3.565 -0.0393 -0.1262 -0.3453
25875W        W44729   8.988   9.504   4.148 -0.1477 -0.1887  0.1158
25876W        W44730   3.870   5.505  11.726  0.1468 -0.0260  0.2225
25877W        W44731  10.649   0.249  15.440 -0.0299  0.0929  0.0791
25878W        W44732   0.273  17.515  15.110  0.1494 -0.1126 -0.2756
25879W        W44733  11.127   7.161  10.563 -0.0901  0.1995 -0.1723
25880W        W44734  12.673   9.615   3.068  0.1690 -0.2438  0.2775
25881W        W44735   9.786   3.768   4.760  0.0134 -0.0504 -0.0643
25882W        W44736   0.175  13.471   4.103 -0.2295 -0.2045 -0.1093
25883W        W44737  10.984   8.354   3.915 -0.0214 -0.0503 -0.2999
25884W        W44738  15.813  13.697  14.607  0.0306  0.0542 -0.1674
25885W        W44739  16.610  17.554  14.639 -0.1418 -0.1832  0.0420
25886W        W44740   6.180  15.495  15.301 -0.0250  0.0687  0.4326
25887W        W44741   1.825  16.322  12.774  0.0846 -0.1550  0.2202
25888W        W44742  14.756  11.439  13.926 -0.1039 -0.1007  0.0938
25889W        W44743   9.021   9.192  13.843  0.0669 -0.1041 -0.1835
25890W        W44744  17.651   4.048  12.582  0.0662  0.0758  0.1451
25891W        W44745   2.548   4.362  15.741  0.0007 -0.1120  0.0928
25892W        W44746  13.145   2.154  12.888  0.1422 -0.1490  0.1714
25893W        W44747   3.164  10.518   2.265 -0.1825  0.2049 -0.2062
25894W        W44748   9.190  12.835   3.401 -0.1678  0.3527  0.0451
25895W        W44749  14.901  12.275   0.026 -0.0321 -0.3523 -0.1752
25896W        W44750   2.596  10.048   0.730 -0.0531  0.0679  0.2518
25897W        W44751   1.838   4.705  11.370  0.0167  0.1831 -0.0050
25898W        W44752   2.307   6.808   3.082  0.0540 -0.1721 -0.1525
25899W        W44753  17.791   6.781  11.722  0.1722  0.2932 -0.0395
25900W        W44754   0.886   4.278  15.887  0.1307  0.0811  0.2110
25901W        W44755   0.858  17.036  13.995 -0.1191  0.1147  0.1611
25902W        W44756   7.285   4.476   4.747  0.1426 -0.0439  0.0266
25903W        W44757  16.504   9.480  14.318  0.1179  0.0176  0.1236
25904W        W44758  17.538  14.503  14.431 -0.0828  0.0436  0.0526
25905W        W44759  14.334   5.004  15.959 -0.0816 -0.3796  0.3391
25906W        W44760   5.662  15.341  12.938  0.0725 -0.0769  0.2783
25907W        W44761  14.716   9.841  12.394 -0.1827  0.3302 -0.2983
25908W        W44762   7.905   8.556  15.942  0.1272  0.1420 -0.0010
25909W        W44763   7.178  16.526   3.520  0.2998  0.1234  0.3156
25910W        W44764  14.981   7.980   4.778 -0.1535 -0.0933  0.1991
25911W        W44765   2.504   9.438   2.184  0.2961 -0.0754  0.2892
25912W        W44766  15.943  11.813  14.658 -0.4789  0.0486 -0.1124
25913W        W44767  12.097  15.628   1.378 -0.2276 -0.0423 -0.1282
25914W        W44768   0.551   8.845   4.153  0.4148  0.0761 -0.1006
25915W        W44769   9.371  15.302   4.492 -0.2304  0.0680  0.0330
25916W        W44770   6.668   4.567  15.311  0.0214  0.0704  0.0494
25917W        W44771   2.825  14.530   4.337  0.2292 -0.0050 -0.3022
25918W        W44772   6.003   7.331   1.269  0.2018 -0.2529  0.0342
25919W        W44773   7.307   7.659  12.970  0.0202 -0.0652  0.1080
25920W        W44774  12.586  10.989   1.112  0.0924  0.1526 -0.2147
25921W        W44775  14.856   3.992   2.096  0.0690 -0.1576  0.1266
25922W        W44776  18.038  15.490   1.317 -0.2964  0.2611  0.1398
25923W        W44777   2.785  15.780   2.513  0.3447 -0.0175  0.0621
25924W        W44778  15.794   5.058   4.168 -0.2108 -0.0755  0.0294
25925W        W44779   4.007   6.770  12.959 -0.3934  0.0355 -0.0938
25926W        W44780   1.707  16.575   1.075 -0.2885 -0.1435 -0.2059
25927W        W44781   2.885  13.601   0.232  0.0080 -0.2383  0.2335
25928W        W44782  12.394  15.335  14.553  0.0902  0.0203  0.1737
25929W        W44783  11.810  11.878  14.709  0.0680 -0.1616  0.1501
25930W        W44784   7.518   4.090   3.448  0.0721  0.3258  0.0219
25931W        W44785   1.735  14.836   1.394 -0.2149  0.1741  0.0345
25932W        W44786   1.145   2.705  13.536 -0.4012 -0.3627  0.2490
25933W        W44787  17.585   3.374  13.396 -0.1679  0.2603  0.1127
25934W        W44788  10.848   7.942  14.395  0.3109 -0.0126  0.2030
25935W        W44789   4.751   0.757  11.727 -0.0214 -0.0171  0.0989
25936W        W44790   3.412  15.720   0.734  0.1894 -0.0713 -0.1292
25937W        W44791   9.666   6.461   0.226  0.3457  0.0289  0.0499
25938W        W44792   4.779   6.421  12.311  0.2789  0.1828 -0.1566
25939W        W44793   6.630  14.009   4.457 -0.0979 -0.0211 -0.0740
25940W        W44794   6.793  15.101  13.708  0.1129  0.0403 -0.0380
25941W        W44795  12.921  15.378  13.822  0.0551 -0.1441  0.1230
25942W        W44796  11.060  13.925   2.569  0.0662 -0.0248  0.2859
25943W        W44797  16.930   7.432   0.347 -0.0111 -0.0613  0.1859
25944W        W44798  11.013   8.038  15.874 -0.0121  0.3052  0.2520
25945W        W44799  10.059   7.679  14.055  0.0066 -0.0051  0.2847
25946W        W44800   5.279   6.704  11.278  0.2331  0.0715  0.0204
25947W        W44801  17.369   9.541  11.849  0.2173 -0.0626  0.0206
25948W        W44802   0.648   7.402  14.027  0.1357 -0.2263 -0.0919
25949W        W44803   8.555  14.175   5.267  0.2337  0.0184  0.4062
25950W        W44804  12.640   5.441  12.675  0.1538 -0.1684  0.1373
25951W        W44805   7.538   5.375  14.536  0.1340 -0.0027  0.3014
25952W        W44806  10.051   2.201  15.862  0.1297 -0.1446  0.0932
25953W        W44807  14.127   4.460   4.656 -0.2169 -0.1071 -0.2334
25954W        W44808   7.826   6.910   4.409 -0.1381 -0.0503  0.0282
25955W        W44809   0.444  13.747   3.496 -0.2617  0.2375  0.1555
25956W        W44810   5.654   7.990   0.136  0.0252 -0.1939 -0.1227
25957W        W44811  13.172   2.823  14.741 -0.2852 -0.0204  0.3588
25958W        W44812   7.348   6.490   0.358 -0.0507  0.0469 -0.1526
25959W        W44813   8.497  13.015   2.744  0.0112 -0.2904  0.2268
25960W        W44814  10.062  12.502   6.309 -0.0772 -0.1918 -0.0761
25961W        W44815  15.962  13.683   2.876  0.3215 -0.0455  0.0675
25962W        W44816  12.251   1.536   0.940  0.0074  0.2084  0.1337
25963W        W44817  17.010  17.808  14.899  0.0053  0.2319  0.1466
25964W        W44818   3.963  13.420  12.316  0.4399 -0.0132  0.0013
25965W        W44819   5.033   1.353  14.928 -0.2923  0.0992  0.1248
25966W        W44820   5.743   3.855  13.419  0.2102  0.0054  0.1405
25967W        W44821   4.156   8.341   4.033  0.1164  0.1391 -0.2724
25968W        W44822   7.523  12.308  14.038 -0.1685 -0.0212 -0.0971
25969W        W44823   0.277   7.479   4.606  0.0087  0.0968  0.1351
25970W        W44824   9.551   6.310   2.647  0.0513 -0.3046 -0.1534
25971W        W44825   7.647   5.424   4.597  0.1604 -0.1089  0.0227
25972W        W44826   0.454   3.273   0.497  0.0696 -0.0294 -0.0602
25973W        W44827   3.747  13.443  12.791  0.3383  0.3094  0.1732
25974W        W44828  15.961  17.955   4.381  0.2935  0.0526 -0.3796
25975W        W44829   4.489   1.955  11.551  0.0389 -0.1893 -0.1705
25976W        W44830  10.529   7.619   1.984 -0.1116 -0.0208  0.2794
25977W        W44831  13.904   2.285   4.255 -0.0905 -0.0885  0.3059
25978W        W44832   2.774  15.642  14.949  0.0298  0.2240 -0.0088
25979W        W44833  10.526  14.221   6.059 -0.4045  0.0841  0.0462
25980W        W44834   0.887   3.444   0.008  0.1392 -0.1881 -0.1783
25981W        W44835   4.185   7.059  13.949 -0.3023  0.1578 -0.2038
25982W        W44836  11.065  12.876  15.753 -0.2049 -0.0932  0.1272
25983W        W44837  15.903  12.554   4.568  0.0428 -0.2684  0.3644
25984W        W44838   2.563  17.491   1.985  0.0643  0.0106  0.0937
25985W        W44839   9.713   6.436  11.038 -0.0233 -0.0499 -0.0100
25986W        W44840  10.718   5.904  15.543  0.2170  0.0256  0.1161
25987W        W44841   7.717   9.336  14.768 -0.0888 -0.1561 -0.1910
25988W        W44842  14.839  15.099   3.474 -0.2334 -0.4177  0.0900
25989W        W44843   6.551   5.988  11.448  0.1275 -0.0882 -0.0683
25990W        W44844   7.285  14.504   3.361  0.0514 -0.2647 -0.0857
25991W        W44845   0.943   8.378  12.548 -0.0316 -0.0126  0.2137
25992W        W44846  16.710   6.736   4.236  0.0956 -0.1022 -0.0814
25993W        W44847   2.480  11.291  11.367  0.0363  0.1175  0.4239
25994W        W44848  10.250  15.867  14.144 -0.1594  0.0168 -0.0645
25995W        W44849  11.968   8.139  11.684 -0.1626 -0.1553 -0.2380
25996W        W44850  13.272  17.333   3.578 -0.0169  0.0848  0.0895
25997W        W44851   1.925   9.058  14.658 -0.1304  0.1195 -0.0710
25998W        W44852  15.104   8.350   1.829 -0.0384 -0.1287  0.1672
25999W        W44853   7.697   4.671   3.293  0.0412 -0.1397 -0.1607
26000W        W44854   2.446  12.994  12.170  0.4169  0.1280 -0.3133
26001W        W44855   3.185  14.727   3.939 -0.1215 -0.0340 -0.0441
26002W        W44856   4.601  15.365   1.390 -0.2381 -0.0631 -0.0441
26003W        W44857  12.211   0.998   2.042 -0.0951  0.0213 -0.2711
26004W        W44858   3.654  13.827  16.125 -0.0984  0.2241 -0.2634
26005W        W44859  14.820   9.478  14.830 -0.0287 -0.0571  0.0356
26006W        W44860  16.263   9.645   1.157  0.0999 -0.2039  0.0500
26007W        W44861   1.794   3.818  15.832 -0.0723 -0.2107 -0.0651
26008W        W44862   3.988   2.979  15.793 -0.0353 -0.1648 -0.1948
26009W        W44863   4.420  13.956  14.700 -0.0913  0.2375 -0.1059
26010W        W44864   4.998   1.604   0.498  0.2370  0.1963 -0.2349
26011W        W44865   9.029   5.384   2.426  0.1092  0.0523  0.1527
26012W        W44866   1.874   5.264   4.381  0.3087  0.2541 -0.1306
26013W        W44867  12.214   1.933   4.211 -0.1671 -0.2878  0.0632
26014W        W44868   5.806   7.438  12.903  0.0682  0.1778 -0.2245
26015W        W44869  13.528   5.574  13.106 -0.0630  0.1461 -0.2576
26016W        W44870   9.992   8.657   0.178  0.1220  0.0340  0.2927
26017W        W44871  10.568   0.536   5.707 -0.0056  0.3951 -0.1764
26018W        W44872  17.383  15.532  12.856  0.0977 -0.2418 -0.0708
26019W        W44873   2.267   9.845   2.626 -0.2319 -0.0512 -0.0296
26020W        W44874   0.037   9.056  12.816  0.0755 -0.0235  0.2093
26021W        W44875   4.507  17.897   4.952 -0.0241 -0.0965  0.0208
26022W        W44876   0.853   6.455  15.499  0.0952 -0.1071  0.3112
26023W        W44877   3.313   8.563   2.962 -0.2745  0.2320  0.1714
26024W        W44878   8.481   6.578  12.533 -0.0247 -0.0219 -0.0133
26025W        W44879  15.646   9.703  11.953 -0.0774  0.0630  0.2479
26026W        W44880  14.616   7.475  13.094 -0.3759 -0.0627 -0.0778
26027W        W44881   4.500   0.886   1.972  0.0869  0.1869  0.2232
26028W        W44882   1.770   5.679  12.237 -0.0702 -0.3356 -0.0028
26029W        W44883   5.381   5.874  14.031 -0.1342  0.1132 -0.1389
26030W        W44884  16.834  13.398   0.974  0.1810 -0.0119  0.0639
26031W        W44885  14.409  16.576   0.730 -0.3157 -0.0963 -0.0098
26032W        W44886   1.014   4.484  14.799 -0.1353  0.2418  0.1217
26033W        W44887   0.493  11.972  15.723  0.0577  0.2379  0.1471
26034W        W44888   7.133   5.254  14.194  0.2991  0.3189  0.0730
26035W        W44889   9.553  13.751   1.506  0.2041 -0.2432  0.0981
26036W        W44890  17.732  16.517   0.536 -0.0630 -0.0011 -0.0178
26037W        W44891   0.268  14.072   1.712 -0.0703 -0.3684  0.0146
26038W        W44892  15.043   8.291   5.167  0.1319 -0.0753 -0.1049
26039W        W44893  15.061  12.821   0.153  0.0584  0.0939  0.3285
26040W        W44894   1.715   7.106   2.521 -0.1854  0.0060  0.0978
26041W        W44895  10.387   8.529  14.455 -0.0830 -0.0181  0.2014
26042W        W44896   9.035  18.017   0.865 -0.1035  0.0276  0.1427
26043W        W44897  16.797  14.800   4.578  0.0980 -0.1015  0.1191
26044W        W44898  12.184  11.688   5.586  0.2550 -0.0651 -0.0549
26045W        W44899  17.236   5.634   1.303 -0.0479 -0.0637  0.4376
26046W        W44900   5.826  17.181  13.889  0.2462 -0.2369 -0.1520
26047W        W44901  12.103  10.806  16.030  0.1696  0.0624 -0.3533
26048W        W44902   6.697   3.988  14.441 -0.2367 -0.0065  0.0487
26049W        W44903  11.501   8.714  16.032 -0.0769 -0.0767  0.1266
26050W        W44904  13.762   6.776  13.907  0.3337  0.0424 -0.0797
26051W        W44905   3.040   6.625   1.618  0.1045 -0.2704  0.1874
26052W        W44906   9.733  17.066  12.374  0.0195  0.0003  0.2728
26053W        W44907   8.115   8.653   4.760  0.1840  0.2777 -0.2350
26054W        W44908   4.242  11.732  12.207  0.0898  0.0369  0.0165
26055W        W44909   3.960   9.095   4.727  0.3384  0.2572 -0.1825
26056W        W44910   5.991  11.051   1.418 -0.3653 -0.0036  0.0847
26057W        W44911   5.310  15.817   1.773 -0.0954 -0.0658  0.2567
26058W        W44912  14.157  17.308   3.611 -0.2810 -0.2134  0.1991
26059W        W44913   1.208  12.413   2.182 -0.1716 -0.1243 -0.0425
26060W        W44914  12.908   4.121   0.351  0.1904 -0.2494 -0.1533
26061W        W44915   8.105   5.281   2.858  0.2007 -0.1830 -0.0586
26062W        W44916  17.833   4.245   2.399  0.0251  0.2885 -0.3311
26063W        W44917   6.427   6.302  15.545  0.0599 -0.4154  0.0210
26064W        W44918   0.834  14.055   1.838  0.2195 -0.1106 -0.0595
26065W        W44919   7.038  10.213  14.150 -0.0606  0.1789  0.0856
26066W        W44920   7.043   7.046   3.098 -0.0552 -0.3247 -0.1586
26067W        W44921  11.657  14.798   4.120 -0.2157 -0.0921  0.2287
26068W        W44922   0.474  10.321  13.551  0.0050 -0.2961 -0.1352
26069W        W44923  11.569  12.421   0.405 -0.1705 -0.1684  0.0447
26070W        W44924   7.249  13.934  11.450  0.0068 -0.1531  0.1200
26071W        W44925  10.250  12.169  14.584 -0.0947  0.1891  0.1781
26072W        W44926   9.632   9.557  12.621 -0.0364 -0.1376  0.2119
26073W        W44927  17.128  11.955   4.921  0.4021 -0.0366 -0.2541
26074W        W44928   4.947   4.009   0.987  0.0978 -0.2186  0.4019
26075W        W44929  10.156   9.422   2.619 -0.2239 -0.0184  0.1193
26076W        W44930   6.468   0.436  12.756 -0.0337 -0.0034  0.1758
26077W        W44931   1.341   3.642  12.457 -0.0857  0.1303  0.0033
26078W        W44932   3.810   1.638  14.853  0.0001 -0.1040 -0.1160
26079W        W44933   4.610   9.028  13.476 -0.0996  0.1935  0.1502
26080W        W44934  16.673   5.245   3.560  0.0718  0.1654  0.1411
26081W        W44935  11.432  16.370  15.278 -0.1547  0.1561  0.2036
26082W        W44936   7.171  10.699  14.291  0.0981 -0.0128 -0.1123
26083W        W44937  12.845  16.256  12.503  0.2401  0.2597  0.0317
26084W        W44938   6.466  14.692  13.771  0.0976 -0.2020 -0.0889
26085W        W44939   1.513   0.080   4.756 -0.0434 -0.0432  0.1498
26086W        W44940  17.987  15.576   0.560  0.0804  0.0712 -0.1161
26087W        W44941   5.004   7.148   1.242  0.1599  0.0193  0.3399
26088W        W44942   9.324   9.634   2.957 -0.1966  0.0495 -0.0101
26089W        W44943  13.580  17.550  15.889 -0.0157  0.1803 -0.0428
26090W        W44944  15.150   3.814  16.043 -0.2056  0.0541 -0.1447
26091W        W44945  10.081  17.914   1.560 -0.1859  0.0209 -0.0139
26092W        W44946   7.600   2.136  14.961 -0.2310 -0.2238  0.0830
26093W        W44947  13.501  13.900   1.860 -0.4657  0.0168 -0.0718
26094W        W44948   6.407   1.607  12.018  0.1744 -0.1758  0.0371
26095W        W44949   9.777  10.285  14.822 -0.0995  0.0726 -0.0595
26096W        W44950   7.750  12.814   0.173  0.3215  0.2075 -0.1086
26097W        W44951   6.187  14.602  13.028  0.1125 -0.3359  0.0581
26098W        W44952  11.942   1.550   0.538 -0.0922  0.0228 -0.0600
26099W        W44953  15.791   2.391  12.861  0.4177 -0.3335 -0.3121
26100W        W44954   0.495   4.132   4.721 -0.3889 -0.0280 -0.2531
26101W        W44955  13.197   8.808  13.707  0.2824  0.1076 -0.0199
26102W        W44956  12.425   6.890   3.293  0.3188 -0.3856 -0.0369
26103W        W44957  16.940   9.650   4.364 -0.1531  0.0673  0.2470
26104W        W44958  12.433   1.668  14.995 -0.2881 -0.0324  0.2514
26105W        W44959   8.964   8.915  16.166  0.0277  0.2079 -0.1032
26106W        W44960  13.607   9.972   1.389  0.2562 -0.0082 -0.0668
26107W        W44961   9.431  14.112  15.439  0.3731  0.1416 -0.2652
26108W        W44962  15.504   0.055   4.555 -0.2298  0.0644 -0.0680
26109W        W44963   5.668   8.911   0.994 -0.0810 -0.1055  0.2754
26110W        W44964  17.871   1.849  11.765  0.1062  0.0682 -0.0268
26111W        W44965   3.331   1.245  13.761 -0.2264 -0.0939 -0.1559
26112W        W44966   0.681   5.241  13.671 -0.0016  0.0975  0.1044
26113W        W44967   4.198  11.158  13.947 -0.0403  0.1397 -0.0563
26114W        W44968  12.889   5.004  12.988  0.1099 -0.0818 -0.0035
26115W        W44969   9.268   9.143  12.322 -0.6031  0.0162 -0.3090
26116W        W44970   4.373   1.135   2.787  0.1836  0.1670  0.2714
26117W        W44971   1.977   9.360  14.173 -0.0364 -0.1189 -0.2671
26118W        W44972   2.256  14.318  15.740  0.1757 -0.0989 -0.0161
26119W        W44973  14.930   7.407   4.045  0.2053 -0.1336 -0.0873
26120W        W44974  15.833   8.792   2.085  0.0330 -0.1620  0.2812
26121W        W44975   1.403   5.760  12.540  0.0604  0.0201  0.0216
26122W        W44976   1.722  15.659   1.191  0.1803 -0.1859  0.0218
26123W        W44977  14.317   0.224  15.589  0.0151  0.1273 -0.2247
26124W        W44978   3.457  10.336   4.794  0.0830 -0.0214  0.1485
26125W        W44979   7.831  11.363   1.056 -0.0374  0.1838  0.0004
26126W        W44980  16.271   1.931   0.870  0.0573 -0.2555  0.0623
26127W        W44981  13.811  15.826   3.006 -0.1503 -0.1345 -0.0206
26128W        W44982  10.987  15.691   3.909 -0.0851  0.0575  0.1250
26129W        W44983  12.692  16.031   4.827 -0.0694  0.3504 -0.1619
26130W        W44984  10.930   4.423   3.871 -0.0652 -0.1095  0.2019
26131W        W44985  16.130   7.823   0.884  0.0463 -0.0349 -0.1428
26132W        W44986  15.198  13.454  16.140  0.1780 -0.0308  0.1091
26133W        W44987  11.094   1.002   3.478  0.2268  0.0480  0.2678
26134W        W44988   3.937   4.754  13.718 -0.0350  0.1851 -0.0149
26135W        W44989   6.710  17.769  10.789 -0.1923 -0.0304  0.3779
26136W        W44990   3.102  12.363   3.331 -0.1220  0.4515  0.0579
26137W        W44991  15.449   4.097  11.807  0.0710 -0.0869 -0.2722
26138W        W44992   6.039   2.914   1.552  0.1006 -0.2969 -0.1566
26139W        W44993   1.345  12.461  14.511 -0.0822  0.0806  0.1594
26140W        W44994  16.963   5.616   0.792  0.3449 -0.0438 -0.0473
26141W        W44995   8.762   9.074   0.837 -0.1307 -0.0024  0.0744
26142W        W44996  10.832   4.254   0.735  0.0151  0.3377 -0.3344
26143W        W44997  17.113  10.506   3.528  0.3818 -0.2294 -0.1364
26144W        W44998  17.373   1.888  12.744  0.2590  0.0439  0.0231
26145W        W44999   9.410  12.117   1.298  0.1988 -0.2718 -0.0943
26146W        W45000  11.934  10.660  15.091  0.1491 -0.0630 -0.2183
26147W        W45001  17.596   4.724  11.291 -0.3041  0.2492  0.2054
26148W        W45002   9.873   8.929  11.642 -0.1220 -0.0828  0.2381
26149W        W45003   0.612   8.605  10.877  0.2020 -0.0732  0.0973
26150W        W45004   3.149  13.976   3.526  0.0427 -0.0932  0.1693
26151W        W45005   1.546   4.064  14.312 -0.3135 -0.2220  0.1640
26152W        W45006  12.761   1.552   3.543 -0.2701  0.4357  0.4507
26153W        W45007   9.466  17.050  15.768 -0.4406  0.0092  0.5394
26154W        W45008   4.532   6.005  12.144  0.1836 -0.0643  0.0866
26155W        W45009  14.343   0.204  11.347 -0.2468  0.1034  0.1054
26156W        W45010   1.564  15.476   3.321  0.1228  0.0282 -0.2974
26157W        W45011   1.836   0.641   3.502 -0.1096 -0.1907 -0.0089
26158W        W45012  15.726  13.904  13.596 -0.0512  0.2780 -0.2565
26159W        W45013   3.824  12.993   2.743  0.1450 -0.1418 -0.2085
26160W        W45014   2.040  13.720   5.269  0.1601  0.2190 -0.2356
26161W        W45015  16.974  16.117  14.252  0.3269  0.2882  0.1145
26162W        W45016  10.845  17.212   2.491 -0.3215  0.1184 -0.0555
26163W        W45017  17.643  17.902   2.103  0.1428 -0.0207  0.0388
26164W        W45018  16.128  10.170   1.021  0.1099 -0.0479  0.0633
26165W        W45019  16.378  15.770  15.542 -0.0384 -0.1019 -0.0567
26166W        W45020  15.116  11.008   1.896  0.0006 -0.0407 -0.2161
26167W        W45021  11.149   2.847  15.711  0.2311 -0.0888 -0.0302
26168W        W45022  16.690  11.051  12.835 -0.0202  0.1639 -0.1575
26169W        W45023   5.679   6.170  12.099  0.2050  0.0752 -0.2137
26170W        W45024   1.340  14.509  13.540 -0.0371  0.1190 -0.0857
26171W        W45025  14.779  10.855   0.629  0.0530 -0.1055  0.2469
26172W        W45026  16.645   6.386  11.820  0.0919  0.0304  0.0639
26173W        W45027  11.783   0.596   2.055 -0.0237 -0.1774 -0.1272
26174W        W45028  14.421  15.670   1.956 -0.0145  0.0190 -0.4015
26175W        W45029  10.855   5.703  15.104 -0.1544 -0.2007 -0.0245
26176W        W45030   7.308   3.983  12.990 -0.1772 -0.1072  0.4530
26177W        W45031  17.652   8.830   0.838 -0.0830  0.0837 -0.1621
26178W        W45032  13.762  13.458   1.339 -0.2186 -0.0768  0.0975
26179W        W45033  16.582   2.519  12.047  0.1372 -0.3021 -0.1423
26180W        W45034   5.723  16.170  13.135  0.1823 -0.0820 -0.0020
26181W        W45035  14.159   0.283   2.895  0.0689  0.0030 -0.0429
26182W        W45036   9.670  11.518   3.674  0.0033 -0.1500  0.0946
26183W        W45037   2.728   5.528  12.390 -0.1009  0.3026  0.0417
26184W        W45038   7.694   5.538  12.709 -0.2793  0.0352  0.1197
26185W        W45039   0.156   3.011   4.501 -0.0746 -0.1438 -0.0220
26186W        W45040  17.040  16.632  13.184 -0.1008  0.0410  0.2687
26187W        W45041   9.339   4.456  11.630  0.0089 -0.0572 -0.1539
26188W        W45042   9.060   8.226   2.550 -0.1003  0.1357 -0.1812
26189W        W45043   8.010  11.192  12.672 -0.1815 -0.1117  0.3451
26190W        W45044  13.215   4.819  12.045 -0.0085  0.4471 -0.1154
26191W        W45045  16.407   2.528   3.371 -0.1123  0.0394 -0.0067
26192W        W45046   4.797  16.092  12.107  0.1763 -0.1138 -0.1670
26193W        W45047  15.368   7.221  14.894  0.1865 -0.3919 -0.1313
26194W        W45048  16.958  14.813   1.317 -0.0973  0.0284 -0.0868
26195W        W45049   6.464   7.633  10.862 -0.1162  0.1328 -0.1639
26196W        W45050   2.740  11.447  11.790  0.0081 -0.0968 -0.2513
26197W        W45051   7.599  16.956   0.032 -0.0740  0.2540  0.3969
26198W        W45052  12.690   7.808   0.879  0.2297 -0.2200 -0.1176
26199W        W45053  11.849   4.425   2.428  0.2889  0.1414 -0.0021
26200W        W45054  10.157  17.523  16.105  0.2852  0.0946  0.0327
26201W        W45055  12.646   7.111  15.370 -0.0858  0.1550 -0.0432
26202W        W45056   5.745  12.119   0.430 -0.5041  0.0221  0.2350
26203W        W45057   3.812   4.478   2.203  0.1427 -0.1349  0.0023
26204W        W45058   5.526  14.230   2.171  0.1643 -0.2251  0.4030
26205W        W45059  14.234   8.401   2.488 -0.0310  0.2160 -0.3347
26206W        W45060   8.298  17.882  13.471  0.2779  0.0446  0.4029
26207W        W45061   2.641  15.001   0.075  0.2207 -0.3558  0.0586
26208W        W45062  15.616   3.337  13.142 -0.0116  0.0395  0.2568
26209W        W45063   8.022   2.878   3.949 -0.4442  0.0457  0.0998
26210W        W45064   6.611   7.565  13.945  0.2175  0.1025 -0.1947
26211W        W45065   3.076   8.556  13.246 -0.1892  0.3900 -0.0022
26212W        W45066   8.769  12.609   3.575  0.1953  0.2672 -0.0541
26213W        W45067   7.955  16.244  15.889  0.3897 -0.2006  0.2211
26214W        W45068   6.351   0.125   0.532 -0.1447  0.1157  0.1261
26215W        W45069  14.778  10.952   4.291  0.0683 -0.1191  0.1360
26216W        W45070   8.886   7.889  11.840  0.0130  0.0715  0.1426
26217W        W45071   6.745  10.421   2.256 -0.0411 -0.0136 -0.0183
26218W        W45072   2.895  14.164  11.764  0.2902 -0.1450 -0.1158
26219W        W45073   7.218   7.409  13.422  0.1366 -0.4166 -0.0223
26220W        W45074  11.559   6.488  13.288 -0.0634  0.0383 -0.0815
26221W        W45075   7.389   8.713   1.614  0.0131  0.3713 -0.1126
26222W        W45076  10.414   4.613   1.552  0.0617 -0.0036  0.1247
26223W        W45077   8.814   8.826  12.323 -0.0454 -0.1984  0.0804
26224W        W45078  12.896   3.138   0.325  0.0292  0.0694  0.3638
26225W        W45079   2.800   4.345   1.429  0.2837 -0.2607  0.0507
26226W        W45080  11.134   9.658   0.180 -0.1094 -0.1567  0.1639
26227W        W45081  10.759   7.722   0.671 -0.0075 -0.1306 -0.0256
26228W        W45082  13.305  10.557   3.435  0.2654  0.0791  0.3323
26229W        W45083  12.535  15.904   1.439 -0.0781  0.1696  0.1663
26230W        W45084   6.171  13.387   1.950  0.0367 -0.0295 -0.2938
26231W        W45085  11.349  15.184   3.806 -0.1034  0.0880  0.0583
26232W        W45086   3.683  11.899   3.965 -0.1689 -0.0732 -0.2364
26233W        W45087  12.980   5.643  12.361  0.0977  0.0044  0.2022
26234W        W45088   6.345  16.301   2.268  0.0272 -0.0840 -0.0281
26235W        W45089  13.889   0.302  15.270 -0.1627 -0.0509  0.1260
26236W        W45090  13.162  10.751  14.211 -0.1608  0.1662  0.2953
26237W        W45091  13.262   0.429  12.292  0.2525 -0.1988 -0.0034
26238W        W45092   8.701   9.679  12.269  0.3151 -0.0175 -0.0854
26239W        W45093   9.815  10.084   2.395 -0.1558  0.0866 -0.3329
26240W        W45094   1.569   9.735  12.937  0.1789  0.0711  0.1202
26241W        W45095   8.663   4.462   2.543 -0.3142  0.0534 -0.0592
26242W        W45096   6.463  17.350  11.021  0.3154  0.0564 -0.1339
26243W        W45097  17.750   3.080   4.240  0.3456 -0.0572  0.0833
26244W        W45098   9.517  14.182  12.682 -0.1651  0.1650  0.1069
26245W        W45099   6.263  12.806  13.696  0.3459 -0.2502 -0.3236
26246W        W45100  17.134   7.502   4.456  0.2814 -0.0962  0.0527
26247W        W45101  10.160  16.591   0.856  0.1101 -0.1522 -0.0965
26248W        W45102  15.288   8.565  12.564 -0.0549  0.0871 -0.0651
26249W        W45103   5.065   4.949  15.459  0.2569  0.1579  0.0617
26250W        W45104  10.724   4.619   2.872  0.0455  0.1440  0.1559
26251W        W45105   5.703   5.188   0.536 -0.4044 -0.3216 -0.0062
26252W        W45106   1.973  17.311   2.180 -0.0370  0.0395 -0.1353
26253W        W45107   4.158  14.434   2.773  0.3059  0.1768  0.1333
26254W        W45108   1.287   2.388   0.439  0.0894 -0.0494  0.2138
26255W        W45109   2.604   0.066   2.570 -0.0302  0.1530  0.0906
26256W        W45110  15.224   8.842   0.998  0.1105 -0.0134 -0.1561
26257W        W45111   4.352  11.467  16.044 -0.0648  0.0269 -0.0751
26258W        W45112  17.597   0.363   0.030 -0.1193 -0.4810 -0.0803
26259W        W45113   0.463   6.310  11.104  0.0899 -0.1120  0.1240
26260W        W45114   3.110   4.512  12.759 -0.1036 -0.0280  0.1159
26261W        W45115  10.832   3.834   0.017 -0.0289  0.2154  0.0677
26262W        W45116   0.612   8.873   0.369 -0.1895 -0.3528  0.1283
26263W        W45117   6.196   6.459   4.407  0.1691  0.3924  0.0977
26264W        W45118  10.651  17.320   2.967  0.1487 -0.0963  0.0527
26265W        W45119  16.289  10.316   3.346  0.1001  0.0260  0.3956
26266W        W45120   7.163   8.922  11.650  0.1999 -0.0022  0.1572
26267W        W45121   4.287  14.512   1.769 -0.0336 -0.2162 -0.2209
26268W        W45122  14.475  15.831  15.178  0.1993 -0.1212  0.1700
26269W        W45123   6.667   3.674   4.684  0.1781 -0.2488 -0.3892
26270W        W45124   4.192  12.603  13.515  0.0843 -0.1592 -0.0259
26271W        W45125   5.951  16.656  12.601 -0.1840  0.0910 -0.1220
26272W        W45126   3.158   8.061  14.052  0.3720  0.0452  0.1993
26273W        W45127   3.086   2.218   4.272 -0.0289 -0.2472 -0.0060
26274W        W45128   0.332  16.837   0.289  0.1404 -0.3595 -0.3508
26275W        W45129  13.286  14.997   2.723  0.3641  0.0935 -0.2080
26276W        W45130  11.880   0.395  12.801  0.0517  0.1441 -0.0645
26277W        W45131   2.886  16.140   4.177  0.1011 -0.2349 -0.3659
26278W        W45132   6.186   4.172  13.624  0.4821  0.0169  0.4575
26279W        W45133  14.521  12.522  11.564 -0.0049 -0.2585  0.0165
26280W        W45134  11.029   6.498   3.232  0.1366  0.0266  0.1524
26281W        W45135   0.651   7.439  12.442  0.1260  0.0377  0.1106
26282W        W45136  16.718  14.977   2.651  0.0551 -0.0478  0.0544
26283W        W45137   5.626  16.538   0.874  0.0852  0.2008 -0.3023
26284W        W45138   8.431  13.487   2.198 -0.0247  0.1018 -0.0204
26285W        W45139  17.191  10.804  13.917 -0.1319  0.0422 -0.1172
26286W        W45140   2.385  10.828  16.028 -0.2051  0.3243  0.0194
26287W        W45141   1.461   1.377   1.229 -0.2363 -0.1389 -0.1013
26288W        W45142   6.278   0.819  14.979  0.2236 -0.0851  0.2981
26289W        W45143  10.942  17.444  12.528 -0.0249 -0.1150  0.0548
26290W        W45144   4.956  16.182   6.100 -0.2303  0.1455 -0.0054
26291W        W45145  17.792  15.299   0.900  0.1554 -0.0728  0.0631
26292W        W45146  15.774   0.508  13.459  0.2271  0.1976 -0.0352
26293W        W45147   2.911   6.252   0.729  0.1429 -0.1035 -0.0437
26294W        W45148   8.393  15.868   3.143 -0.0488 -0.2137  0.0874
26295W        W45149  12.583   7.704  16.078 -0.0520  0.1903  0.1252
26296W        W45150  17.071  11.312   4.242 -0.1120  0.0122 -0.3744
26297W        W45151  14.753   4.645  12.837  0.3464  0.2356 -0.1163
26298W        W45152  11.467   2.295  13.726  0.0399  0.0137 -0.0329
26299W        W45153   1.607   6.012   2.497  0.0518 -0.1547 -0.0772
26300W        W45154  11.935   8.959  15.633 -0.0917 -0.0934  0.3102
26301W        W45155   5.772   9.553   1.062  0.0257 -0.1791 -0.1579
26302W        W45156   2.920   1.651  11.676 -0.0299  0.0738 -0.5199
26303W        W45157   0.017  15.085   0.497  0.0633 -0.0646  0.0509
26304W        W45158  16.658   7.948   5.076 -0.0703  0.2305  0.1560
26305W        W45159  12.168   9.547   2.904 -0.0340 -0.0555  0.3358
26306W        W45160  13.683  13.726   3.762 -0.2306 -0.1952 -0.0344
26307W        W45161   2.787  12.452  15.461  0.3579  0.0754  0.0287
26308W        W45162   8.219  15.037  11.867  0.1023 -0.1740  0.0206
26309W        W45163  11.543  12.937   2.305 -0.0510 -0.1654  0.0293
26310W        W45164  11.542   1.994  14.162  0.1282 -0.1279 -0.2478
26311W        W45165   5.838  15.485  16.119  0.3134 -0.2848  0.2898
26312W        W45166  14.833  10.428  13.028 -0.3021  0.2123  0.1929
26313W        W45167   6.136   1.972   0.650  0.3711 -0.0729  0.2102
26314W        W45168  17.043   1.931  14.354 -0.0282  0.0644 -0.1153
26315W        W45169   7.018  12.995   4.071  0.0207 -0.2575 -0.0657
26316W        W45170   2.552  14.509   0.235 -0.1011 -0.3295  0.0811
26317W        W45171   0.193  10.464  15.543  0.0749  0.3206 -0.2712
26318W        W45172  13.417   5.296   1.701 -0.1934 -0.0633  0.1173
26319W        W45173   9.404   3.861   2.355  0.1470  0.0250 -0.1705
26320W        W45174   8.997  11.413   1.667 -0.1700  0.2046  0.0292
26321W        W45175  14.205  16.952   3.323 -0.0063 -0.0393 -0.2464
26322W        W45176  14.698   2.299   0.744  0.1065 -0.0132  0.0041
26323W        W45177  13.837  11.060   1.620  0.0787  0.1589 -0.1964
26324W        W45178   9.315   4.220  15.970  0.1304 -0.1318  0.1579
26325W        W45179  12.498   7.252  11.775 -0.1236 -0.5366 -0.2325
26326W        W45180   6.475   9.922  11.638  0.2718 -0.2238  0.1762
26327W        W45181   7.260   9.535  11.130  0.3100 -0.2843  0.0887
26328W        W45182  15.147  16.206  14.647 -0.1033 -0.1814 -0.0513
26329W        W45183  10.913   1.755   4.875 -0.1748 -0.0084 -0.3419
26330W        W45184  16.101  14.082   2.189  0.3533 -0.1596  0.3428
26331W        W45185  16.980  12.923  14.591 -0.1488  0.1545  0.0957
26332W        W45186   8.359  10.714   1.607  0.0388  0.0290  0.1125
26333W        W45187  14.304   0.807   0.994  0.2612  0.1827 -0.2012
26334W        W45188  16.042  14.629  12.538  0.0255 -0.0550 -0.3382
26335W        W45189  10.515  12.589  14.888  0.2303 -0.0914 -0.0419
26336W        W45190  15.627   4.893   3.587 -0.2170 -0.2302  0.0054
26337W        W45191  14.190   8.761  11.101  0.1733  0.0238  0.0636
26338W        W45192  15.531   7.569  11.382 -0.1103  0.2815  0.1578
26339W        W45193   6.599  10.890   2.258 -0.0308  0.0482 -0.1289
26340W        W45194   7.676  17.914   0.742  0.2679 -0.1327 -0.0421
26341W        W45195   3.720   1.655   1.325  0.0349  0.1680 -0.1349
26342W        W45196   0.979   2.772   4.259 -0.1215  0.0525  0.1152
26343W        W45197   9.054  17.166   1.061 -0.0174  0.1569 -0.3167
26344W        W45198  16.184  11.824   0.295  0.2659 -0.2753  0.0130
26345W        W45199   2.677  17.232   3.215  0.0595  0.1130 -0.1687
26346W        W45200  16.575   4.842   1.822 -0.0308  0.1587  0.4020
26347W        W45201   9.898  10.111   0.623 -0.1225 -0.1185 -0.1361
26348W        W45202  10.428  17.029  14.917  0.1095  0.2176  0.1174
26349W        W45203   5.611   1.104  12.016  0.1028  0.1217  0.0431
26350W        W45204  14.862  17.760   3.421 -0.0363  0.0394 -0.0979
26351W        W45205  14.668   3.608   2.879 -0.0786 -0.0194  0.0432
26352W        W45206  12.553   2.836  12.750 -0.2999  0.0095 -0.0639
26353W        W45207   6.677   1.610  12.807  0.4101  0.0728  0.2528
26354W        W45208   8.997  11.552  14.490 -0.2782  0.0356  0.2183
26355W        W45209   2.353   3.029   1.503 -0.2552 -0.1199 -0.4116
26356W        W45210   3.793  13.143   4.865  0.1174 -0.0558  0.0250
26357W        W45211   8.960   8.689   2.386 -0.3310 -0.1818 -0.1642
26358W        W45212   0.744  13.566   3.907  0.2221  0.1667 -0.0807
26359W        W45213  12.130  13.778  13.118  0.0099  0.0312  0.0846
26360W        W45214  12.024   0.697   0.771  0.1481  0.2841 -0.0413
26361W        W45215   3.059  13.659   2.932  0.2414  0.0356 -0.2021
26362W        W45216  13.578  17.612   0.688  0.2271 -0.0690 -0.3074
26363W        W45217   3.893   6.507  11.512  0.1416 -0.3498  0.0593
26364W        W45218  13.295  17.816  14.861 -0.0947  0.1668  0.0822
26365W        W45219  16.480   1.013   3.554 -0.0305  0.1809  0.2119
26366W        W45220   1.489   7.497  11.951  0.2111  0.2416  0.1513
26367W        W45221  13.489  16.341  16.156 -0.0159  0.0612  0.3012
26368W        W45222  16.664  11.020   4.106 -0.0769  0.0643  0.1488
26369W        W45223  14.054  12.515  13.845  0.0753  0.0637  0.0612
26370W        W45224   2.686  11.876  12.816  0.0271 -0.0098  0.1142
26371W        W45225   6.772   3.003  11.629 -0.1218 -0.3242  0.1561
26372W        W45226   3.858   0.300  14.424  0.0513  0.0664  0.2233
26373W        W45227   6.053  15.854  13.273  0.1998 -0.1748 -0.0770
26374W        W45228   5.241  11.424  16.149 -0.3914  0.0115  0.1174
26375W        W45229  13.459   4.392  13.953  0.2247 -0.0300 -0.1180
26376W        W45230   9.864   6.542  11.492 -0.0941 -0.1169 -0.1640
26377W        W45231   8.172  13.590  15.766 -0.2710  0.2269 -0.3684
26378W        W45232   9.103  12.354   3.238 -0.0276  0.2723  0.1071
26379W        W45233  11.167  15.153  15.197  0.2093  0.2071  0.0570
26380W        W45234   5.661   3.357   4.794  0.3241  0.1745  0.0946
26381W        W45235  13.434   5.375  15.636 -0.0059 -0.1546 -0.3170
26382W        W45236  14.103  14.308   4.905 -0.1524  0.0285  0.1425
26383W        W45237   3.780  15.038   0.885  0.2860  0.3504 -0.0441
26384W        W45238  11.845   9.814  13.255 -0.2017  0.1035 -0.1877
26385W        W45239  13.360  17.711   0.111 -0.0600  0.1379  0.0887
26386W        W45240  16.941  10.333   4.013 -0.1712 -0.0538 -0.0190
26387W        W45241   2.572  14.558   3.506  0.0571 -0.0526  0.3375
26388W        W45242   5.645  14.332   4.452 -0.3287  0.2721  0.2052
26389W        W45243  17.695   9.890  12.051  0.1057  0.2011 -0.0414
26390W        W45244  15.457   3.159   1.583  0.0698 -0.1887  0.0101
26391W        W45245  11.553   7.162  14.771  0.1460 -0.0079 -0.1215
26392W        W45246   2.684   6.110   4.244  0.2064 -0.1178  0.1221
26393W        W45247   3.479   5.821   2.969 -0.3356 -0.0539 -0.0683
26394W        W45248   0.431   3.339   3.060  0.4934  0.2116 -0.0923
26395W        W45249  16.389   4.640  13.758  0.2463  0.3116  0.2214
26396W        W45250   1.780   6.868   2.016  0.0672 -0.0823  0.3756
26397W        W45251  16.411  14.777  15.026 -0.0808 -0.0334  0.1213
26398W        W45252   3.690  12.941   2.205  0.0730  0.1861 -0.0955
26399W        W45253   4.456   6.698   0.454  0.2038  0.0744 -0.1632
26400W        W45254  12.345   6.151   4.363 -0.3053 -0.1760 -0.2685
26401W        W45255   5.887   2.896  11.381  0.3157  0.2439  0.3285
26402W        W45256   3.011   4.218   1.853 -0.0710  0.0144 -0.1785
26403W        W45257  11.015  14.274  15.068  0.2585  0.2233  0.3148
26404W        W45258  12.880   8.976   5.663 -0.2175 -0.0042  0.0366
26405W        W45259  13.966   2.491  11.012 -0.0742  0.1547  0.1200
26406W        W45260  13.814   8.454  11.986 -0.0254 -0.2454  0.1250
26407W        W45261  14.391   6.684  15.640  0.0781 -0.0928  0.0702
26408W        W45262   9.586  11.298  15.522  0.0532 -0.2066 -0.5262
26409W        W45263  12.563   4.882  12.602  0.0392  0.2682  0.0960
26410W        W45264   4.748   5.496  14.609 -0.0473  0.3260  0.0143
26411W        W45265   8.778   6.686  14.370  0.1125 -0.2171 -0.0036
26412W        W45266  15.551  16.270   1.781 -0.1476  0.1277 -0.1385
26413W        W45267  11.790   7.824  12.056 -0.0678 -0.1113 -0.1110
26414W        W45268   6.710   5.160  15.801 -0.1319 -0.1870  0.2310
26415W        W45269  15.454   5.853  13.896  0.2109  0.1020  0.1342
26416W        W45270   2.051   0.841   2.315 -0.0161 -0.0667 -0.4272
26417W        W45271   9.452   5.522   5.125  0.0191 -0.1397  0.0032
26418W        W45272   6.931   0.955   4.164 -0.1893  0.1354 -0.0238
26419W        W45273   4.698   7.463  11.579 -0.0573 -0.0359 -0.0176
26420W        W45274   9.377  16.654   3.370 -0.1112  0.0514 -0.2309
26421W        W45275   9.000   1.400   1.739  0.0189  0.0473  0.3678
26422W        W45276  11.633   9.668   0.858  0.0814 -0.0214 -0.1213
26423W        W45277   8.546  15.832  15.562 -0.0173  0.0830 -0.1182
26424W        W45278  10.100   3.172   3.545  0.0435  0.4090 -0.2128
26425W        W45279  13.311   3.218  13.050  0.2022  0.1972  0.1023
26426W        W45280   3.682  10.896  15.769 -0.1097 -0.1735  0.0785
26427W        W45281  12.763   0.633   1.151  0.0460  0.2032  0.0375
26428W        W45282   7.255  17.473   3.028  0.0099  0.0792  0.1895
26429W        W45283   6.311   1.396  10.447 -0.0180  0.0990 -0.2989
26430W        W45284   0.164  15.706   2.219  0.1806  0.2176 -0.1742
26431W        W45285  10.867   6.081   2.835 -0.1245 -0.2626  0.2425
26432W        W45286   9.371  12.437  13.185  0.3275  0.4304  0.1165
26433W        W45287  16.122  17.645  12.712  0.1272 -0.1282  0.1661
26434W        W45288   2.382  15.985   3.305  0.1140 -0.0811 -0.2640
26435W        W45289   2.738  15.548   4.717 -0.0248  0.1057 -0.0452
26436W        W45290   9.074  15.509   4.166  0.1417 -0.0514  0.0846
26437W        W45291  11.643  13.350   4.019  0.1530  0.0755 -0.2142
26438W        W45292  17.413   3.004   3.145  0.2316 -0.1403  0.0312
26439W        W45293  16.528  15.258   0.608  0.0704  0.2936  0.0730
26440W        W45294  11.670  10.541   2.619 -0.0174 -0.0953  0.1393
26441W        W45295   2.804   3.478  12.569  0.0442 -0.1100 -0.1750
26442W        W45296   0.751  11.315  12.919 -0.2023  0.1800 -0.0251
26443W        W45297  10.385  13.833  13.141  0.0412 -0.3041  0.0218
26444W        W45298  16.136   6.845   4.283  0.1216  0.4495  0.0451
26445W        W45299   9.151   5.565   0.639  0.0920 -0.3465 -0.1709
26446W        W45300   9.060  15.031   4.084  0.0371  0.1598 -0.2193
26447W        W45301  12.744   1.716  14.461 -0.0099 -0.0586 -0.0027
26448W        W45302   0.323  16.985   1.551  0.0846 -0.0442  0.0326
26449W        W45303   3.991  16.068  13.646  0.2578  0.0208  0.0019
26450W        W45304  14.648  10.232   4.664 -0.2349  0.3983  0.1442
26451W        W45305  13.296   7.923   4.738  0.1121 -0.1417  0.1393
26452W        W45306  11.438  12.310   2.156 -0.0955 -0.2797  0.0684
26453W        W45307   9.737   2.013  12.439  0.0721  0.2483  0.1124
26454W        W45308  10.135   6.924  14.106  0.3077 -0.0585 -0.0244
26455W        W45309  13.200  16.780  15.272 -0.0364  0.0063 -0.2119
26456W        W45310   4.009   5.417   2.048  0.2826  0.0937  0.1994
26457W        W45311  12.033   3.718   0.779  0.0450 -0.0971  0.2917
26458W        W45312  10.666   0.652   4.754  0.1706  0.1443  0.1830
26459W        W45313  15.785  10.382   4.099  0.1436  0.1458 -0.0287
26460W        W45314  13.473   4.837  12.961 -0.3180 -0.3144  0.0518
26461W        W45315   8.412   8.797   1.176 -0.0229  0.0545 -0.0983
26462W        W45316  13.521  16.598  11.492  0.1230 -0.0148 -0.2278
26463W        W45317  10.112  17.784  12.281 -0.0032 -0.0062 -0.0228
26464W        W45318   4.338  14.822   3.120  0.0816  0.0065  0.0631
26465W        W45319   2.698  12.403   0.027  0.0629  0.1750 -0.1569
26466W        W45320  16.624  14.517  15.495  0.0777 -0.0641  0.1269
26467W        W45321   5.039  11.813  11.990 -0.2454  0.2341 -0.0459
26468W        W45322   6.900   5.939   4.448 -0.1704 -0.2363  0.0526
26469W        W45323   7.716  16.957   3.997  0.0145 -0.0358  0.2501
26470W        W45324   9.435   6.858   2.392  0.1601 -0.2050  0.1161
26471W        W45325  13.350   8.555   4.300  0.0114 -0.1093  0.1101
26472W        W45326   1.807  13.714   1.731 -0.1045  0.0095  0.1128
26473W        W45327   4.277  12.712  11.705  0.0868 -0.1067  0.1461
26474W        W45328   4.475  14.104  11.615  0.0470 -0.0006  0.2859
26475W        W45329  17.482   3.383  14.105  0.0186 -0.1716  0.1039
26476W        W45330   7.459  15.463  13.320  0.4069 -0.1356 -0.1108
26477W        W45331   0.546   2.859   2.919  0.0867  0.1364  0.1603
26478W        W45332   2.125  14.459   1.490  0.0566 -0.0941  0.0429
26479W        W45333   1.339   5.339  12.150  0.0357  0.1013  0.1823
26480W        W45334   2.149  10.261   2.383 -0.1897  0.0333 -0.2344
26481W        W45335   7.331   8.371  11.843  0.2880 -0.2571 -0.0821
26482W        W45336  12.784   1.341  15.104 -0.0756  0.1298  0.0459
26483W        W45337   2.454   3.152   4.363 -0.1478 -0.3226 -0.4512
26484W        W45338  16.996   2.456  13.476 -0.1250 -0.1935  0.1076
26485W        W45339   3.570   9.000   4.393  0.3994 -0.4035 -0.2186
26486W        W45340   3.967   5.608   2.883 -0.2359  0.0459  0.1248
26487W        W45341  17.429   8.380  13.337 -0.2930 -0.0575 -0.1475
26488W        W45342   1.317  10.269   2.976 -0.1633  0.0475  0.0182
26489W        W45343   8.324  13.010   1.994  0.0079  0.1761 -0.0656
26490W        W45344   2.008   6.773  13.499  0.0130  0.1450 -0.2214
26491W        W45345   5.412  17.644   3.728 -0.0554 -0.1881  0.2536
26492W        W45346   4.363   5.984   0.059 -0.0422  0.3503  0.0663
26493W        W45347   2.640   6.577   1.290  0.0331  0.1322  0.1805
26494W        W45348   6.889   9.937   4.815  0.1845  0.4051 -0.1104
26495W        W45349   5.231   2.665   0.626  0.0510  0.2420 -0.0768
26496W        W45350   7.488   9.494   3.607  0.0963 -0.3084 -0.0228
26497W        W45351   8.059   2.431   1.896  0.1971 -0.0383 -0.1714
26498W        W45352  12.587   2.697   0.039  0.0428 -0.2752  0.2467
26499W        W45353   2.011  16.247   1.322 -0.0015  0.1815  0.1834
26500W        W45354  10.270   2.595  14.119 -0.1249 -0.1691  0.0183
26501W        W45355  14.524   6.034   2.807 -0.3178 -0.2680 -0.1340
26502W        W45356  11.883   5.857   0.358 -0.2345 -0.2549  0.5001
26503W        W45357   6.261  12.279   1.596  0.2708  0.0085  0.0627
26504W        W45358  16.235  16.131   5.042 -0.0058 -0.0984 -0.1389
26505W        W45359   6.249  10.735  12.480 -0.2473  0.0262 -0.0451
26506W        W45360   4.900   2.032  15.521 -0.1649 -0.3120  0.2468
26507W        W45361  17.274   5.245   1.598 -0.0453  0.0475  0.1041
26508W        W45362  10.494   7.820   3.900 -0.0957 -0.0315  0.0167
26509W        W45363   3.318   9.109   3.052 -0.0169  0.0913 -0.1358
26510W        W45364   9.772   0.986   3.634  0.4178  0.3243  0.0658
26511W        W45365   1.849   1.929   5.608  0.4472  0.0433 -0.1136
26512W        W45366   1.063  12.294  13.059 -0.0608 -0.2243  0.1581
26513W        W45367  12.817  16.642   3.116  0.0238  0.0245 -0.1944
26514W        W45368   3.822  10.300   2.221 -0.1000  0.2671 -0.0305
26515W        W45369  15.207   0.000   0.677  0.0821 -0.1006  0.0536
26516W        W45370   9.814   5.547   4.852 -0.0888 -0.1340 -0.0849
26517W        W45371   2.024   9.514  10.563  0.0054  0.1385  0.3035
26518W        W45372  12.073  16.151   1.458 -0.1232 -0.1356  0.0749
26519W        W45373   1.298  17.939   2.280 -0.3142 -0.0498 -0.0227
26520W        W45374   1.872   9.071  13.536 -0.0154 -0.0870  0.1271
26521W        W45375   0.087   8.984   1.020  0.1911  0.2639  0.1244
26522W        W45376   9.039   8.684   1.142 -0.0930 -0.0705 -0.2928
26523W        W45377  15.853   8.542   1.488  0.1772  0.0886  0.1257
26524W        W45378   3.311  17.449   1.771 -0.0301  0.2842  0.1733
26525W        W45379   5.298   6.299   3.873 -0.0816  0.1454 -0.2133
26526W        W45380   6.342  10.451   3.037  0.0493 -0.1063 -0.1273
26527W        W45381  13.808   6.284   2.427  0.0269 -0.0611  0.1370
26528W        W45382  11.520   8.126   3.760  0.0456  0.0856  0.0332
26529W        W45383  14.104  15.050   3.062  0.1318  0.0620  0.0920
26530W        W45384   9.358  11.820  14.841 -0.1133 -0.0529 -0.2589
26531W        W45385  17.737  16.378   3.342 -0.1272 -0.1109  0.0033
26532W        W45386   5.703  14.079  14.825  0.2473  0.1012 -0.0537
26533W        W45387  15.131  15.489   4.746 -0.1605 -0.0599 -0.2589
26534W        W45388  14.126  15.404   2.251  0.0928  0.1641 -0.2890
26535W        W45389   9.790   2.437   1.593 -0.0309 -0.1170 -0.0003
26536W        W45390  13.820  12.809  15.299 -0.0858 -0.1054  0.1918
26537W        W45391  11.297   7.680  12.125  0.0294  0.1293 -0.3138
26538W        W45392   8.359   9.467   2.521 -0.0387 -0.1217 -0.1450
26539W        W45393  17.093   6.280  14.899  0.1223 -0.2419  0.0456
26540W        W45394   0.026  11.986  14.037  0.1070 -0.0892  0.0632
26541W        W45395   3.559  11.568  11.670  0.0096 -0.1403  0.0803
26542W        W45396   7.882   9.215   3.764  0.4480 -0.3170  0.0539
26543W        W45397   6.372   6.755  11.883  0.1593  0.3483 -0.1110
26544W        W45398   7.908  11.641  14.532 -0.0741  0.1505  0.2494
26545W        W45399   7.054   4.329  15.755  0.1665 -0.1534 -0.1881
26546W        W45400   3.853   7.857  11.810 -0.0216 -0.2091 -0.1632
26547W        W45401   6.974   6.126   0.531 -0.2958  0.0706 -0.2905
26548W        W45402  10.484  13.595  13.569 -0.0154 -0.3948  0.2570
26549W        W45403  13.817   6.468   0.145 -0.0485 -0.2688  0.1241
26550W        W45404   9.494   7.232  11.592 -0.0566 -0.0909 -0.2663
26551W        W45405   9.999   5.806   0.134 -0.2683 -0.1898 -0.2876
26552W        W45406   7.639   5.325  11.798 -0.1232  0.0525  0.3180
26553W        W45407   0.999   1.388   4.185 -0.2347  0.0802 -0.1206
26554W        W45408   2.033   9.891  11.816 -0.1133 -0.0042 -0.0384
26555W        W45409  12.137   4.862  12.902  0.2587 -0.0545 -0.3615
26556W        W45410  17.366  16.316  14.564 -0.1007 -0.1383 -0.1924
26557W        W45411  11.592  17.683   0.760 -0.1538 -0.0276  0.0319
26558W        W45412   1.716  10.221   2.651  0.0396 -0.3404  0.0884
26559W        W45413   5.234   0.725  14.195 -0.0768  0.1754  0.0065
26560W        W45414  12.587  16.858   1.396  0.0232 -0.1399  0.1838
26561W        W45415  13.817   8.391  15.665 -0.1193  0.1490  0.2849
26562W        W45416   7.585   9.500   2.799  0.0947 -0.0259 -0.0011
26563W        W45417   9.566   1.727  15.730 -0.1399  0.1624 -0.0665
26564W        W45418  16.631   1.825   1.896  0.2914 -0.0115 -0.1379
26565W        W45419   8.032   3.743  15.197  0.3915  0.0260  0.0233
26566W        W45420  11.647   0.247  13.263 -0.0401 -0.0131  0.0975
26567W        W45421  14.088   2.173   3.272 -0.1124 -0.0399 -0.2428
26568W        W45422   0.994   0.956   0.548  0.1586 -0.1697  0.2114
26569W        W45423   6.929   0.747  11.538 -0.1062 -0.0999  0.1172
26570W        W45424   8.867  12.157  11.568  0.3951 -0.0342 -0.1911
26571W        W45425  13.815  17.789  15.109 -0.2396 -0.1106 -0.1930
26572W        W45426  14.528  10.742   3.945  0.0199  0.0299  0.0212
26573W        W45427   2.376   3.861   0.678  0.2154 -0.0772  0.0989
26574W        W45428   6.565   0.926  15.736 -0.0799  0.1172  0.0241
26575W        W45429   8.564  14.161   3.940 -0.2539 -0.3306 -0.1385
26576W        W45430  17.467  12.005   2.632 -0.0156 -0.0042  0.2090
26577W        W45431   0.917  15.359  14.160  0.1772 -0.3526 -0.0148
26578W        W45432  16.202  15.367   3.773 -0.0354  0.3897  0.1573
26579W        W45433   6.780  13.961   0.023 -0.1889  0.0529  0.2486
26580W        W45434  10.087  13.657   5.462  0.1448 -0.2949  0.0770
26581W        W45435  16.604   4.273  12.304  0.0070  0.4157 -0.0237
26582W        W45436   0.902   9.017   0.769 -0.0081  0.1029  0.0325
26583W        W45437   9.193  14.387  12.333 -0.0445  0.1529  0.0760
26584W        W45438   7.960  10.305   3.770 -0.1004 -0.2598 -0.1157
26585W        W45439   5.069  11.460  13.824  0.1638  0.2788 -0.0156
26586W        W45440  14.177   3.254  11.449  0.2545  0.0350 -0.0834
26587W        W45441   7.244   3.317  14.183  0.1276  0.1546 -0.0118
26588W        W45442   9.253  12.355  14.927  0.1982 -0.1683 -0.0653
26589W        W45443   0.786  17.374   3.842  0.1829 -0.2416  0.0642
26590W        W45444  10.348   5.685  15.265 -0.4014 -0.1112  0.0342
26591W        W45445   2.211  17.485   3.168 -0.0030  0.2033 -0.0496
26592W        W45446  13.522   8.651   1.042  0.2795  0.2629 -0.1247
26593W        W45447  10.601   9.218  12.259  0.0288 -0.0021 -0.3599
26594W        W45448   3.864   8.716  15.032 -0.0175  0.1761 -0.0074
26595W        W45449  17.124   6.668  15.700  0.1444 -0.1426  0.0393
26596W        W45450   8.487   4.134   3.742  0.0161  0.2528  0.0743
26597W        W45451  13.657  14.652   4.811  0.0355 -0.0295 -0.0155
26598W        W45452  11.943  16.283  11.911  0.0370  0.0571  0.1078
26599W        W45453   5.785  12.117  13.393  0.1371  0.0475 -0.1795
26600W        W45454   2.587   0.522   3.023  0.0528  0.0026  0.2859
26601W        W45455   9.609   0.472   4.331  0.0267 -0.0008 -0.3934
26602W        W45456   4.908   1.809   2.471  0.2368  0.0144 -0.1391
26603W        W45457  11.871   8.135  13.879 -0.1062  0.0252  0.1685
26604W        W45458  15.668  12.083  12.108  0.0659  0.1217  0.0470
26605W        W45459   6.078  16.907  13.478  0.3617 -0.0626 -0.2399
26606W        W45460   1.202  12.433  11.636  0.0477  0.1730 -0.1305
26607W        W45461  12.082   6.525   2.365 -0.0391 -0.1715  0.1135
26608W        W45462   0.874   1.345  14.683  0.0527  0.0816 -0.1184
26609W        W45463  17.113   8.006   2.863 -0.0843  0.2175 -0.1792
26610W        W45464   9.470   6.727  11.872 -0.0918  0.0991  0.0980
26611W        W45465   6.460   9.990   2.751 -0.0908  0.0908 -0.1482
26612W        W45466  14.080  10.527  12.474  0.3936  0.1713 -0.0625
26613W        W45467   8.019   5.505  14.596 -0.1061  0.0001  0.1776
26614W        W45468   8.987   9.055   4.946  0.1268  0.2544  0.2993
26615W        W45469  13.362  15.492   0.456 -0.3365  0.0436 -0.0092
26616W        W45470   6.778   9.837   0.948 -0.0687  0.0274 -0.0133
26617W        W45471   4.408  14.382   2.309 -0.2643  0.1571 -0.2340
26618W        W45472   3.539  17.152   5.178 -0.1147 -0.0320 -0.2872
26619W        W45473   8.830   2.298   0.026  0.0974 -0.0541 -0.3699
26620W        W45474   4.106   0.798  15.184 -0.3767  0.3360 -0.1016
26621W        W45475   4.345   6.536  11.748  0.0293  0.1531 -0.2478
26622W        W45476  13.582   0.549  15.672  0.1336  0.2147  0.4144
26623W        W45477  17.189   8.258   0.533 -0.0914  0.0909  0.1283
26624W        W45478  16.629   5.874  15.247 -0.0061  0.0296  0.0567
26625W        W45479  14.729   1.888   2.158 -0.1955  0.1048 -0.1072
26626W        W45480   4.424  12.194  15.830  0.0055 -0.2096  0.0164
26627W        W45481  17.255  14.910  13.558 -0.1770  0.1885 -0.1489
26628W        W45482  17.626   7.933   3.563  0.0384  0.0374 -0.1740
26629W        W45483   6.806   1.229   0.432 -0.1246 -0.0211  0.2876
26630W        W45484  12.353   5.905   3.003  0.0402  0.0357 -0.1833
26631W        W45485  14.768   1.843  15.759 -0.0506  0.1391 -0.1797
26632W        W45486  10.250   5.981   4.164  0.0881  0.1463  0.0160
26633W        W45487  14.361  14.290   3.479 -0.2561 -0.0331 -0.1408
26634W        W45488  14.180   7.093   3.462  0.3292  0.1173  0.0237
26635W        W45489   3.458   7.434  15.636  0.0278 -0.2258  0.0991
26636W        W45490   8.366  13.566   4.541 -0.0321 -0.2516 -0.0391
26637W        W45491   7.092   4.688   1.917 -0.0910  0.1547 -0.0065
26638W        W45492   5.699  10.499  13.147  0.0164  0.2572  0.0843
26639W        W45493   6.775   1.149   3.559 -0.1505  0.1011 -0.0396
26640W        W45494   4.140  13.598  14.436  0.0977 -0.1701 -0.3792
26641W        W45495   6.566  12.730  14.425 -0.0506  0.0136 -0.2574
26642W        W45496   7.081   4.765   1.330 -0.1412 -0.0380  0.1064
26643W        W45497   3.155   9.816   1.594 -0.0812  0.1227  0.1382
26644W        W45498  12.288   2.504   3.200  0.0476  0.1117 -0.1954
26645W        W45499  14.268   4.515  11.464 -0.0906 -0.0960 -0.1772
26646W        W45500  10.004  13.626   4.408 -0.0034  0.0573 -0.1298
26647W        W45501  10.067   6.857   4.494 -0.0798  0.1996  0.0899
26648W        W45502   5.511   1.865   1.753 -0.4800  0.0954 -0.3243
26649W        W45503  17.646  10.994  13.088 -0.0837  0.4116 -0.2056
26650W        W45504  16.587   8.366   3.527  0.1330 -0.1180 -0.0287
26651W        W45505   1.849  14.513  13.379 -0.0405 -0.3844 -0.3339
26652W        W45506  16.171  15.407   1.876 -0.1873  0.3553 -0.0120
26653W        W45507   3.049  16.345   0.158 -0.0269  0.0841 -0.1112
26654W        W45508   7.934  15.041   3.818  0.1826  0.0513 -0.1180
26655W        W45509   7.179   0.292  12.307  0.3415 -0.1621 -0.2365
26656W        W45510  14.437  17.843   2.868 -0.4205 -0.1692  0.2346
26657W        W45511   3.531  16.927   4.351 -0.0356 -0.1210  0.0202
26658W        W45512  16.483  11.344   5.024 -0.1592  0.2217  0.1336
26659W        W45513  14.439  10.714   0.165 -0.1708 -0.0580  0.1255
26660W        W45514   0.456  13.132  12.133  0.1289 -0.1434 -0.3676
26661W        W45515   5.543   0.450   0.570  0.4044 -0.1617 -0.1870
26662W        W45516   2.263   0.678  15.359  0.2227 -0.0097 -0.0431
26663W        W45517   6.854   9.017   3.771 -0.1642  0.1598  0.0096
26664W        W45518   3.074  11.013   0.497  0.0524  0.1984  0.2697
26665W        W45519  15.103  17.352   4.442  0.0851 -0.0740  0.1639
26666W        W45520  17.853   6.487   0.005  0.2231  0.1463  0.2587
26667W        W45521   9.553   4.850   0.097  0.1073  0.2981  0.1835
26668W        W45522  16.012   2.476   4.022 -0.2135  0.1454  0.0331
26669W        W45523   8.501   8.727  11.924  0.0429 -0.1043 -0.0499
26670W        W45524   8.518   0.714   0.142  0.0427  0.0439  0.1457
26671W        W45525  17.278   3.088   2.337 -0.0037  0.0530  0.0131
26672W        W45526   9.851  17.091   4.089  0.1498 -0.0754 -0.1075
26673W        W45527  17.181  15.831  14.596 -0.3239 -0.0078  0.0960
26674W        W45528   4.785  15.624   1.827 -0.1258  0.1699  0.1255
26675W        W45529   7.643   0.745   5.032 -0.2182  0.1652 -0.0398
26676W        W45530   9.637   1.574  12.822 -0.3472 -0.2627 -0.1941
26677W        W45531   3.791   6.390  14.261 -0.1325 -0.1603  0.1573
26678W        W45532   8.416  16.455   2.389  0.0283 -0.0074 -0.3428
26679W        W45533   6.502  15.345  14.669 -0.2262 -0.2281 -0.4013
26680W        W45534   4.215   6.689   4.768 -0.0877  0.0098 -0.0325
26681W        W45535   3.480  11.234   2.244  0.1660 -0.0434  0.3433
26682W        W45536   6.094  13.970  15.711  0.2857  0.1029  0.0730
26683W        W45537   6.029  16.471  11.335 -0.1196  0.1164 -0.0235
26684W        W45538   2.989  10.259  15.959  0.2396  0.3702 -0.2535
26685W        W45539  15.939   2.819   3.276 -0.0416  0.1856  0.0161
26686W        W45540   1.337   2.415   3.073  0.1950 -0.2477  0.1996
26687W        W45541   2.609  10.667  13.489  0.0528 -0.1015 -0.2431
26688W        W45542  17.074  15.214  11.790  0.0259  0.1023  0.0278
26689W        W45543  14.384   0.310   3.405  0.0690  0.0218  0.1458
26690W        W45544   4.058  13.248  13.113  0.3310 -0.2700  0.0664
26691W        W45545  14.452   2.065  16.116  0.1699 -0.2344 -0.1090
26692W        W45546   7.080  12.357  11.910  0.4439 -0.0210 -0.1322
26693W        W45547   4.236   5.057   2.309 -0.0854  0.2056 -0.0757
26694W        W45548  15.624   6.838   2.949  0.0285  0.0819  0.0667
26695W        W45549   2.728   4.657  14.235  0.1647 -0.3303  0.0844
26696W        W45550  11.755  13.941   3.285  0.2337  0.3245  0.1333
26697W        W45551   0.536   0.535  13.125  0.2227  0.2845 -0.1923
26698W        W45552  10.470  14.908   5.080  0.0924 -0.0038  0.1837
26699W        W45553   9.937  17.905   3.058 -0.4433 -0.4744  0.0009
26700W        W45554   3.008   2.231  14.554 -0.1183 -0.2460  0.0059
26701W        W45555  12.268   7.749   1.250 -0.1837 -0.0105  0.2369
26702W        W45556   8.907  13.039   2.290  0.2752 -0.0698 -0.2551
26703W        W45557  15.351  15.777   3.449  0.0050 -0.5241 -0.1656
26704W        W45558  17.472  11.300   2.222 -0.0080  0.2775 -0.0068
26705W        W45559   4.634   9.553   4.044  0.3527  0.2080  0.1807
26706W        W45560  10.986  11.719  11.879 -0.3068 -0.3185 -0.2697
26707W        W45561   1.499   4.306  14.779 -0.1868 -0.0577 -0.2596
26708W        W45562   0.768  16.654   0.136 -0.0217 -0.0908 -0.0530
26709W        W45563   7.350   0.195   4.111  0.2276 -0.0297  0.0256
26710W        W45564   2.097  10.668   2.143 -0.2660 -0.1079  0.1385
26711W        W45565   3.315   2.826  15.994 -0.0756 -0.0944  0.0090
26712W        W45566  18.031   2.563  15.706 -0.1387  0.1005 -0.4639
26713W        W45567  13.633  12.246   2.988  0.2787 -0.0099  0.0369
26714W        W45568   4.402  14.719  13.491 -0.0792  0.1014 -0.0968
26715W        W45569   5.335   3.004   0.170  0.0681 -0.0491  0.1641
26716W        W45570   4.183   8.675  11.382  0.1613  0.1545 -0.1048
26717W        W45571  12.038  10.941  14.442 -0.2115 -0.1609  0.2655
26718W        W45572   9.987   9.933   3.010 -0.0879  0.0208 -0.2281
26719W        W45573  10.702   4.840  15.244  0.2723 -0.0080  0.1626
26720W        W45574   5.579   4.369  11.113  0.3214  0.2349 -0.0136
26721W        W45575  12.344  12.481  15.758  0.0783 -0.0904  0.3060
26722W        W45576   0.745  13.539  15.806  0.0470  0.1932  0.1982
26723W        W45577   9.227   6.582   4.110  0.0595 -0.4727 -0.0114
26724W        W45578   0.092  17.776   4.479 -0.2937  0.3521  0.1963
26725W        W45579  15.286  10.196   2.334  0.0748 -0.1111  0.1593
26726W        W45580   5.596  11.227   0.751  0.1973 -0.2696  0.0937
26727W        W45581   4.659  14.664   0.337 -0.2775 -0.0860 -0.1268
26728W        W45582  11.724   9.492   5.897 -0.2874 -0.0025  0.0279
26729W        W45583   5.542   2.526   3.968  0.0672  0.2779  0.0054
26730W        W45584  12.704  14.396   3.354 -0.0405  0.1345 -0.1353
26731W        W45585  13.048  12.305  13.737 -0.2203  0.2042 -0.0902
26732W        W45586  13.444   3.436  12.595 -0.0846  0.3612 -0.1127
26733W        W45587  16.345   7.526   4.971  0.2279  0.2410 -0.0224
26734W        W45588   0.813   4.573  11.420 -0.2126 -0.0332 -0.0203
26735W        W45589  12.261   8.020   2.704  0.4044  0.0650  0.4136
26736W        W45590  14.378   6.255  14.351  0.0834  0.1150 -0.0367
26737W        W45591   7.071  15.353  15.650  0.0097  0.1691 -0.2227
26738W        W45592   9.665   7.628  12.404 -0.1326 -0.0673  0.0542
26739W        W45593  15.319   6.424   4.366 -0.0692  0.0215  0.0002
26740W        W45594   2.812  16.479  12.582 -0.1481 -0.0110 -0.1150
26741W        W45595  14.852   3.693  12.668  0.1976  0.0265 -0.0264
26742W        W45596   1.303  15.806  15.005 -0.0473 -0.0188  0.1300
26743W        W45597  17.151   1.333   4.682 -0.0010  0.0509 -0.0498
26744W        W45598   1.980  16.511  15.477  0.0198  0.2081 -0.1624
26745W        W45599  11.544  16.943   1.217  0.1693  0.0186 -0.0718
26746W        W45600   4.008   1.937   4.091 -0.1782 -0.0628 -0.5483
26747W        W45601   5.182   0.173   3.479  0.1898  0.2680  0.1650
26748W        W45602   2.646   3.491  13.676  0.0220  0.2638  0.2991
26749W        W45603  14.710  10.805  15.579  0.0656 -0.1194 -0.1183
26750W        W45604   2.906   2.121   3.254 -0.1789 -0.0187 -0.0116
26751W        W45605  10.912  16.657   3.527 -0.1852 -0.3032 -0.0337
26752W        W45606   1.668   6.995   5.560 -0.2700  0.0231  0.0408
26753W        W45607   5.106  11.668  14.297  0.2418 -0.0616 -0.2505
26754W        W45608  16.384   4.170   1.311 -0.2368  0.0234 -0.0042
26755W        W45609   0.872  14.477   1.176  0.0989 -0.0332  0.0796
26756W        W45610  15.953  16.554   0.699 -0.1143  0.2843 -0.0212
26757W        W45611   8.128   2.098  13.641 -0.2947  0.0936  0.5143
26758W        W45612  14.564   8.106  11.285 -0.4132  0.0447 -0.0434
26759W        W45613  11.259   0.334   0.011  0.1939 -0.2495  0.0924
26760W        W45614  11.225  15.595   3.482  0.1373 -0.1193  0.1611
26761W        W45615   9.483   4.319   3.570 -0.2241 -0.1835 -0.0354
26762W        W45616   9.580   8.502  14.450  0.1398  0.0290 -0.0575
26763W        W45617   8.185   7.773   2.088  0.0948  0.0968 -0.2097
26764W        W45618  12.075  14.944  13.594  0.3240  0.2360  0.1482
26765W        W45619   0.210  10.332  14.024  0.0900 -0.0713  0.0602
26766W        W45620   0.757  17.282  14.888 -0.2797 -0.1070 -0.1220
26767W        W45621  13.717   2.934  13.254  0.0919  0.1521 -0.0897
26768W        W45622   3.026  12.183  15.818  0.1067  0.2639  0.1055
26769W        W45623   6.808   2.144   1.948  0.1132  0.1895  0.0809
26770W        W45624   8.581   6.959   2.848  0.0787  0.0351  0.2989
26771W        W45625  17.810  12.953   5.985 -0.1266 -0.1522  0.1207
26772W        W45626  13.337   4.295  12.950  0.2999  0.0666  0.2151
26773W        W45627  16.848   2.324   4.670  0.0164  0.1378 -0.2049
26774W        W45628   4.002  16.421  11.757  0.0853  0.2495  0.0394
26775W        W45629  16.336  15.133  13.682 -0.1868  0.1717 -0.0714
26776W        W45630  16.278   2.510  12.958 -0.0520  0.0415  0.3589
26777W        W45631   3.879   6.625   4.381  0.0351 -0.1485 -0.1799
26778W        W45632   0.867  11.573   1.064 -0.1507  0.0676 -0.0787
26779W        W45633   8.268   6.862   2.466 -0.0193 -0.2684  0.0461
26780W        W45634   2.513   9.849  13.499  0.0461  0.1866 -0.1113
26781W        W45635  14.230  11.858   3.585  0.1869  0.0577  0.1529
26782W        W45636  16.381   1.449   2.172 -0.2569 -0.1433 -0.3372
26783W        W45637  16.845   0.061   4.383  0.1979 -0.0518  0.1095
26784W        W45638  16.256   9.720  15.268 -0.1191 -0.2008  0.1079
26785W        W45639  12.915  12.838  15.363  0.3131  0.1513 -0.1525
26786W        W45640  10.801   5.087  14.350 -0.2916  0.0443  0.2529
26787W        W45641  14.954  12.274  14.875  0.0028 -0.2117  0.0079
26788W        W45642   1.856  13.107   2.450  0.1606  0.0419  0.3084
26789W        W45643   1.582   9.179   2.544  0.1782 -0.0210  0.0485
26790W        W45644   8.798   1.890  12.614  0.0613  0.2536  0.1553
26791W        W45645   3.529   4.908  13.534  0.2147 -0.0591  0.1424
26792W        W45646  15.853   9.611   3.013  0.1217 -0.3313  0.0690
26793W        W45647  10.079   4.794  13.115 -0.1001  0.0397 -0.0736
26794W        W45648   0.740  13.123  13.465 -0.2493  0.0515 -0.1184
26795W        W45649   4.145  14.370  13.968 -0.0563  0.1133  0.2877
26796W        W45650  11.092  14.735  16.075  0.0726  0.1343 -0.0968
26797W        W45651   4.818   9.144  11.825 -0.1083  0.0267  0.2922
26798W        W45652   4.441  10.386   2.374  0.3467 -0.0775  0.3213
26799W        W45653   5.283  10.314  16.017  0.0397  0.1483  0.0763
26800W        W45654  17.554  16.714   1.331 -0.1178 -0.5099 -0.0137
26801W        W45655  10.679  13.911  12.504  0.4011 -0.2299 -0.0247
26802W        W45656   4.475   8.460   4.336 -0.1258  0.0991 -0.2030
26803W        W45657  16.060   8.319   2.278  0.0944 -0.1869 -0.0369
26804W        W45658   5.331  12.151   3.201 -0.1108 -0.0422  0.1191
26805W        W45659  10.485  12.798   6.403 -0.1003 -0.1771 -0.0668
26806W        W45660  16.869   4.509   1.495 -0.1258  0.0513  0.1034
26807W        W45661   5.176  13.416   2.143  0.1844  0.2128 -0.0062
26808W        W45662   4.950   7.888  11.416  0.0719  0.1703  0.1156
26809W        W45663  12.370  15.591  15.752  0.0892 -0.0186  0.0866
26810W        W45664   8.457  17.456   0.420 -0.1623  0.2741  0.0843
26811W        W45665  17.451  13.026  11.367  0.3284  0.1892  0.0707
26812W        W45666   5.099   9.405  11.213  0.0481 -0.0948 -0.0112
26813W        W45667   7.404   9.722   2.021 -0.0773 -0.0013 -0.2724
26814W        W45668   1.544   8.328   1.983 -0.0597  0.0600 -0.1537
26815W        W45669   7.167  15.305  13.999 -0.1820 -0.3136  0.2646
26816W        W45670   5.473   0.101   3.897  0.0779  0.0391 -0.2183
26817W        W45671  16.406   5.930   2.181  0.0193  0.2663 -0.1559
26818W        W45672   1.771   2.092  13.962 -0.0093 -0.0688  0.2145
26819W        W45673  14.886  13.194  14.300 -0.1427 -0.2502 -0.0048
26820W        W45674   3.398   4.051   2.203  0.0145 -0.1295 -0.1110
26821W        W45675   2.185   1.039   1.853 -0.1044  0.1320  0.1355
26822W        W45676  13.306   6.994  14.490  0.0487  0.2046  0.0268
26823W        W45677   9.473   2.934   3.698 -0.3681 -0.1557 -0.0583
26824W        W45678  15.747  15.391  14.981  0.2861 -0.2637  0.3161
26825W        W45679  12.536   5.023   1.530 -0.0887  0.0876 -0.1481
26826W        W45680   5.185   2.450  14.498 -0.1500 -0.1146 -0.1928
26827W        W45681   1.333  13.074   5.828  0.1085 -0.2208  0.0998
26828W        W45682   0.497   6.942  14.705  0.2301 -0.1489  0.0584
26829W        W45683  15.606  15.534   3.129  0.1298  0.0565 -0.1364
26830W        W45684   3.613   5.857   4.325 -0.0648 -0.0406 -0.0879
26831W        W45685   2.337  11.468  12.111 -0.0334  0.1884  0.1251
26832W        W45686  16.923  17.458   3.181  0.3281 -0.1754 -0.0565
26833W        W45687   1.446   9.983  11.500  0.0888 -0.2866 -0.1154
26834W        W45688   2.922   6.158   1.233 -0.0213  0.1601 -0.0117
26835W        W45689   7.986   3.577  13.980 -0.2319  0.0506  0.4090
26836W        W45690   7.698  16.649  14.969  0.0424 -0.3637 -0.1251
26837W        W45691   8.726  16.462  13.488  0.0202  0.1917  0.1109
26838W        W45692   0.596   8.954  15.220 -0.0200  0.0994  0.0329
26839W        W45693  17.306   3.659   3.674  0.0823  0.2712  0.1906
26840W        W45694   9.078   2.169  13.433 -0.0252  0.0942 -0.1639
26841W        W45695   6.185  15.010   2.081 -0.1606  0.0187 -0.4018
26842W        W45696   3.950   2.713   2.038  0.3645 -0.0978  0.0047
26843W        W45697   0.902  12.092   2.426 -0.0601  0.0467  0.1147
26844W        W45698   6.416   4.959  13.347 -0.0305 -0.1329  0.2494
26845W        W45699   5.841   7.201   4.175 -0.0493 -0.4214 -0.4076
26846W        W45700  15.830  15.586   1.152  0.1315  0.1811  0.1982
26847W        W45701  17.076   1.290  12.148  0.1954 -0.2286 -0.0233
26848W        W45702  17.327  12.161   3.776  0.2490  0.2448 -0.0121
26849W        W45703  12.961   7.122  12.860  0.2269 -0.4899 -0.1764
26850W        W45704  17.345   0.318  14.361 -0.1753  0.0858 -0.3553
26851W        W45705   7.280   1.059  11.659  0.0651 -0.1978 -0.0386
26852W        W45706   2.837   2.236  15.482  0.2388  0.1336 -0.1062
26853W        W45707   5.606   3.562   5.965  0.3278  0.0826  0.1401
26854W        W45708   2.979   1.102  11.798 -0.3019  0.0867 -0.0069
26855W        W45709  15.416  15.296   1.200 -0.2106 -0.2080  0.0300
26856W        W45710   6.069   6.235   1.959 -0.0333  0.0370  0.0422
26857W        W45711   0.718   8.885   2.792 -0.2005  0.0932 -0.3418
26858W        W45712  15.577   1.318   3.579  0.0193 -0.2512 -0.0811
26859W        W45713   7.696  13.728  11.555  0.0062 -0.0779 -0.1352
26860W        W45714  10.190   5.168   1.822 -0.0298  0.2012 -0.2115
26861W        W45715  15.759   3.723  12.394  0.1149 -0.0221  0.2342
26862W        W45716  12.423   5.251  13.097  0.0397  0.0520 -0.1920
26863W        W45717  10.814  12.025   3.219  0.3167 -0.1594 -0.1985
26864W        W45718  11.661   6.916  12.224  0.1569 -0.4912  0.2336
26865W        W45719   4.535   6.319  15.435  0.2090 -0.1012  0.1761
26866W        W45720   0.918  11.441   4.448 -0.0249  0.1980  0.0801
26867W        W45721   3.633  16.154   0.316 -0.2220 -0.0357 -0.1262
26868W        W45722   9.754   3.190   3.106 -0.3606  0.0057 -0.0954
26869W        W45723  13.558  17.510   2.539 -0.0479 -0.2648 -0.1987
26870W        W45724   6.851   9.146  15.627 -0.0319  0.0429  0.1149
26871W        W45725  10.322  13.572   2.644  0.2468  0.0436  0.2458
26872W        W45726   0.808  11.840  13.930 -0.2629 -0.0067  0.0080
26873W        W45727   7.570  13.896   2.223 -0.0344 -0.1928 -0.0361
26874W        W45728  13.221  16.325   1.336 -0.2718  0.1254 -0.0888
26875W        W45729  11.757   2.334   1.280 -0.1036 -0.0208  0.1501
26876W        W45730   0.026   2.572   4.152 -0.0458  0.0096  0.0955
26877W        W45731   8.629  14.675   3.592  0.0784 -0.4768 -0.1506
26878W        W45732   4.899   3.415  13.683 -0.3038 -0.2775  0.0678
26879W        W45733  15.181  13.277  13.796  0.0974  0.1577 -0.1949
26880W        W45734  11.091  11.536  16.084 -0.1894  0.0772 -0.0475
26881W        W45735  11.544  12.870  11.373  0.3208  0.1403 -0.2378
26882W        W45736   6.255  12.550   2.709  0.0329 -0.1034 -0.3069
26883W        W45737  11.898   8.414   2.956  0.0202  0.1783  0.1123
26884W        W45738   7.998   5.869   0.114  0.4562 -0.1619  0.1287
26885W        W45739  10.555   7.734  11.716  0.1008 -0.0694 -0.1943
26886W        W45740   7.463   2.735  13.681  0.0896  0.0858  0.1329
26887W        W45741  13.416   4.592   4.071 -0.1823 -0.0997  0.1192
26888W        W45742  10.787   2.134   1.889 -0.0164  0.0039  0.1280
26889W        W45743   0.446  17.398  12.162 -0.1149  0.0717  0.0589
26890W        W45744  12.636   0.331  11.682  0.1724  0.0102  0.0719
26891W        W45745  14.958   8.542   0.083 -0.1532 -0.2986  0.0778
26892W        W45746   9.645  14.132   0.570  0.0855 -0.0748  0.1073
26893W        W45747   2.982   2.655   0.538 -0.0668  0.2870 -0.0599
26894W        W45748  15.208   0.314   2.718 -0.0786 -0.5892  0.1165
26895W        W45749   7.635   4.127   0.119 -0.0730  0.2058  0.0680
26896W        W45750  17.779  10.072  13.950  0.0433 -0.0339  0.0507
26897W        W45751   9.401   0.697   5.386  0.1020  0.1591  0.0087
26898W        W45752   3.937  14.548  13.515 -0.1112 -0.1885  0.1746
26899W        W45753   7.936   0.094   1.973  0.0003  0.3389 -0.4456
26900W        W45754   7.569  17.449   2.610 -0.0288  0.0720  0.3373
26901W        W45755  10.504   9.732   2.951  0.2190 -0.0980  0.3942
26902W        W45756   9.860  12.075   4.276 -0.0438 -0.0111  0.0551
26903W        W45757  11.387   6.230  16.092  0.0860  0.0106  0.0011
26904W        W45758  13.235   8.362  12.262  0.3961  0.1413  0.2957
26905W        W45759  11.238   9.922   3.658 -0.1792  0.0038  0.2078
26906W        W45760  13.289   1.999  12.322  0.2785 -0.1557  0.4440
26907W        W45761   9.823   4.437  12.793 -0.1388  0.2544 -0.4459
26908W        W45762   9.629   4.970   2.659 -0.1811  0.0883  0.1751
26909W        W45763   4.745   6.232   1.299  0.1509 -0.0677  0.0609
26910W        W45764  12.045  12.650   3.675 -0.1241  0.0130 -0.0429
26911W        W45765  17.049   2.599  14.929  0.3950 -0.1750  0.1917
26912W        W45766  11.637   8.810   1.254 -0.0783 -0.0254 -0.2700
26913W        W45767   3.871  17.437  11.937 -0.3510 -0.1513 -0.2065
26914W        W45768  12.736   7.051   2.039 -0.2381  0.1738  0.1988
26915W        W45769   2.211   3.383  13.984  0.1314  0.0059  0.2017
26916W        W45770  16.871  12.754  15.820 -0.0267  0.1145  0.1649
26917W        W45771  14.064   2.427  14.422  0.1965 -0.3984 -0.3308
26918W        W45772   7.196  13.056   3.458  0.0405 -0.1224 -0.0310
26919W        W45773   1.482   8.210  15.511  0.0122 -0.1554  0.1033
26920W        W45774  10.749   5.816   2.378 -0.2927  0.1507  0.2472
26921W        W45775  14.861   3.864   1.196  0.1787 -0.0402  0.0017
26922W        W45776   3.990   1.640  15.730 -0.1828 -0.0504 -0.0177
26923W        W45777  13.739   5.233  12.713 -0.0348  0.1111  0.2067
26924W        W45778   9.834   4.164  13.238  0.1408  0.0646 -0.2028
26925W        W45779   0.249  15.872  12.697 -0.1299 -0.1725 -0.0809
26926W        W45780   1.901  17.535  15.117 -0.0663 -0.1367 -0.0482
26927W        W45781  13.409   3.106  15.676  0.1713  0.1695  0.2609
26928W        W45782   4.715  16.479   0.805  0.1011  0.1502  0.2486
26929W        W45783   4.099   1.321  16.142  0.0603  0.4077 -0.0784
26930W        W45784  12.398  14.334   1.300  0.0730  0.3581 -0.0401
26931W        W45785   1.469   5.965   1.686 -0.2280  0.0998 -0.1306
26932W        W45786   8.157  14.631  15.432  0.0590 -0.0523 -0.4966
26933W        W45787   1.079   9.829   1.920 -0.0770 -0.1824 -0.3059
26934W        W45788   4.802   7.238  15.582 -0.0079  0.2304  0.0605
26935W        W45789   7.218   0.082  13.781  0.1620  0.2278  0.1240
26936W        W45790   2.822  12.825  11.623  0.1818 -0.0528 -0.0610
26937W        W45791  17.480   4.309  14.697  0.2206 -0.0223 -0.0687
26938W        W45792  16.106  17.823   0.566 -0.1845  0.0582 -0.0200
26939W        W45793   7.990   6.473  12.729 -0.3219 -0.0082 -0.0331
26940W        W45794  15.315   4.864  11.477  0.0628  0.4430 -0.2828
26941W        W45795  12.258   4.012   1.133  0.1937 -0.1915  0.2534
26942W        W45796   6.749  15.467   1.869 -0.3230  0.1298 -0.0304
26943W        W45797   1.009  15.735   1.479 -0.5852  0.3189 -0.0095
26944W        W45798  11.413   3.948   0.114 -0.0735  0.0271 -0.1353
26945W        W45799   3.613   9.608   0.054  0.0592  0.0343  0.2291
26946W        W45800   5.450   3.415   4.226 -0.1541 -0.1096 -0.0619
26947W        W45801  17.522  15.501  11.578  0.0346 -0.1358  0.0420
26948W        W45802  17.743   6.218   0.520  0.1372  0.1162  0.0737
26949W        W45803   6.289   6.516   0.114  0.3319  0.4032  0.1819
26950W        W45804   4.092   6.101  11.761 -0.2296 -0.2064  0.1327
26951W        W45805  10.121   9.833   1.860 -0.1670 -0.3332 -0.2549
26952W        W45806  17.301  15.526   0.826  0.0636 -0.0803 -0.3927
26953W        W45807   7.517  11.187  11.462 -0.2035 -0.1011  0.1604
26954W        W45808   9.280  11.503  13.738  0.0264  0.1011  0.3577
26955W        W45809   9.129   3.923   4.421 -0.0246 -0.1147 -0.0975
26956W        W45810   7.050  11.637   4.099 -0.0551 -0.1728  0.2649
26957W        W45811   0.398   2.880   1.935 -0.0875 -0.0559  0.0737
26958W        W45812   6.608  12.194   3.022  0.1675 -0.2346 -0.3050
26959W        W45813  15.680  15.581   0.120  0.1218  0.0939  0.0705
26960W        W45814  10.271  13.854   3.964  0.1508 -0.2268  0.3323
26961W        W45815  12.405  12.876  13.329 -0.2346 -0.2709  0.0015
26962W        W45816  10.763  15.366   5.156 -0.4449  0.0582  0.4639
26963W        W45817  14.648   1.475   3.841 -0.1001 -0.0719 -0.0699
26964W        W45818  14.636   3.353  14.316  0.0646 -0.1270 -0.0149
26965W        W45819   5.711   0.469   3.211 -0.0452 -0.2166 -0.0510
26966W        W45820   8.449  15.725   0.923  0.0220  0.2077 -0.0428
26967W        W45821   8.071  17.239  13.446  0.1139 -0.1174  0.0214
26968W        W45822  15.034   5.606   3.974 -0.1296 -0.0402  0.0449
26969W        W45823   7.488   0.685   5.500 -0.0762  0.2099 -0.0647
26970W        W45824   1.865   0.079   1.843 -0.1837 -0.0919  0.0695
26971W        W45825   0.324   4.658  12.285  0.2671  0.0557 -0.1000
26972W        W45826  15.709  17.021  14.371 -0.4184 -0.0984 -0.2078
26973W        W45827  15.262   3.568  11.915  0.1323  0.1148 -0.1660
26974W        W45828  14.919   1.732   2.872 -0.0534 -0.0099 -0.1210
26975W        W45829   1.005   7.603   3.385  0.3022 -0.0504 -0.0960
26976W        W45830   8.677   1.286  15.232 -0.2165  0.1044  0.2017
26977W        W45831  10.301  14.772   4.467 -0.1511 -0.0728 -0.1488
26978W        W45832  16.059  14.672   0.972 -0.1267 -0.1826 -0.1440
26979W        W45833   6.763  10.697  11.772 -0.2793 -0.0052  0.2102
26980W        W45834  14.281  17.917  10.867 -0.1651  0.2264 -0.1360
26981W        W45835  11.800  15.965  12.232 -0.0819  0.0292 -0.1950
26982W        W45836  10.912  13.356  15.943  0.1924  0.1354  0.0625
26983W        W45837   2.614   9.442  14.196 -0.2900 -0.1923 -0.2904
26984W        W45838  15.916   8.829  11.266 -0.0357  0.0569  0.0670
26985W        W45839  10.849  14.653  15.419 -0.1115 -0.2613 -0.2636
26986W        W45840   9.624   9.569   3.864 -0.3242  0.1377  0.0134
26987W        W45841   9.424  10.514   4.849  0.3813  0.0296 -0.1903
26988W        W45842   8.164  17.711  15.874  0.0680  0.2139 -0.3729
26989W        W45843  15.470   8.008  15.515  0.0077 -0.0694 -0.0741
26990W        W45844   4.547  16.927   4.520 -0.1631  0.0030 -0.3312
26991W        W45845   4.384   7.795  11.404  0.0477  0.3090  0.3818
26992W        W45846  17.171  12.131  15.202 -0.2904 -0.1751 -0.2229
26993W        W45847   9.695  12.138  14.653  0.0560  0.1602  0.0663
26994W        W45848  14.645   2.704   2.447 -0.2109  0.3276  0.0762
26995W        W45849   9.869  10.276   5.067  0.1367 -0.0600  0.2046
26996W        W45850  13.119   9.729  15.434 -0.0544 -0.2206 -0.2583
26997W        W45851   5.681   7.995  13.006  0.1650  0.0537 -0.0401
26998W        W45852  14.455   8.691   1.115  0.0032  0.1636 -0.1239
26999W        W45853  15.625  10.268   1.099  0.3120  0.0043 -0.0481
27000W        W45854  17.164  10.860  10.729  0.0953 -0.0157 -0.1406
27001W        W45855   5.598  16.747  15.526 -0.3694 -0.2740  0.0907
27002W        W45856   3.757  15.431   3.263  0.0581 -0.1578 -0.0134
27003W        W45857   2.071  10.674   2.649 -0.2100 -0.0473  0.0633
27004W        W45858  16.461   4.911  15.440  0.1350  0.0081  0.0602
27005W        W45859   5.576  11.638  14.997  0.4542 -0.3131  0.1681
27006W        W45860   2.847  12.754   4.592  0.0534  0.2697 -0.1217
27007W        W45861  16.003   8.078   1.523  0.0112 -0.1892  0.0022
27008W        W45862  13.738  11.627   3.313 -0.3799 -0.5197  0.0102
27009W        W45863   0.980   6.633   3.922 -0.5164  0.0037 -0.2789
27010W        W45864   5.323  13.420   0.619 -0.1635 -0.2207 -0.1692
27011W        W45865   9.774   5.394   4.280  0.1541  0.1837 -0.1563
27012W        W45866  12.325   7.131   4.276  0.1993 -0.1108 -0.1487
27013W        W45867   0.458  13.885   4.112 -0.1561  0.1605 -0.0689
27014W        W45868  15.543   8.837   3.949  0.0445 -0.2605 -0.0048
27015W        W45869  16.284   0.432   1.930 -0.3291  0.0468  0.1170
27016W        W45870   8.506  13.622   0.115 -0.0719 -0.2429  0.0489
27017W        W45871   9.320  11.925   3.579 -0.0155  0.0468 -0.1778
27018W        W45872   6.976  14.159  11.810  0.4365 -0.0782 -0.0201
27019W        W45873  10.582  12.224  15.229 -0.1664 -0.0544  0.3504
27020W        W45874   5.235   0.291   4.398  0.0535 -0.0067  0.5046
27021W        W45875  14.925   7.230  15.142  0.3869  0.0828 -0.0704
27022W        W45876   3.385   8.715   3.828 -0.0051 -0.0972  0.3775
27023W        W45877   5.804   1.766  12.763  0.2472 -0.1146 -0.0157
27024W        W45878   6.683  16.709  14.117  0.1226 -0.1382 -0.1429
27025W        W45879   5.189  14.799  12.171  0.0170  0.3516  0.0441
27026W        W45880   1.530   8.726  13.276  0.0318  0.0561  0.2988
27027W        W45881  12.941  12.771  13.478  0.1459 -0.0134 -0.1132
27028W        W45882  15.505  13.188   0.282  0.1193  0.1067 -0.0997
27029W        W45883  12.826  12.896   0.262 -0.0592 -0.3207  0.0045
27030W        W45884  14.364  15.832  11.730 -0.0351  0.2185 -0.2363
27031W        W45885  15.488   5.289   1.078 -0.2542  0.0247  0.3302
27032W        W45886  12.932   7.493  11.542  0.1847 -0.1547 -0.1914
27033W        W45887   0.616  14.587  12.390 -0.0171  0.1446 -0.1000
27034W        W45888  10.890   2.478   1.501  0.4096  0.3826  0.0291
27035W        W45889  15.681  12.169   0.493  0.1812  0.0880  0.0331
27036W        W45890   2.173   4.198   1.010 -0.1457  0.0289 -0.0200
27037W        W45891  17.908   6.095   4.710  0.5495  0.0817 -0.2259
27038W        W45892  10.902   5.189  14.972  0.0734 -0.4353 -0.2384
27039W        W45893   9.296   7.635  12.013 -0.0860  0.0862  0.0216
27040W        W45894   1.555   9.197  11.678 -0.2132 -0.3342  0.4379
27041W        W45895  17.004   6.062   1.106 -0.0263  0.1526 -0.0095
27042W        W45896  17.855   8.667  14.048 -0.1025  0.1000  0.3931
27043W        W45897   8.989   3.783   1.767 -0.1651 -0.1164 -0.4805
27044W        W45898  15.995  17.208  15.317 -0.0940 -0.0465  0.1710
27045W        W45899   2.455   0.004   3.133 -0.0239 -0.1714  0.1501
27046W        W45900   3.443  14.780   0.247  0.2372 -0.0722  0.2615
27047W        W45901   9.709   7.731  13.757 -0.0017 -0.2084 -0.1756
27048W        W45902  10.097  14.905   0.420 -0.1348 -0.3386 -0.0316
27049W        W45903   2.327  13.460  14.757  0.2876  0.2281  0.4938
27050W        W45904   2.678   0.708  11.885 -0.2176  0.0728 -0.1314
27051W        W45905  16.233   6.659  15.780  0.0845 -0.0251  0.1016
27052W        W45906   5.480  14.733   2.449 -0.0630  0.0911  0.0963
27053W        W45907  10.449   8.757  15.785 -0.1497  0.4476 -0.0407
27054W        W45908  12.760  14.763   0.745 -0.2405  0.1565  0.0298
27055W        W45909   8.585   3.996   2.772  0.1924  0.0441 -0.0444
27056W        W45910   5.211   1.428  12.134 -0.3802 -0.0333 -0.2120
27057W        W45911  16.622   7.174   2.794  0.0185 -0.1037  0.1066
27058W        W45912   2.580   1.439   4.497 -0.0978 -0.0216 -0.0488
27059W        W45913   2.082   9.837   1.589 -0.0129 -0.1623 -0.5308
27060W        W45914  15.804   7.848  11.752  0.0047 -0.1765  0.1203
27061W        W45915   8.003   4.104   1.944 -0.1422 -0.0217  0.2140
27062W        W45916  16.473   4.774   3.489 -0.0144 -0.1396 -0.1297
27063W        W45917   2.742   0.832   3.523  0.0359  0.3223  0.3946
27064W        W45918   2.835  13.591   0.713 -0.0497  0.1817 -0.0279
27065W        W45919   9.620  13.587   3.369 -0.1283  0.1053 -0.0294
27066W        W45920   7.593  10.343  14.227  0.1040 -0.2331  0.1367
27067W        W45921  12.318   7.960  11.374  0.0025  0.2201 -0.0165
27068W        W45922  16.775  10.390   3.095  0.0605 -0.0132 -0.1979
27069W        W45923   7.311  14.759  14.860 -0.1185 -0.0775 -0.2369
27070W        W45924  12.639  12.975  15.820  0.2104  0.0629 -0.1187
27071W        W45925  10.146   0.536   0.422  0.0619 -0.0490 -0.0696
27072W        W45926  16.430   5.625   0.887 -0.6953 -0.1758  0.0652
27073W        W45927   2.057   8.332  12.938  0.1330 -0.0915  0.1253
27074W        W45928   6.491   4.416  14.518 -0.3506 -0.1286  0.0625
27075W        W45929  10.013   1.535   0.043  0.2059  0.0264  0.1393
27076W        W45930   9.914  10.797   6.024  0.4998  0.0104  0.3248
27077W        W45931   4.034  14.643  15.930 -0.1398  0.5312  0.0398
27078W        W45932  13.016   0.915   0.218 -0.2901  0.3954 -0.0788
27079W        W45933   8.162   5.482   0.885  0.5434 -0.1540 -0.1509
27080W        W45934   9.386   7.271  13.643  0.1055  0.0942  0.3067
27081W        W45935   5.048  12.937   0.557 -0.0006  0.0559 -0.1357
27082W        W45936   1.799  16.815   1.534 -0.2477  0.3162  0.1186
27083W        W45937  13.097  12.384  15.236 -0.2485 -0.0389 -0.1415
27084W        W45938  14.282  11.993  15.426  0.2506  0.2613  0.5253
27085W        W45939   2.701  12.174   1.549 -0.2542  0.0583 -0.1449
27086W        W45940  17.673   3.715   3.040 -0.1918 -0.0831  0.0729
27087W        W45941   0.602  13.291   2.301 -0.3019  0.0004 -0.0843
27088W        W45942  15.358   5.215   3.903  0.1808  0.0011 -0.1891
27089W        W45943   4.207  11.798   3.995  0.0136  0.3095  0.2020
27090W        W45944   6.824   7.643  12.959  0.0212 -0.1363  0.0560
27091W        W45945  13.842  16.647   0.762  0.0247  0.1783 -0.0894
27092W        W45946   5.636   3.065   1.872  0.0402 -0.0545 -0.0719
27093W        W45947  17.999   9.489  15.097 -0.4302  0.0163  0.2446
27094W        W45948   1.586   7.760   1.915  0.2754 -0.4183 -0.0358
27095W        W45949  15.354  16.808   0.823 -0.1571  0.1860 -0.0208
27096W        W45950   2.448  11.963   2.761  0.0013 -0.1663 -0.0980
27097W        W45951  17.493   6.184  14.006 -0.0483 -0.1583 -0.0507
27098W        W45952  11.488  10.183   4.125  0.0548 -0.1977 -0.2181
27099W        W45953  16.834  15.227   3.098 -0.0094  0.0943 -0.1344
27100W        W45954   7.502   4.152  12.550  0.0977  0.1894 -0.3714
27101W        W45955  10.982  11.449   4.019  0.0198 -0.2077 -0.3116
27102W        W45956  10.775  15.827   1.951 -0.1806  0.0131 -0.1570
27103W        W45957   1.663   8.694  13.752 -0.1112 -0.1334 -0.1791
27104W        W45958   7.912   9.357   2.001 -0.3102 -0.2030  0.1853
27105W        W45959   5.127  16.536  15.370  0.1625 -0.0625  0.1551
27106W        W45960   2.337  16.540  12.544 -0.0794 -0.2518  0.0889
27107W        W45961  13.294  16.449   2.328  0.1620 -0.2097  0.2445
27108W        W45962   9.367  15.247   3.431 -0.2821 -0.0952  0.1459
27109W        W45963  10.373   2.164   3.353  0.0503  0.2360 -0.0407
27110W        W45964   7.018  14.068   1.038  0.3394 -0.0765 -0.2501
27111W        W45965   1.137  16.969  16.191  0.0302  0.0727  0.1478
27112W        W45966   2.661   6.137  15.573  0.0799  0.1960 -0.0262
27113W        W45967   7.785  10.919  12.300 -0.0029  0.3225 -0.0060
27114W        W45968  15.925   4.153   3.999 -0.2109  0.1287  0.1599
27115W        W45969  10.334  16.052  11.809 -0.1271 -0.0976 -0.0279
27116W        W45970   6.069  17.627  12.903  0.0025 -0.0133 -0.2638
27117W        W45971  13.480   0.646   3.475 -0.0067 -0.2815  0.0146
27118W        W45972   3.614   6.839  14.009 -0.2421 -0.0621 -0.2190
27119W        W45973   7.866  15.925  13.539 -0.0511  0.0492 -0.0196
27120W        W45974  15.850   9.264   4.130 -0.0527 -0.0161  0.2937
27121W        W45975   2.518  10.923   3.449 -0.1907 -0.3725 -0.4930
27122W        W45976  17.483  14.392   1.797  0.3589 -0.1868 -0.0812
27123W        W45977  17.894   8.922   0.091 -0.2284 -0.0713  0.0318
27124W        W45978   2.154  16.612   0.744 -0.0420  0.1399  0.2496
27125W        W45979   5.452  16.193  16.171 -0.0338 -0.0911 -0.3880
27126W        W45980  14.956   6.094  14.508  0.2259  0.0602  0.1677
27127W        W45981   1.380  13.820  15.745  0.1391 -0.3607 -0.1312
27128W        W45982   0.777  14.113  12.168  0.0085 -0.3937 -0.1578
27129W        W45983   6.952   3.543   0.452  0.1885 -0.0513  0.2555
27130W        W45984  10.415   1.648  12.740 -0.1371  0.1562  0.1414
27131W        W45985  18.000  15.003  11.766  0.1272 -0.1851  0.1308
27132W        W45986   4.122   1.834  15.196 -0.0568  0.0812  0.1308
27133W        W45987   5.994  11.443   1.716 -0.0567  0.0132 -0.1656
27134W        W45988   8.475   1.153   0.797  0.0588 -0.1270 -0.0824
27135W        W45989   7.413  14.322  11.781  0.0514 -0.2573  0.2504
27136W        W45990  15.467  16.912   3.793 -0.0311  0.2607  0.1313
27137W        W45991   6.885  10.965   5.938 -0.1369  0.0046 -0.2974
27138W        W45992   8.230   5.659  12.860  0.0581  0.0838 -0.0583
27139W        W45993  15.890   0.228   4.763 -0.0764 -0.0922 -0.0905
27140W        W45994  15.756   5.274   0.349 -0.0022  0.0095 -0.1839
27141W        W45995   0.302   8.406  14.241 -0.1956  0.1208 -0.1610
27142W        W45996  11.354   9.369   0.488 -0.1913  0.0457 -0.3945
27143W        W45997  18.008  17.716  14.602  0.0813 -0.0795 -0.0578
27144W        W45998   4.708   7.873   1.833 -0.0754 -0.1502 -0.4235
27145W        W45999   4.344   5.645  11.765  0.0568 -0.1471  0.3538
27146W        W46000   6.525  15.010   3.676 -0.2032  0.0512  0.0507
27147W        W46001   4.932  13.899   4.269 -0.1398  0.0439  0.0422
27148W        W46002   6.697   8.910   4.201 -0.0847 -0.2399  0.0485
27149W        W46003   8.436  10.352  15.331 -0.0250 -0.0842 -0.1668
27150W        W46004   9.189   1.362  14.077  0.1960  0.2897  0.1924
27151W        W46005   8.778   3.540  14.576 -0.1613  0.0077  0.2918
27152W        W46006  10.391   2.116   3.876  0.0810 -0.1525  0.2167
27153W        W46007   3.400   7.598  11.648 -0.2657 -0.0225 -0.2169
27154W        W46008   4.234   7.565  12.417  0.0649 -0.2436  0.0675
27155W        W46009  13.934   9.598   4.378 -0.2965 -0.1124 -0.0510
27156W        W46010  11.357  16.894  13.148 -0.1289  0.2046 -0.2562
27157W        W46011  16.479  14.540   5.053 -0.1424 -0.0524  0.4054
27158W        W46012  16.038   7.914  10.215 -0.0031 -0.1857 -0.3204
27159W        W46013   8.530   8.004   3.392 -0.2123  0.1010  0.2266
27160W        W46014   9.617   8.107  10.738  0.0063  0.0121 -0.1810
27161W        W46015   4.847  17.173  11.797  0.0553  0.0497  0.1300
27162W        W46016   8.963   6.915   2.501 -0.3137 -0.3165  0.2520
27163W        W46017   6.672  11.975  12.741  0.1458 -0.2313  0.0304
27164W        W46018   8.347  15.215   3.651  0.0919  0.1069  0.1303
27165W        W46019   8.924   6.773  12.286  0.0929  0.0232  0.0887
27166W        W46020   3.810  10.570  14.981  0.3461  0.3723 -0.0519
27167W        W46021   3.583  13.029  12.927 -0.5023 -0.0413 -0.1762
27168W        W46022  15.985  14.498   2.428 -0.1861 -0.1850 -0.2846
27169W        W46023  15.746   7.001  15.697  0.2053 -0.0485 -0.2806
27170W        W46024   0.037   7.777  15.637 -0.1922  0.0940 -0.2787
27171W        W46025   8.969  11.802   0.203  0.0455  0.3983  0.0241
27172W        W46026  11.918   1.596   3.890 -0.0108  0.0014  0.0217
27173W        W46027  16.627   7.002   3.308  0.1884 -0.2243  0.1780
27174W        W46028  10.136  11.038  13.309 -0.2758  0.2423  0.1429
27175W        W46029   4.943  10.534  15.794 -0.0290 -0.2547 -0.0246
27176W        W46030   3.096   9.596   2.974 -0.0159  0.1746 -0.1285
27177W        W46031   6.339  13.066  15.351  0.2060  0.0432  0.0465
27178W        W46032   7.272  11.940  11.868 -0.0607  0.0838 -0.0810
27179W        W46033  14.634   9.118   2.073  0.0797  0.1112  0.1028
27180W        W46034   2.129   0.396   4.356 -0.3708  0.0629  0.1074
27181W        W46035   2.586  17.289  13.290  0.1830 -0.0315  0.0851
27182W        W46036  16.746  10.156   3.486 -0.0707  0.1877 -0.0663
27183W        W46037  11.053   4.289   4.360  0.1054 -0.2500 -0.1341
27184W        W46038   0.275   0.788  12.064 -0.0399 -0.1645 -0.1979
27185W        W46039   0.166  17.839   0.627  0.2759  0.0253  0.0501
27186W        W46040  16.626   8.231  13.727  0.2860  0.3000 -0.2984
27187W        W46041  11.579   1.960   2.107  0.3004  0.1863  0.0733
27188W        W46042   6.054   2.668  13.242 -0.2314  0.2265  0.2419
27189W        W46043   2.684  15.860  14.432  0.1677  0.2376 -0.2522
27190W        W46044   8.163   4.581   3.657  0.0062 -0.2540  0.3796
27191W        W46045   4.851  12.823   4.242 -0.0604 -0.0106 -0.1548
27192W        W46046   0.327  15.161  15.546 -0.2180  0.0008 -0.3066
27193W        W46047   2.704   2.312  12.289  0.2605 -0.0453  0.2162
27194W        W46048   4.950   0.947   2.137  0.1439  0.0794  0.2011
27195W        W46049  14.897  12.302  11.983 -0.3587  0.0954 -0.2244
27196W        W46050   2.097  13.408  15.825  0.0960 -0.1506 -0.1062
27197W        W46051  12.987  14.171  10.342 -0.1748  0.0691  0.1786
27198W        W46052   5.832  16.598  13.814 -0.0217 -0.0872  0.0555
27199W        W46053  11.261   5.626   3.255  0.0693 -0.2889  0.1318
27200W        W46054   9.140  13.501   0.655  0.1623 -0.1893 -0.0846
27201W        W46055  13.691  11.172   2.922 -0.2463  0.1296 -0.1878
27202W        W46056  15.301  11.263   3.975  0.0669 -0.1154 -0.1825
27203W        W46057   9.728   2.585   4.034 -0.1102  0.3764  0.3924
27204W        W46058   2.409   7.710   2.319  0.0667  0.0152  0.0021
27205W        W46059   3.909   3.849  13.548  0.1188 -0.2135 -0.1440
27206W        W46060   5.386  12.103   1.703 -0.2538  0.2948 -0.1881
27207W        W46061   3.642   5.262  14.831  0.0867 -0.2306  0.0898
27208W        W46062  16.715  11.208   2.228  0.2332 -0.3888 -0.1410
27209W        W46063  14.127  12.480  12.394 -0.1589  0.1213 -0.2243
27210W        W46064   8.151   3.706   1.686  0.0860  0.2367 -0.0901
27211W        W46065  17.961   7.478  13.346 -0.0672  0.1188 -0.2253
27212W        W46066   6.632  17.878  13.059  0.1755 -0.2679  0.1909
27213W        W46067  10.256  16.531  13.984 -0.1886 -0.2249 -0.0451
27214W        W46068   1.475  17.642  12.385  0.0837  0.1581 -0.2128
27215W        W46069  15.588  17.641   0.719  0.0193 -0.2934 -0.2804
27216W        W46070   5.116  16.125  15.766 -0.1164  0.1739 -0.2248
27217W        W46071  10.763  12.076  12.191 -0.2517 -0.0868  0.2718
27218W        W46072  10.716  17.140  12.229 -0.0843  0.1473  0.3459
27219W        W46073  16.293   5.806  11.614  0.0687  0.0275  0.1523
27220W        W46074   7.824  16.754  13.445  0.1964  0.0045  0.0205
27221W        W46075  17.314  11.970   1.008  0.0190  0.2911  0.2667
27222W        W46076  16.344  12.110  15.091 -0.1211  0.0296  0.1008
27223W        W46077  16.049   7.483  11.559 -0.0745  0.1177  0.0693
27224W        W46078   2.583  12.392  12.881 -0.0750  0.0549  0.0217
27225W        W46079   3.995   1.014   4.368 -0.0298  0.2665 -0.3510
27226W        W46080   0.744   3.455  14.931 -0.0014 -0.3279 -0.0211
27227W        W46081   7.272  10.425  11.968  0.1961 -0.1488  0.1647
27228W        W46082   2.417   7.079  12.566  0.0040 -0.0865  0.2011
27229W        W46083   9.897  12.221   2.918 -0.2602 -0.0629  0.3783
27230W        W46084  13.705   5.955  11.387  0.0853 -0.1765  0.2643
27231W        W46085  14.405  12.093   0.089  0.0391 -0.2897 -0.2437
27232W        W46086  10.024   5.752  13.248 -0.1555  0.0042 -0.0059
27233W        W46087   5.922   7.197   1.769  0.1950  0.0857  0.0333
27234W        W46088   1.166   3.244  13.679 -0.0642  0.0480 -0.1376
27235W        W46089   3.897  13.214  14.352 -0.0995  0.0328  0.2322
27236W        W46090   1.082   7.347  12.762  0.2811 -0.1005 -0.0130
27237W        W46091  11.456   6.882   1.397 -0.0417  0.1696 -0.5567
27238W        W46092   0.992  15.657   3.867  0.0195  0.0218  0.0897
27239W        W46093  15.674  13.297  13.040 -0.0984  0.0804 -0.2592
27240W        W46094  12.432   1.472  13.545 -0.2362  0.2146 -0.1209
27241W        W46095   2.240  12.613   0.182  0.0149  0.4380  0.0355
27242W        W46096   5.928   0.175   4.161  0.2784 -0.0176  0.0305
27243W        W46097   7.603   3.961  15.020 -0.0289 -0.1599 -0.3088
27244W        W46098  15.401   8.087  11.486  0.1363  0.1194 -0.1664
27245W        W46099   9.071  17.267  14.846 -0.0833  0.1856  0.0617
27246W        W46100  16.711  15.664   1.258  0.0868 -0.3869 -0.0846
27247W        W46101   2.545   9.634   4.153 -0.1715  0.0440  0.1935
27248W        W46102  17.643  11.955   4.948 -0.0651 -0.1591 -0.0910
27249W        W46103  11.644  15.501   1.567  0.1685  0.0255  0.0710
27250W        W46104  10.980   7.506   0.286 -0.0528 -0.3674 -0.3161
27251W        W46105  16.451   1.014  13.329 -0.2825 -0.1921  0.2187
27252W        W46106   3.665  11.053  12.595 -0.1527 -0.0787 -0.1084
27253W        W46107  10.136  10.293  13.175 -0.0013 -0.0028 -0.0150
27254W        W46108   3.006   2.630  12.040 -0.0758 -0.1884  0.2318
27255W        W46109  14.614   2.048   2.656 -0.1601 -0.1304  0.1345
27256W        W46110  13.475  17.739  13.475  0.1496 -0.0889 -0.1366
27257W        W46111   7.591  10.578   2.136  0.3407  0.3114  0.0686
27258W        W46112  13.671   6.661  14.412  0.1522  0.2051  0.0399
27259W        W46113   2.396   3.711   3.217 -0.2276  0.2112  0.1202
27260W        W46114  15.085   6.399  12.636 -0.2986  0.1395 -0.0296
27261W        W46115  13.520  14.517  14.294 -0.0040  0.0465  0.2849
27262W        W46116  13.942   0.035   3.257 -0.2530  0.0858  0.1776
27263W        W46117   3.815  16.568   1.875 -0.0320  0.0127  0.0255
27264W        W46118  17.400  14.233  15.110  0.0027 -0.1670  0.0697
27265W        W46119  12.662  16.094  15.054  0.0578 -0.0621 -0.1496
27266W        W46120   9.441   6.780  13.688  0.0086  0.1835 -0.0297
27267W        W46121  17.175   0.096  16.059 -0.2697 -0.0575 -0.2081
27268W        W46122   5.572   9.924   4.795  0.0285 -0.0119  0.0442
27269W        W46123   4.527   9.877   2.230  0.1158 -0.2190  0.1712
27270W        W46124  14.356  12.735   3.906  0.1664  0.1792  0.0556
27271W        W46125  16.099  11.309  15.787 -0.0344 -0.2035 -0.1362
27272W        W46126  10.450  16.699   1.265 -0.0094  0.1870  0.0922
27273W        W46127   7.178  15.672   2.843  0.1409  0.0071  0.3302
27274W        W46128   7.260   4.807  15.135 -0.1149 -0.0740 -0.1372
27275W        W46129   4.388   1.979   4.388  0.2639 -0.1921 -0.2625
27276W        W46130  10.052  11.401  15.656  0.3088 -0.2958  0.1942
27277W        W46131   6.155  14.204  15.236 -0.0593 -0.0565 -0.0788
27278W        W46132  10.681  11.508   3.295  0.0153  0.1735  0.1037
27279W        W46133   0.276   3.782  11.264  0.1072 -0.0691  0.1102
27280W        W46134   1.774  11.398  14.891 -0.1497 -0.0673  0.0626
27281W        W46135   0.504   2.141  15.050  0.0214  0.1406 -0.3513
27282W        W46136  11.174   8.389   0.056 -0.0205 -0.1753  0.1506
27283W        W46137   1.551  10.874   3.725 -0.1345 -0.0942 -0.4103
27284W        W46138  12.943   2.961   1.486 -0.2129 -0.2302 -0.0770
27285W        W46139   1.800   2.584  13.661  0.0796 -0.0444  0.2013
27286W        W46140   9.198   8.072  13.064  0.2747 -0.0998  0.1279
27287W        W46141   5.342   2.168  11.521  0.2375 -0.0727 -0.0884
27288W        W46142  12.464  13.702  13.802  0.0143 -0.0843  0.3144
27289W        W46143   2.339   1.217  14.729 -0.1948  0.0520 -0.0568
27290W        W46144  11.625   0.284  14.203  0.0586 -0.1398 -0.0345
27291W        W46145  16.473  16.431  13.954 -0.1469  0.1280 -0.2287
27292W        W46146   7.310   5.592   4.264  0.2777  0.2090 -0.0004
27293W        W46147  11.049   1.255   0.815 -0.3067 -0.0692  0.3116
27294W        W46148   8.904  12.010  14.763  0.1634 -0.2224 -0.1024
27295W        W46149   1.598   7.786   3.154 -0.0824  0.0472  0.1429
27296W        W46150  11.715   3.854   2.276  0.0996 -0.0851 -0.0517
27297W        W46151   0.246   5.396  15.646 -0.0751 -0.3574  0.0451
27298W        W46152  10.152   3.047   0.577 -0.0496 -0.1075  0.0777
27299W        W46153   5.344  13.906  13.342 -0.1868 -0.2110 -0.1148
27300W        W46154  10.086   5.932   3.674  0.1939  0.0875 -0.0531
27301W        W46155  11.883   3.579  13.977 -0.0161 -0.2587 -0.1083
27302W        W46156   7.622   3.434  15.329  0.0083 -0.1686 -0.1841
27303W        W46157   4.165   4.291  13.563  0.0515  0.0145  0.2854
27304W        W46158  16.562  14.978   3.436  0.0053 -0.0630  0.0254
27305W        W46159   4.961   3.857   4.426  0.1112 -0.2787  0.1749
27306W        W46160  14.093  13.601  11.255  0.1733 -0.0379 -0.0428
27307W        W46161   4.476   3.286   3.331 -0.2583 -0.2273  0.0925
27308W        W46162  17.714   9.168  15.338 -0.1383 -0.1800  0.2867
27309W        W46163   3.615   7.422   4.120  0.0096 -0.1425  0.1663
27310W        W46164   8.282   8.263  11.683  0.0356 -0.0040 -0.1335
27311W        W46165   2.543   0.153   4.607  0.0846  0.0494 -0.0402
27312W        W46166   2.690   2.749  10.358 -0.1021  0.0748 -0.1193
27313W        W46167  17.481   8.317  12.380 -0.0938  0.0502 -0.2029
27314W        W46168   9.985   8.226  14.585  0.0390  0.1081  0.2427
27315W        W46169  17.268   7.694   0.625 -0.1966 -0.2401  0.0000
27316W        W46170   4.848  11.886   3.812 -0.2623  0.2640  0.0500
27317W        W46171   0.537  14.261   5.626  0.0018 -0.0166 -0.0306
27318W        W46172  13.017   9.425   0.187  0.0903  0.0000  0.0108
27319W        W46173   4.436   7.877   4.218  0.0853  0.0788  0.2234
27320W        W46174   9.185   5.855  14.613 -0.0431 -0.1953  0.0962
27321W        W46175   9.102   1.861  15.855  0.0470 -0.0083  0.0719
27322W        W46176   7.724   9.663   1.633 -0.1231 -0.0482 -0.1132
27323W        W46177  16.854   2.606  14.381 -0.2801 -0.0574  0.3338
27324W        W46178  17.165   0.409  12.517  0.0436 -0.2342 -0.0671
27325W        W46179  17.695  15.370  13.297  0.0494  0.0363 -0.0230
27326W        W46180  14.142  11.910   1.245  0.0065 -0.0906  0.0209
27327W        W46181   6.585   4.448  13.441 -0.0713 -0.2380  0.0499
27328W        W46182  16.514   4.331  14.735  0.2470  0.0058 -0.1308
27329W        W46183  10.146   2.065  14.903  0.0645  0.1522 -0.0690
27330W        W46184   0.263  12.882   2.317 -0.1907  0.0611 -0.1426
27331W        W46185   2.745  17.992  13.150  0.0713  0.0318 -0.1006
27332W        W46186   9.556   4.957   1.208 -0.0094 -0.4317  0.1973
27333W        W46187  17.563   5.242  12.695 -0.1045 -0.2207  0.0471
27334W        W46188   5.409  11.510  12.159 -0.0926 -0.2990  0.2628
27335W        W46189  17.665   4.101   0.554  0.1641 -0.0316  0.0557
27336W        W46190  17.303   4.206   5.036  0.0107 -0.0056 -0.1050
27337W        W46191  16.632  13.818  13.960  0.0182 -0.1171 -0.2312
27338W        W46192   4.331  11.156  15.374  0.1023  0.4577 -0.0857
27339W        W46193   4.290  13.550  12.713  0.0599  0.2815 -0.3353
27340W        W46194   9.909  14.544   1.259 -0.1363  0.1009 -0.0851
27341W        W46195   2.604  14.824   2.237  0.0074  0.1095  0.1994
27342W        W46196   8.079   1.690   4.829  0.0723  0.1612 -0.4508
27343W        W46197  15.764   3.866  11.542 -0.3745 -0.2071  0.0143
27344W        W46198   4.897   7.957   1.371 -0.2044  0.3411  0.0815
27345W        W46199   8.000  15.226   1.561  0.2831 -0.0926 -0.1434
27346W        W46200  10.677  14.732   3.063 -0.1510  0.0196  0.3155
27347W        W46201  17.991   2.984  14.146  0.0055  0.4119 -0.2515
27348W        W46202  17.613   0.697  13.639 -0.0810  0.0646  0.1490
27349W        W46203   7.418  10.470   1.177 -0.1466 -0.2915 -0.0704
27350W        W46204   3.017   8.800   1.766 -0.0253 -0.0495  0.1762
27351W        W46205  11.934   9.255   2.347 -0.0751 -0.0903  0.0478
27352W        W46206  14.233  13.538  15.430  0.0536 -0.1699  0.1573
27353W        W46207   6.829  14.491   3.534  0.0774 -0.1084 -0.0330
27354W        W46208  14.973   3.735  14.230 -0.0810  0.2376 -0.2620
27355W        W46209   4.942  11.945   1.432 -0.1518 -0.1085 -0.1292
27356W        W46210  14.995   3.012   1.326  0.0985 -0.2238  0.2295
27357W        W46211   4.720   4.898   2.581 -0.0079  0.1551 -0.2314
27358W        W46212   2.163   8.896  11.984 -0.0472  0.1739 -0.0426
27359W        W46213  16.651   9.038  12.213  0.1868  0.0473 -0.1249
27360W        W46214   4.103   5.175   3.265 -0.0688 -0.2069  0.0649
27361W        W46215   4.083  10.792  11.901 -0.1168  0.0119  0.1181
27362W        W46216  13.212  17.751  14.003 -0.1817 -0.3125  0.0346
27363W        W46217   9.817  15.380  15.432 -0.1091  0.1665  0.1468
27364W        W46218   8.235   3.573   6.020  0.0559  0.0696 -0.1564
27365W        W46219   0.860   4.280   0.223 -0.0989 -0.0942  0.0270
27366W        W46220   0.902  11.766   4.045  0.1702  0.4845 -0.3311
27367W        W46221  16.474   6.012  12.166  0.0585 -0.0659  0.2294
27368W        W46222  17.069   3.693  14.076  0.0848 -0.0898  0.2046
27369W        W46223  10.936  15.325  14.812 -0.1926 -0.2336  0.4418
27370W        W46224  10.638   3.991   2.118 -0.0877  0.4392 -0.0320
27371W        W46225  16.036   2.241  13.352 -0.1549 -0.3047 -0.1786
27372W        W46226   2.047   6.417   2.205  0.1622 -0.2710 -0.3475
27373W        W46227   8.256  17.056   3.971  0.0723 -0.0617  0.1575
27374W        W46228   6.812  15.789  13.951  0.0746 -0.3014  0.0058
27375W        W46229  15.049  10.579   2.981 -0.0097 -0.0081  0.0966
27376W        W46230  11.520   0.768   0.077  0.1873 -0.1389  0.2575
27377W        W46231  12.993   6.605  15.168  0.1570 -0.2529  0.0350
27378W        W46232   9.086   5.230   5.900 -0.0022 -0.2294 -0.1647
27379W        W46233  15.169  13.299  15.284  0.0898 -0.0602  0.0122
27380W        W46234   6.199  10.292   4.433  0.2804  0.1348  0.2526
27381W        W46235   3.149  13.963  11.364 -0.1581 -0.2143 -0.1093
27382W        W46236  17.079   2.281  12.591  0.0369 -0.0708  0.1518
27383W        W46237  11.594   5.973  14.638  0.0015  0.1021  0.3225
27384W        W46238  13.650   2.666  14.580  0.0140  0.0288  0.2678
27385W        W46239  17.758  12.106  16.147  0.0902  0.1846 -0.2658
27386W        W46240   0.691  17.833   4.776 -0.3666  0.0063  0.0561
27387W        W46241  15.724   8.601  14.954  0.0413 -0.1309  0.1056
27388W        W46242  14.718  10.786   4.795 -0.1227 -0.1517 -0.0934
27389W        W46243  15.776   5.614  12.813  0.0637  0.0287 -0.3070
27390W        W46244   4.529   4.296  12.313 -0.3550  0.0991 -0.3671
27391W        W46245  16.897  12.925  14.025  0.2451 -0.1363  0.1679
27392W        W46246  13.662   3.210   3.991  0.0555  0.2529 -0.1738
27393W        W46247   0.407  11.253   1.971 -0.0470 -0.1591 -0.1178
27394W        W46248  14.622  11.947  11.785 -0.2097 -0.0974  0.1375
27395W        W46249  11.350  13.338  13.747 -0.2669  0.2058 -0.1337
27396W        W46250  15.529   1.365   0.544  0.0814 -0.3659 -0.1308
27397W        W46251   5.251  17.229   2.942  0.1811 -0.0589  0.1984
27398W        W46252  16.868  10.314  15.472 -0.3051 -0.2031  0.0321
27399W        W46253   8.822  10.419  14.411 -0.2302 -0.1466  0.3901
27400W        W46254   9.945   8.306  15.084 -0.2170 -0.0103  0.2228
27401W        W46255  18.015   6.988   3.068 -0.1843 -0.0436  0.0873
27402W        W46256  13.231   2.249   0.454 -0.1471  0.2973  0.1203
27403W        W46257  15.130   4.904  13.143  0.0511  0.0803 -0.0573
27404W        W46258   5.177   1.574   5.229  0.0986  0.0775  0.1429
27405W        W46259   2.684   7.971  11.062 -0.0745 -0.1238  0.1941
27406W        W46260   5.892   6.086   3.115  0.1717  0.1521  0.0162
27407W        W46261   9.639  16.673   4.908  0.1302  0.2760  0.0457
27408W        W46262  14.103  17.131  15.092 -0.0263 -0.0836 -0.0566
27409W        W46263   2.030  12.835   2.840 -0.0059 -0.0416 -0.1221
27410W        W46264  13.918  14.497  15.007  0.2073 -0.0150 -0.2770
27411W        W46265  12.204   9.424  15.799 -0.1304  0.0920  0.3379
27412W        W46266  11.847   4.130  13.288 -0.0150 -0.1805  0.1479
27413W        W46267   4.691   2.308   0.452  0.1862 -0.4304  0.0073
27414W        W46268  12.957   7.773   2.377  0.1788  0.2745  0.0201
27415W        W46269  16.276   9.309   3.769 -0.1482 -0.1316  0.0191
27416W        W46270   2.151  11.017  14.917 -0.0793  0.0493  0.1732
27417W        W46271  15.047  13.930   2.193  0.0657  0.0394  0.1512
27418W        W46272   8.177   8.706   2.859  0.2684  0.0679 -0.2483
27419W        W46273  16.147  12.721  12.410 -0.0346 -0.3298 -0.2003
27420W        W46274  12.663   3.489   4.154 -0.2086  0.3396 -0.0330
27421W        W46275   1.496   5.678  14.118 -0.3312  0.1556 -0.1987
27422W        W46276   9.402  14.445   5.476 -0.0004  0.0902 -0.2301
27423W        W46277  11.215  14.703   3.865 -0.0215 -0.2713 -0.3325
27424W        W46278   1.208   8.231  13.018  0.1392  0.0790 -0.0562
27425W        W46279  16.453  16.194   1.447  0.1541  0.1423 -0.0793
27426W        W46280   8.588   8.444  15.468 -0.3177  0.1371 -0.1904
27427W        W46281  14.230  14.567  16.108 -0.3999 -0.0227  0.0471
27428W        W46282  10.968  11.899  15.106 -0.2050 -0.0168 -0.1899
27429W        W46283   3.878   9.858   3.583 -0.1566  0.0310 -0.0149
27430W        W46284   4.629   0.890   0.787 -0.1658 -0.3428  0.0813
27431W        W46285  16.271   0.597  13.654 -0.0132 -0.2478 -0.2292
27432W        W46286  13.638   2.002  11.824  0.1993 -0.3331  0.0780
27433W        W46287  12.865   9.199  13.854  0.0983  0.0106 -0.0757
27434W        W46288  13.951  13.958   4.167  0.0713  0.1636  0.2712
27435W        W46289   0.862   2.601  16.105 -0.2090  0.0330 -0.0059
27436W        W46290  10.728  16.493  12.796 -0.3865 -0.3243  0.0207
27437W        W46291   9.069   9.438  16.122 -0.0693  0.2790  0.1317
27438W        W46292   3.596  15.672  14.436  0.0793  0.0523  0.0422
27439W        W46293  10.017   0.725  13.493  0.1659  0.0705 -0.1771
27440W        W46294   8.390   4.602  15.466 -0.0129 -0.2894 -0.1282
27441W        W46295   5.582   2.720  12.396  0.1212 -0.2811  0.0364
27442W        W46296   6.694   2.644   2.566  0.1798  0.0033 -0.1346
27443W        W46297  10.201  10.308   3.850  0.0752  0.1167 -0.0377
27444W        W46298   1.508  13.262   1.237  0.0830  0.1108 -0.2260
27445W        W46299  17.490  14.448   4.094 -0.0756  0.0701  0.3537
27446W        W46300   8.150   2.374   2.372  0.1562 -0.0666  0.0232
27447W        W46301  17.731   5.160  13.457 -0.1628  0.1045  0.1007
27448W        W46302  16.378   0.033  11.431  0.0325  0.3201 -0.2238
27449W        W46303   8.910  14.878  14.447  0.1212 -0.4235 -0.1546
27450W        W46304  14.737  10.875  14.843 -0.1340  0.1111 -0.1093
27451W        W46305   2.308   7.925   3.895 -0.0586 -0.1677 -0.0342
27452W        W46306  17.797   3.635   1.302  0.3092  0.3741  0.0218
27453W        W46307   2.420  16.258   0.182 -0.1678 -0.0885 -0.1023
27454W        W46308   8.367   0.575  15.871 -0.2348 -0.0689  0.1361
27455W        W46309  13.599   5.305   0.296  0.0080 -0.0980 -0.0881
27456W        W46310   2.431   0.548  13.254  0.1088  0.1822  0.0684
27457W        W46311   2.480   1.029   0.253  0.3022  0.1641  0.1746
27458W        W46312   9.042   9.100   2.651  0.0569 -0.2469 -0.0817
27459W        W46313   7.188  14.261  11.071  0.0573  0.1838  0.2241
27460W        W46314  11.047  11.782   5.192  0.0219 -0.1368  0.1019
27461W        W46315   0.063  16.284  15.203 -0.0518 -0.1515  0.1075
27462W        W46316  18.007   9.036   4.437  0.1287 -0.0353 -0.2321
27463W        W46317   9.593   8.071   3.629 -0.0727 -0.1434  0.0712
27464W        W46318  12.205   4.023  11.043 -0.1365  0.0444 -0.2065
27465W        W46319  17.808  14.070  12.830  0.2115 -0.0494 -0.2711
27466W        W46320  13.324  10.938  12.288  0.0540  0.0948 -0.1951
27467W        W46321   0.112   0.496   3.408  0.1164  0.0299 -0.0118
27468W        W46322  11.923  10.256   4.392 -0.1293  0.0789 -0.3365
27469W        W46323  13.722  14.125   5.199 -0.0363 -0.3278  0.1646
27470W        W46324   8.569  12.456  14.394 -0.4102  0.0088  0.1900
27471W        W46325  16.225   3.139  11.903  0.0220 -0.2194  0.2270
27472W        W46326   0.686   2.181   2.472 -0.0540 -0.1211  0.0842
27473W        W46327   5.011   1.569   1.256 -0.3754  0.0576  0.4230
27474W        W46328   8.409   6.638   0.157  0.2125 -0.1438 -0.2732
27475W        W46329  12.070  13.324  15.093  0.1534  0.1560 -0.6426
27476W        W46330  15.299   0.380   3.597  0.2397 -0.3879  0.0775
27477W        W46331  16.900   5.263  15.372 -0.2564  0.1205 -0.1833
27478W        W46332   0.583   9.900  15.443 -0.0752  0.2178 -0.1862
27479W        W46333   9.404  16.279  15.878  0.2111 -0.1611 -0.3184
27480W        W46334  15.983  12.392  12.752 -0.0739  0.0285  0.0360
27481W        W46335   6.476  15.967  13.582  0.1316  0.2213  0.0503
27482W        W46336   6.143  14.398   0.567  0.0399 -0.1993 -0.2335
27483W        W46337   4.395   7.716  12.988 -0.2305  0.2687 -0.1382
27484W        W46338  14.039  12.359  13.364  0.2750  0.4092  0.1537
27485W        W46339  17.797  17.896   4.160 -0.2840 -0.1844  0.3219
27486W        W46340   8.429   7.636   4.634 -0.1406 -0.1663  0.0220
27487W        W46341  16.288  15.981   1.014  0.0225  0.0233  0.0465
27488W        W46342   1.512  10.245   2.064 -0.1512  0.1057 -0.1574
27489W        W46343  14.721   3.512  12.168 -0.1502 -0.0566  0.0297
27490W        W46344   3.262   5.035  15.706  0.0532 -0.2041 -0.0839
27491W        W46345   2.980   6.642  10.935 -0.0455 -0.0275  0.1974
27492W        W46346   4.250  11.377  13.123 -0.1898  0.4109  0.0222
27493W        W46347  13.857   4.192  11.410 -0.1173  0.0768  0.0926
27494W        W46348   5.022  15.667  16.025 -0.2044 -0.0172  0.0274
27495W        W46349  11.428   4.195   1.376 -0.1273  0.0440  0.2154
27496W        W46350   3.236   0.506  11.701 -0.1614 -0.0559 -0.1990
27497W        W46351  14.182   9.779  13.534 -0.2230 -0.0441  0.1353
27498W        W46352  15.220  11.464   0.167  0.0287 -0.1262 -0.0352
27499W        W46353  17.205   2.713  13.971 -0.2163 -0.4935 -0.1613
27500W        W46354   3.768   8.818  12.680 -0.2034 -0.1029 -0.1754
27501W        W46355   0.276   5.322   5.446 -0.2183  0.0576 -0.3170
27502W        W46356  12.310  16.428   1.119 -0.2483 -0.1034  0.3198
27503W        W46357   7.870   6.029   2.358  0.1646  0.1209  0.1372
27504W        W46358   6.880   4.007  13.925 -0.0331 -0.0320 -0.2826
27505W        W46359   8.098  16.854   4.368 -0.1307  0.0509 -0.2424
27506W        W46360  17.615  17.123  11.887 -0.0475 -0.0629  0.0328
27507W        W46361   1.918   3.139  13.620  0.0709 -0.1594 -0.0674
27508W        W46362  10.537   6.455  15.449  0.2930 -0.0209  0.0333
27509W        W46363   7.049  17.961   4.937  0.2323 -0.1966  0.0561
27510W        W46364   5.061  16.842  13.345 -0.0647  0.3698  0.1010
27511W        W46365  10.587  14.581  12.530  0.0530 -0.2992  0.0348
27512W        W46366  17.695  11.781   1.364  0.0093  0.1868 -0.0056
27513W        W46367   6.200  11.318  14.786  0.1073  0.3036 -0.0992
27514W        W46368  11.159   5.117   3.361 -0.0237  0.0384  0.2785
27515W        W46369   4.240   0.421   2.233 -0.0932 -0.1284 -0.1000
27516W        W46370   8.895  14.342   1.802 -0.0255 -0.1399  0.0995
27517W        W46371   4.042  17.254  12.509  0.2641  0.1674  0.1364
27518W        W46372   8.459  16.675  11.818  0.1995 -0.3167 -0.0865
27519W        W46373  17.425  11.457   3.410 -0.0723  0.0552 -0.1325
27520W        W46374   6.045  14.519   2.889  0.0530  0.0723 -0.0468
27521W        W46375   2.066   0.824   0.720  0.1295  0.2984  0.0393
27522W        W46376  16.640  15.710   0.750 -0.3722  0.0386 -0.0593
27523W        W46377   4.736  15.033  15.131 -0.2251 -0.3105 -0.0556
27524W        W46378   4.495   2.417  13.031  0.0663  0.0656  0.2033
27525W        W46379   4.982   0.394  12.332  0.1322 -0.5565 -0.3250
27526W        W46380  18.012  11.902   2.356  0.0296  0.0364  0.0246
27527W        W46381   5.548  16.868  14.181 -0.1073 -0.2032  0.1761
27528W        W46382  17.780   8.615  12.669 -0.0073  0.2184  0.0965
27529W        W46383   6.784   9.251  14.671  0.0387 -0.2177  0.2197
27530W        W46384  16.271  10.609  11.074 -0.0657 -0.3595 -0.1114
27531W        W46385   2.008   9.349   2.877  0.1606  0.2676  0.1358
27532W        W46386  17.416   6.517  15.358 -0.2162 -0.1192  0.1548
27533W        W46387  11.150  13.536   1.001  0.1757 -0.2831 -0.0817
27534W        W46388  15.366   5.862  15.804  0.1929  0.1085  0.1010
27535W        W46389   3.457  14.969   1.756  0.1308  0.0540  0.4696
27536W        W46390  16.291   5.217  11.327 -0.1828 -0.0214 -0.0928
27537W        W46391   2.944   9.625  15.060 -0.0695 -0.1855 -0.3593
27538W        W46392  10.906  16.646   0.369  0.4217 -0.1368 -0.1414
27539W        W46393   1.233   5.873  12.087  0.0713  0.0024 -0.1084
27540W        W46394   5.480   8.392   0.377 -0.1394  0.3271  0.3354
27541W        W46395   9.720  15.937  14.254  0.0093  0.4213 -0.0014
27542W        W46396  13.461  13.424   3.421  0.3108  0.1257 -0.0183
27543W        W46397   8.603  17.483  13.540 -0.0395  0.0393  0.1671
27544W        W46398   0.388   8.201  12.711  0.2439 -0.0606  0.0393
27545W        W46399  13.911   6.171   1.958 -0.0060  0.0042  0.0961
27546W        W46400   4.606  13.100  11.857 -0.0415  0.1688  0.0686
27547W        W46401  17.086   2.845   1.840 -0.0356 -0.4957  0.0181
27548W        W46402   6.927  16.675   0.710 -0.0479  0.1918  0.0292
27549W        W46403  13.017   4.669  12.682  0.0292  0.1352 -0.3059
27550W        W46404   0.095  11.009  13.877 -0.0383 -0.0015 -0.0328
27551W        W46405  12.959   2.301  11.394  0.0700  0.0773 -0.1230
27552W        W46406   1.115   1.628  14.248  0.0784 -0.0941  0.0206
27553W        W46407  13.523  10.348  14.279  0.2586 -0.0764  0.0749
27554W        W46408   8.623   8.075  14.659  0.0764  0.3412 -0.1392
27555W        W46409   3.475  15.814   3.476  0.1716  0.1083  0.0891
27556W        W46410   1.749  11.258   4.535 -0.0641 -0.0479  0.2538
27557W        W46411   1.572  17.499  14.271  0.0744 -0.0972 -0.0793
27558W        W46412   8.981  11.452  15.536 -0.0332  0.0096  0.1513
27559W        W46413  10.819   3.318  16.080 -0.0975  0.0806 -0.2590
27560W        W46414  16.886   2.271   2.574 -0.1331 -0.0195 -0.0656
27561W        W46415  16.814   1.739  13.917  0.2024  0.3341 -0.1333
27562W        W46416   6.120   9.979  13.859 -0.0331  0.1937 -0.1729
27563W        W46417   6.093   6.565   3.188 -0.1179  0.0190  0.1431
27564W        W46418   0.733   6.330  12.934  0.0196  0.0249 -0.1246
27565W        W46419  15.530   6.755  11.051  0.1124  0.0358  0.2806
27566W        W46420   9.879   0.034   4.379 -0.1559 -0.0666 -0.0255
27567W        W46421   6.981  11.750   3.017 -0.0392  0.1689  0.0154
27568W        W46422   2.405  16.805  14.829 -0.0054 -0.0370 -0.1187
27569W        W46423  15.399   1.295  15.808  0.1789 -0.0702  0.1449
27570W        W46424  14.863  11.827  13.186  0.0920 -0.1137  0.0610
27571W        W46425   4.094   0.588   1.278 -0.2053 -0.1137  0.2455
27572W        W46426   9.365  12.475  15.494 -0.0140 -0.1579  0.0209
27573W        W46427   0.962   5.879   0.080  0.3137 -0.0254  0.0416
27574W        W46428  14.857   0.127   3.703  0.0661  0.0821 -0.0360
27575W        W46429   9.512  14.757   2.210 -0.0295 -0.0498 -0.0395
27576W        W46430   9.232   6.598   3.303  0.0056 -0.1370  0.3079
27577W        W46431   0.308   1.967   3.337 -0.0318 -0.0722 -0.1491
27578W        W46432   6.796   3.059  13.319  0.0621 -0.2188 -0.0311
27579W        W46433   9.053  10.540  16.080  0.0381  0.0228 -0.2375
27580W        W46434   0.562   3.733   2.317  0.1568 -0.0927 -0.0654
27581W        W46435   3.813  17.894  12.143  0.3172 -0.2177  0.1941
27582W        W46436   6.148   1.207  12.801  0.4318  0.1120  0.0534
27583W        W46437  10.913   7.490   2.426  0.2185  0.0818  0.1333
27584W        W46438   2.830  17.303  12.858 -0.1625 -0.3169  0.0976
27585W        W46439  12.403   2.954  15.789  0.1776  0.2015 -0.0607
27586W        W46440  11.458   1.564  15.010  0.1189 -0.2937 -0.2186
27587W        W46441  11.843  11.603  15.582 -0.2630 -0.0384 -0.0609
27588W        W46442  17.979  12.826  13.406 -0.1689  0.2836  0.3143
27589W        W46443   9.672   4.906   5.871  0.0321 -0.1738  0.0940
27590W        W46444  15.917   5.325   2.717 -0.0341 -0.1319 -0.0885
27591W        W46445   4.204   4.521  12.971  0.0433 -0.0868  0.2696
27592W        W46446  14.795   5.661  12.052  0.0312  0.0813 -0.2053
27593W        W46447   3.185  14.162  15.882 -0.2112 -0.2874  0.0928
27594W        W46448   9.686  10.057  13.183  0.0260 -0.0913 -0.0604
27595W        W46449   0.825  10.729   2.933  0.0494  0.2099  0.2630
27596W        W46450   2.948  14.552   0.977 -0.0927  0.0443 -0.3822
27597W        W46451  12.551   0.397  13.416 -0.0212 -0.0206 -0.1187
27598W        W46452  16.442  13.265  14.088 -0.1791 -0.3600 -0.2200
27599W        W46453  16.224  13.368   4.638  0.1437 -0.2585  0.2068
27600W        W46454   5.749   0.313  15.523 -0.0609 -0.2744 -0.0405
27601W        W46455   1.006   0.459  13.841 -0.1694 -0.0285 -0.1872
27602W        W46456  15.267  16.378   3.881 -0.1119  0.2425 -0.0499
27603W        W46457   4.585   8.660  13.070  0.0309  0.1050  0.0900
27604W        W46458  14.800  16.376   2.628 -0.0481  0.1866  0.1940
27605W        W46459   6.099   9.154  11.334  0.0934  0.1495  0.2163
27606W        W46460  17.283  15.599  13.382  0.1457  0.2309  0.0438
27607W        W46461   8.059  17.992   1.101 -0.0143 -0.0377 -0.0476
27608W        W46462  15.063   6.921  13.640 -0.0431  0.1033  0.0557
27609W        W46463  11.005   2.978   3.722 -0.1257  0.0743  0.1075
27610W        W46464   6.851  13.431  12.462  0.0068 -0.0734 -0.2406
27611W        W46465  16.901   7.356   2.438  0.1872  0.0760  0.1874
27612W        W46466  11.623   2.705  15.933 -0.1523 -0.2443  0.1132
27613W        W46467  13.405  12.624  13.269 -0.2370 -0.0629 -0.1759
27614W        W46468   7.663   8.348   1.242 -0.1860  0.2077  0.2845
27615W        W46469  12.415  13.736   1.038 -0.2825 -0.0870  0.0722
27616W        W46470   4.891   5.124  13.964 -0.3910 -0.0811  0.2762
27617W        W46471  17.794  11.603  12.090  0.0761  0.1052  0.1450
27618W        W46472  10.664   5.284  13.890  0.2944  0.1845  0.1630
27619W        W46473  16.274   7.718   4.489 -0.1194 -0.0079  0.2036
27620W        W46474   2.477   7.087  15.880 -0.0902 -0.2407  0.3557
27621W        W46475   7.223  10.352  10.680 -0.1066  0.2415 -0.2093
27622W        W46476   6.768  15.985   4.185  0.0484  0.1307 -0.2911
27623W        W46477  15.079   9.018  15.041  0.1931 -0.4957  0.2426
27624W        W46478   2.193   4.017   0.120 -0.2050 -0.1792 -0.4148
27625W        W46479  11.520   3.665   0.566  0.0693 -0.0395  0.1267
27626W        W46480   7.022  12.107   0.048 -0.3758 -0.0965 -0.1977
27627W        W46481  17.203  15.629   4.230 -0.4987 -0.0236  0.4048
27628W        W46482   6.684  16.515   2.652 -0.2124 -0.0612 -0.0997
27629W        W46483  14.346   3.840  14.325 -0.0812 -0.1564  0.1896
27630W        W46484   5.987   4.500   0.768  0.0396  0.1822  0.5938
27631W        W46485   5.854   4.102  15.213  0.0329  0.1269  0.1653
27632W        W46486   7.034  15.442   3.837 -0.2210  0.2414 -0.0668
27633W        W46487  12.408  12.599   0.169 -0.3683  0.3106 -0.1254
27634W        W46488  17.641   8.157   2.023 -0.2478 -0.0495  0.0235
27635W        W46489   1.221   2.605  14.474  0.0160 -0.1182 -0.0619
27636W        W46490  17.987   3.344   0.498 -0.1550 -0.0197 -0.2178
27637W        W46491   6.115  12.721   4.236  0.2135  0.0718  0.0458
27638W        W46492  16.860   4.881  15.701 -0.3683  0.1010 -0.2642
27639W        W46493   0.438  16.031  13.155 -0.1083 -0.1941  0.1006
27640W        W46494   1.216   3.754   4.240 -0.2082 -0.0096 -0.1046
27641W        W46495   5.221   2.679   1.178 -0.0414  0.0982  0.3311
27642W        W46496   0.888  16.202   3.875  0.0015  0.0726 -0.0276
27643W        W46497  15.278  11.753   0.583  0.2452  0.0797 -0.1449
27644W        W46498   2.303   5.605   3.842 -0.1549  0.0732  0.2355
27645W        W46499   5.436  13.944  13.895  0.1670 -0.3030  0.2121
27646W        W46500   8.067  10.940   4.554 -0.0151 -0.1377 -0.3164
27647W        W46501  12.504  17.369   4.267 -0.3596  0.0702  0.0091
27648W        W46502  17.084  12.468  13.311  0.1785 -0.5864 -0.2666
27649W        W46503   7.886   6.143   3.646  0.0963  0.0410 -0.0473
27650W        W46504  16.588  16.783  12.414 -0.4808  0.1833  0.0218
27651W        W46505  12.127   2.709   4.656  0.0579  0.0787 -0.0550
27652W        W46506   7.465  13.526   3.490 -0.1061  0.0663 -0.0951
27653W        W46507  14.393   0.606  15.185  0.0468  0.0397  0.0622
27654W        W46508   9.873  16.248  13.904 -0.0869 -0.0771 -0.0459
27655W        W46509  12.595  15.442   2.948 -0.2076 -0.1360  0.1796
27656W        W46510  12.844  13.014   0.755 -0.0656 -0.1368 -0.0782
27657W        W46511  12.437   0.687   2.866  0.3267 -0.0745  0.2222
27658W        W46512  12.912  10.884  12.800  0.1286  0.5959  0.0218
27659W        W46513  13.068  14.578  14.427  0.0625 -0.0681 -0.2651
27660W        W46514   3.549   9.894  14.483  0.2923  0.4901 -0.1206
27661W        W46515   4.654   7.818  12.533  0.2079  0.1498 -0.0380
27662W        W46516   7.687  17.814   1.527  0.3567 -0.0577  0.0265
27663W        W46517   7.425   2.977   4.712  0.1242 -0.2924  0.2255
27664W        W46518   9.125   7.986  16.008 -0.1351  0.0704  0.1187
27665W        W46519   3.633   6.982  15.723  0.0673 -0.0416  0.0259
27666W        W46520  14.016   2.188   1.858 -0.3176  0.0214  0.2801
27667W        W46521   0.376   1.405  13.244 -0.1889  0.0475  0.0162
27668W        W46522   4.780  13.224  13.316 -0.0094  0.0729 -0.0065
27669W        W46523  14.141  16.807   3.776 -0.3310  0.1774  0.0741
27670W        W46524  11.764   3.331   0.279 -0.0110 -0.2636  0.1896
27671W        W46525   3.057  14.381   0.480 -0.0587 -0.2571  0.0303
27672W        W46526  13.151   6.049   4.694  0.0880  0.2017  0.1351
27673W        W46527  15.881   1.109  15.925  0.0400 -0.0861 -0.0441
27674W        W46528  16.344   2.272   1.835  0.0563  0.1771 -0.1401
27675W        W46529   8.943   0.031   4.503 -0.4639 -0.1656  0.1816
27676W        W46530  17.315  14.794   4.506  0.1622  0.0407  0.0939
27677W        W46531   8.497  17.892   0.013  0.0081  0.1844  0.0500
27678W        W46532  14.889  17.751  15.341  0.2076 -0.1287  0.1168
27679W        W46533   7.084  10.593   1.583 -0.2692 -0.1865  0.0255
27680W        W46534   2.072   0.730  14.064  0.1990  0.0334 -0.3574
27681W        W46535  11.313   6.062   3.014  0.3919  0.1333 -0.1122
27682W        W46536   5.561  15.461   5.029 -0.1074  0.0502  0.0269
27683W        W46537  12.279   6.275  11.419 -0.1946 -0.1795 -0.0008
27684W        W46538   8.920  14.036   2.249 -0.0112  0.0055 -0.0068
27685W        W46539   1.025   0.243  11.957 -0.2336 -0.1417 -0.0247
27686W        W46540   5.660  17.898  15.184 -0.2290 -0.2101 -0.1402
27687W        W46541   9.369  17.938  11.939 -0.1476  0.0736  0.1204
27688W        W46542  16.793   5.117   0.521 -0.0031 -0.1586  0.1103
27689W        W46543   2.500  16.891  12.872 -0.0812  0.0477  0.1704
27690W        W46544  14.107   6.758   2.271 -0.0188 -0.1033  0.2010
27691W        W46545   9.119   1.504  12.733  0.1726  0.0127 -0.1636
27692W        W46546   8.968  14.393  15.400 -0.0106  0.1235 -0.0307
27693W        W46547   1.546  15.671  15.513  0.1216 -0.0774 -0.1479
27694W        W46548   5.257  17.716   0.857  0.0178  0.0196  0.0524
27695W        W46549   6.538  12.318   3.530  0.1518 -0.0721  0.1065
27696W        W46550  17.183  14.963   2.884 -0.2151 -0.1705  0.0578
27697W        W46551   8.064   5.312   3.745 -0.0341 -0.1575 -0.1931
27698W        W46552  11.774  16.840   1.989  0.0199  0.2567 -0.2860
27699W        W46553  12.696  10.164  16.125 -0.1185  0.1895 -0.0706
27700W        W46554  15.112  15.493  12.863  0.2048  0.1165 -0.1993
27701W        W46555  17.407   7.118  12.633  0.1541  0.0201  0.1257
27702W        W46556  10.247   3.576   0.051 -0.0125  0.1303 -0.0437
27703W        W46557  11.432  11.828  12.819  0.1026  0.1216 -0.1058
27704W        W46558   6.490  11.921  14.054 -0.0221  0.1869 -0.0874
27705W        W46559   4.069   5.062  11.467  0.0631 -0.0101  0.0093
27706W        W46560   1.940   1.003  15.046  0.3060 -0.0155 -0.1213
27707W        W46561   2.283   0.960  12.416  0.2619  0.0191  0.1811
27708W        W46562   1.456   3.153  12.179 -0.2012  0.1283  0.2406
27709W        W46563  17.094   3.015  14.660 -0.0138 -0.0299 -0.0384
27710W        W46564  13.517  14.467  11.544  0.1282  0.1237  0.0016
27711W        W46565   8.691   8.199   2.024 -0.1083  0.1953 -0.4067
27712W        W46566  15.156  12.506   0.511 -0.1409 -0.3712  0.1232
27713W        W46567  13.615  14.015  14.895  0.0616  0.1050 -0.1108
27714W        W46568   9.066   9.670   1.609  0.1001 -0.3375 -0.3139
27715W        W46569   3.616  16.530   2.392  0.1410 -0.0039 -0.1607
27716W        W46570  14.352  17.734   2.356  0.2791  0.0151 -0.3594
27717W        W46571   4.413  12.833   1.230 -0.1510  0.2808  0.1756
27718W        W46572  13.091   0.496  11.822  0.2984 -0.2501 -0.0015
27719W        W46573   4.836  12.698  15.759 -0.0181 -0.1712  0.0402
27720W        W46574   5.850   9.752  12.734 -0.1056 -0.3430  0.3352
27721W        W46575   2.816  14.919  15.515 -0.0157  0.2945  0.2542
27722W        W46576  17.182  17.242   4.174  0.1383  0.0143 -0.1012
27723W        W46577   2.141   1.167  13.757 -0.1002  0.0349 -0.2187
27724W        W46578   9.807   6.371  12.252  0.0717 -0.1335  0.2673
27725W        W46579   1.015  13.092   1.253  0.0134  0.0264 -0.0971
27726W        W46580   4.326   2.338   3.287  0.2869  0.4149  0.1282
27727W        W46581  15.713  13.917   0.541 -0.1688 -0.2508 -0.1670
27728W        W46582   8.553  10.188  12.971 -0.2726 -0.1690  0.0238
27729W        W46583  13.464   4.409  12.353 -0.1870  0.0957  0.3512
27730W        W46584   0.892   0.175   0.578 -0.0819  0.3191  0.1846
27731W        W46585   5.068   1.307  13.975  0.2117  0.1367  0.0378
27732W        W46586  15.290   3.201  12.816  0.1350  0.2333  0.2647
27733W        W46587   0.504  16.993   3.436 -0.0899 -0.2123  0.0881
27734W        W46588   1.158  16.175   1.719  0.3092  0.0226  0.1129
27735W        W46589  16.031   1.549  14.525  0.1248  0.1799 -0.2445
27736W        W46590  10.110   9.389  15.166 -0.0288 -0.4585 -0.0188
27737W        W46591   9.142   0.538   4.107 -0.0616  0.1412 -0.2152
27738W        W46592   3.905   5.048  14.082  0.0893 -0.4096  0.3488
27739W        W46593   8.643  17.655  14.792  0.0560 -0.1915 -0.0011
27740W        W46594   6.164  12.462  11.800 -0.1186 -0.0710 -0.0625
27741W        W46595   5.421   0.135   2.923 -0.1451 -0.1065  0.0945
27742W        W46596  11.368   2.984   1.965  0.0211  0.0948 -0.0626
27743W        W46597   6.760   7.409   0.810 -0.2137  0.1401  0.0025
27744W        W46598  17.862   7.756   4.524 -0.1582  0.0093  0.1211
27745W        W46599   7.837  15.140  16.000  0.0506 -0.0172  0.0823
27746W        W46600   4.903  15.549   2.702  0.0005  0.0759  0.0911
27747W        W46601   6.077   1.041   0.942  0.4256  0.0191  0.0510
27748W        W46602   6.534   4.640  15.786  0.1838  0.0123  0.0197
27749W        W46603   4.066  12.628   4.801  0.2504 -0.1684 -0.1446
27750W        W46604   1.970   9.430  13.066  0.0245  0.1987  0.0906
27751W        W46605  10.911   5.990  14.637  0.0792 -0.2871  0.0705
27752W        W46606   7.373  10.804   0.092  0.0174  0.2788  0.0466
27753W        W46607   9.952   2.137   4.576 -0.1825  0.3982 -0.0800
27754W        W46608   8.855  13.210  14.646 -0.0935 -0.0993 -0.1990
27755W        W46609   3.642  15.192   2.289  0.0755  0.0776 -0.4692
27756W        W46610  15.677   1.592   5.353 -0.2935  0.1335 -0.0029
27757W        W46611   9.303  11.210  14.712 -0.0787 -0.1009  0.1330
27758W        W46612  14.639  15.919   0.766  0.1361 -0.2120  0.0120
27759W        W46613   3.654  12.613  11.238  0.5095 -0.0467 -0.1519
27760W        W46614   4.736  11.858   5.192  0.1099  0.1831  0.1213
27761W        W46615   4.288   7.604   2.930  0.0581 -0.1568  0.0012
27762W        W46616   2.003  11.869  13.960 -0.0934  0.0245 -0.2917
27763W        W46617  10.143  12.395  12.840 -0.1451  0.2877 -0.0822
27764W        W46618   8.333   5.998   2.540 -0.1845  0.0967 -0.2906
27765W        W46619   1.633   8.423   3.212 -0.5072 -0.1860  0.1147
27766W        W46620   1.757   8.407   2.598 -0.0175  0.0912  0.1058
27767W        W46621  10.571  16.339   0.757  0.1738 -0.0336 -0.0865
27768W        W46622  11.228  13.621   2.110 -0.1048 -0.2291 -0.2608
27769W        W46623   4.243  13.069  10.443  0.0947  0.0220  0.4917
27770W        W46624   9.131  15.343  12.224  0.2244  0.2011  0.1994
27771W        W46625   8.755  15.577   3.295 -0.1206  0.0087  0.0735
27772W        W46626   1.136   6.279   1.395  0.2267  0.2162 -0.0395
27773W        W46627  15.831   0.193   5.297  0.2012  0.1471 -0.0230
27774W        W46628  13.500   9.147   2.353 -0.2746 -0.0934  0.3036
27775W        W46629  12.152   8.017   0.103 -0.2970 -0.0545 -0.4398
27776W        W46630   1.395   1.552   2.848 -0.0347 -0.1727 -0.1656
27777W        W46631   2.261   4.389  13.252 -0.3339 -0.1720 -0.0189
27778W        W46632   4.524   1.850   0.460  0.0750  0.1603 -0.4444
27779W        W46633   6.214   2.088  10.940 -0.3108  0.1786  0.1885
27780W        W46634   9.656  15.421  15.962 -0.1584 -0.2421  0.1207
27781W        W46635   4.085   3.644  12.780 -0.0859  0.0505 -0.0167
27782W        W46636   8.407   2.491  16.018 -0.1256 -0.0609  0.0606
27783W        W46637   3.316  12.791  11.820 -0.1723 -0.3731  0.0879
27784W        W46638  17.863  13.942  14.294  0.3015 -0.0942  0.0797
27785W        W46639  14.814   9.158  11.285  0.0108 -0.0629  0.1039
27786W        W46640   9.785   7.811   2.783  0.0153  0.0449 -0.1302
27787W        W46641  13.242  13.965  11.641  0.0718 -0.0411 -0.2863
27788W        W46642  11.993   9.279  13.310 -0.3294  0.1271  0.1968
27789W        W46643  16.159   7.371  12.797  0.0365  0.2315  0.0451
27790W        W46644  17.636   8.182  11.422 -0.2019 -0.0435  0.4887
27791W        W46645   7.383   3.586   4.305  0.0719  0.3942 -0.0298
27792W        W46646   0.683   7.618   0.285 -0.1175  0.3006  0.2353
27793W        W46647  17.064   3.948   2.812 -0.2699  0.0899 -0.2516
27794W        W46648  14.207  17.163  14.220 -0.0080  0.0744  0.2623
27795W        W46649  16.740   8.523   1.146 -0.1032 -0.0845  0.0543
27796W        W46650   1.213  17.805  14.291  0.1258  0.1869  0.2149
27797W        W46651  10.226   2.078  14.369 -0.2616  0.1713  0.1820
27798W        W46652  13.958  15.257  15.313  0.0299 -0.3577 -0.0015
27799W        W46653   6.154  16.845  14.120 -0.1026  0.1125 -0.0671
27800W        W46654   3.442   9.137  15.619 -0.0204 -0.2901  0.0726
27801W        W46655   5.457   7.374  11.907 -0.3556  0.2188  0.0981
27802W        W46656  16.719   8.444  15.495 -0.1452  0.0923 -0.1281
27803W        W46657   2.589  13.571   3.577 -0.2081  0.1960 -0.2238
27804W        W46658   3.419   3.654   1.273  0.0618 -0.2051  0.1100
27805W        W46659  10.706   8.346  14.087  0.0396  0.0320  0.1359
27806W        W46660  10.591   3.423  12.419 -0.1271  0.1118 -0.1500
27807W        W46661   2.435  17.466  15.845 -0.0772 -0.2644 -0.1346
27808W        W46662  17.514  15.344   0.276  0.0211 -0.0979 -0.0876
27809W        W46663  13.750  15.537  11.220 -0.1250  0.4056  0.1048
27810W        W46664  10.704  14.057   2.104 -0.1005  0.0691 -0.0650
27811W        W46665  13.236  14.023   0.951 -0.0194 -0.0687 -0.0150
27812W        W46666  10.253   0.680   1.929 -0.0049  0.1944  0.2059
27813W        W46667   7.773  14.317  12.226 -0.1194  0.0193  0.0094
27814W        W46668   5.368   0.303   5.399  0.0157  0.2666 -0.1047
27815W        W46669   2.829   9.893   1.114  0.1919  0.0669 -0.0624
27816W        W46670  13.799  17.849  13.078  0.1208 -0.2644 -0.2702
27817W        W46671   2.225   7.624   0.672 -0.2727  0.0317 -0.2538
27818W        W46672   9.142  15.642   2.622  0.0890 -0.0037 -0.1913
27819W        W46673  11.127   9.480   4.065  0.0286  0.0161 -0.2159
27820W        W46674   1.209   7.733   1.073 -0.2521 -0.2476  0.0788
27821W        W46675  14.088   7.680  14.007 -0.0596  0.1436  0.0059
27822W        W46676   8.133  17.843   0.393 -0.0583  0.3894  0.0770
27823W        W46677   6.446   2.321   2.236  0.0726  0.0812 -0.1356
27824W        W46678  10.933   9.640  10.383  0.2365  0.0575 -0.0927
27825W        W46679  12.035   3.255  11.880 -0.4723 -0.2620 -0.0241
27826W        W46680   4.593  11.997  11.988  0.0165 -0.5229  0.1636
27827W        W46681   0.663  12.586   2.160  0.2045  0.4094  0.0398
27828W        W46682   7.449  11.154  15.973  0.2537  0.2859 -0.0257
27829W        W46683  11.093   2.293   0.625  0.0944 -0.2388 -0.0566
27830W        W46684   9.248   3.608  11.500  0.2305  0.5004  0.1428
27831W        W46685   8.971   2.261   2.673 -0.0740  0.0476  0.2983
27832W        W46686   4.528   5.559  15.084 -0.1659 -0.0631  0.0078
27833W        W46687   9.712   0.472   0.722  0.1477  0.1551 -0.3463
27834W        W46688   0.242  14.098   3.727 -0.0624  0.1010 -0.3639
27835W        W46689   0.121   4.701  15.405  0.1687  0.2189  0.3531
27836W        W46690  13.683  15.133  13.703 -0.0967 -0.1876  0.1530
27837W        W46691  15.188  13.848  11.787  0.0713  0.3786 -0.0089
27838W        W46692  12.952  11.516   4.457  0.1479  0.1436  0.0008
27839W        W46693  12.269   8.836   1.691 -0.0412 -0.1773 -0.1343
27840W        W46694   6.353   3.233   3.485  0.0629 -0.0394  0.1790
27841W        W46695  14.002   0.446   0.687  0.2181  0.1700  0.1403
27842W        W46696   3.497   4.920   4.387 -0.2107  0.1404  0.0971
27843W        W46697  11.162  17.690  15.074  0.3740  0.0241  0.1711
27844W        W46698   0.807  15.567  13.702  0.0657 -0.0090  0.0734
27845W        W46699  16.451   9.564   4.185  0.0998  0.2287  0.0836
27846W        W46700  12.355   3.319  12.768 -0.0603  0.2481  0.1391
27847W        W46701   7.307   0.183  14.432 -0.0803  0.1375  0.1095
27848W        W46702   3.722  11.518   0.881  0.0252 -0.0988 -0.0782
27849W        W46703  15.850   9.258  12.286  0.1955  0.0270  0.0266
27850W        W46704  10.467   9.485   4.800 -0.1887  0.2078  0.0205
27851W        W46705   7.100  13.231   1.264  0.0884  0.1392 -0.3877
27852W        W46706   2.151   4.699  13.605  0.2554 -0.0252  0.2910
27853W        W46707  16.286  14.197  14.099 -0.0669 -0.3986  0.2376
27854W        W46708   7.058  13.191   5.426 -0.0536  0.1815  0.1201
27855W        W46709  11.360  17.927  13.827  0.2608  0.0401 -0.0078
27856W        W46710   0.970  15.386  12.603  0.0690  0.4228  0.2882
27857W        W46711  17.494   8.087   2.471 -0.2347 -0.0329 -0.1410
27858W        W46712  11.616   8.336  11.472  0.3083 -0.0256 -0.2812
27859W        W46713  15.731   8.120   0.549 -0.1687  0.1976  0.2723
27860W        W46714  13.746  16.826   1.963 -0.3714  0.0362  0.1895
27861W        W46715   2.564   9.603   0.395 -0.1604 -0.2214  0.1341
27862W        W46716   1.017  15.139  13.623 -0.1242 -0.0172  0.0918
27863W        W46717  12.770   9.786  11.563 -0.0024  0.0417 -0.2351
27864W        W46718  13.667  11.135  12.040  0.1098 -0.0499  0.1667
27865W        W46719   3.221   8.325  15.775  0.0003 -0.0836 -0.2796
27866W        W46720   5.761  10.629  12.186  0.0195  0.1706  0.1561
27867W        W46721   4.551  14.271   0.085 -0.0216  0.1380 -0.1205
27868W        W46722   9.583  14.246   2.065 -0.0385 -0.0938  0.2947
27869W        W46723  17.309   0.252   1.993  0.0841  0.3852  0.2785
27870W        W46724   6.297   6.000   2.336 -0.1517 -0.2463  0.0015
27871W        W46725   0.364   1.436   2.804  0.0584 -0.2023  0.1438
27872W        W46726   6.614   7.834   2.763  0.0236  0.1033  0.1218
27873W        W46727   4.817  12.090  15.082  0.0003 -0.0458  0.0781
27874W        W46728   3.053  15.023   3.063  0.1347 -0.0384 -0.0166
27875W        W46729   3.029  10.685   1.428  0.0965  0.0505 -0.0955
27876W        W46730   4.852   4.290  14.783 -0.0300 -0.0091  0.1059
27877W        W46731  10.691  13.851   2.931 -0.3765 -0.1499 -0.2772
27878W        W46732  17.834  10.079   1.458  0.0428  0.0202  0.0083
27879W        W46733  16.469  10.272  11.854  0.1228 -0.0696 -0.1403
27880W        W46734   4.673  11.063  12.995  0.4111 -0.0857  0.1332
27881W        W46735   5.679   8.818  11.562 -0.2241  0.0241  0.0687
27882W        W46736  14.151   8.675  15.866  0.0615  0.1940  0.1174
27883W        W46737   1.316  12.774   0.416  0.3735 -0.0783 -0.1025
27884W        W46738  10.665   2.307  14.484 -0.3046  0.0824 -0.1030
27885W        W46739  15.984  10.524  14.264 -0.0423 -0.0497  0.0055
27886W        W46740   5.231   6.659   2.351 -0.2212 -0.2169  0.0255
27887W        W46741   9.587  16.290   4.378 -0.1086 -0.0632 -0.1944
27888W        W46742  10.619  11.779   2.248 -0.0325 -0.0740 -0.1415
27889W        W46743  16.775   6.465   1.981 -0.0230  0.1643 -0.0690
27890W        W46744  10.150   5.425   3.946  0.2365  0.0653 -0.1346
27891W        W46745  14.094  12.729  11.858  0.0948 -0.1073  0.0459
27892W        W46746   6.862   7.220  15.927 -0.0601  0.0951 -0.1169
27893W        W46747  10.406   8.788  12.631  0.1778 -0.2176 -0.0371
27894W        W46748  14.828   5.827  12.974 -0.3191 -0.3006 -0.1498
27895W        W46749  11.479   1.863  12.257  0.0934  0.2142  0.3983
27896W        W46750   7.221  10.926  13.165 -0.2512 -0.1847 -0.0848
27897W        W46751   4.445  10.520  15.813 -0.2565 -0.0221  0.1644
27898W        W46752   6.472  12.555  16.123  0.2093  0.1653  0.0343
27899W        W46753  13.333  17.663  15.378 -0.0317 -0.2968 -0.3594
27900W        W46754   7.973   5.713  11.752 -0.0723 -0.2720  0.2603
27901W        W46755  15.237  14.152   3.622  0.2564  0.1256 -0.1770
27902W        W46756   2.993   7.474   0.821 -0.0334  0.0542 -0.2148
27903W        W46757   5.484  10.663   3.904  0.0918 -0.2510 -0.2251
27904W        W46758  13.189  13.269  12.634  0.2266 -0.4170 -0.0144
27905W        W46759   3.032   0.425  13.282  0.5822  0.1815  0.2166
27906W        W46760  12.916   7.262   2.480 -0.0199  0.0615 -0.0719
27907W        W46761   5.490   2.308   1.944  0.0310 -0.1891  0.0254
27908W        W46762   0.350  15.216  13.996  0.1561 -0.0389  0.2523
27909W        W46763  10.093  11.810  12.884 -0.4816 -0.1733  0.0657
27910W        W46764   1.716   6.357   3.365  0.1150  0.0404 -0.0208
27911W        W46765  13.908   0.610   3.329 -0.0201  0.1971  0.0693
27912W        W46766   0.993  10.220  10.491 -0.0368 -0.1138 -0.0487
27913W        W46767  10.407   0.044   1.174 -0.0909 -0.2539  0.0169
27914W        W46768   1.416  12.941   2.700  0.0368 -0.1735  0.4859
27915W        W46769  17.226  17.266  15.712 -0.0433  0.0961 -0.1480
27916W        W46770  11.590   4.283   4.490 -0.1801 -0.1774  0.0118
27917W        W46771   7.012  12.533   1.951  0.0868  0.3450  0.1312
27918W        W46772   4.253  12.506   1.566 -0.2516 -0.2804 -0.5205
27919W        W46773   7.915   4.872  15.417  0.1922  0.1370 -0.0325
27920W        W46774   3.688  12.303   4.772  0.0294 -0.0459 -0.0451
27921W        W46775  16.848   0.794  12.344  0.0579 -0.1490 -0.2725
27922W        W46776  15.837  12.771  15.407  0.0008 -0.1097  0.3472
27923W        W46777  12.595  18.009  12.999  0.0912 -0.0028  0.2297
27924W        W46778   6.217   3.346  15.083 -0.1017 -0.0232 -0.0486
27925W        W46779   2.771  11.703   1.389  0.2061  0.1259  0.2698
27926W        W46780   0.184  10.034   1.084 -0.3457 -0.1511 -0.0117
27927W        W46781   2.481   3.125  14.335  0.0217  0.0384  0.0363
27928W        W46782   9.793   4.991  13.881 -0.0020  0.0723  0.0905
27929W        W46783   7.948   7.347  13.674  0.1336 -0.0856 -0.0499
27930W        W46784  13.225  13.633   1.284 -0.1252  0.1846  0.0001
27931W        W46785  17.101  10.839   2.977  0.0487 -0.0051 -0.0727
27932W        W46786  15.050   0.489   4.465  0.3146  0.0401 -0.0904
27933W        W46787   6.342  16.010  15.296  0.2460 -0.0915 -0.1628
27934W        W46788  17.297   0.764   3.803 -0.0149 -0.0715  0.0798
27935W        W46789  11.280   8.873  14.598 -0.1435  0.1178  0.1178
27936W        W46790   9.444  15.475   5.432  0.0402  0.1421  0.0732
27937W        W46791   3.528   6.172   3.836  0.3623 -0.0502  0.1588
27938W        W46792  16.956  17.697  15.681  0.0763 -0.0470 -0.3570
27939W        W46793   3.844   3.457   3.567  0.0457  0.0804  0.1238
27940W        W46794   7.491  13.601  13.372 -0.1547 -0.1978 -0.0308
27941W        W46795   8.121   5.314   0.408 -0.1143 -0.0426  0.1200
27942W        W46796  13.652   2.580   0.736  0.0401  0.2040 -0.0683
27943W        W46797   5.292   3.810   2.944  0.1532  0.2586  0.0098
27944W        W46798  16.267   7.337  14.483  0.0474 -0.1344  0.3632
27945W        W46799   5.534   2.554   4.838 -0.1290 -0.1658 -0.1978
27946W        W46800  14.092   6.244  13.938  0.0169  0.2348  0.0481
27947W        W46801   7.255   9.168   1.417  0.1131  0.0168 -0.1351
27948W        W46802   2.604   2.561   0.199 -0.1730  0.1836 -0.0400
27949W        W46803   5.345   5.540  16.200 -0.0624  0.2456  0.0305
27950W        W46804  11.549  14.957   2.938  0.0333  0.0245 -0.1680
27951W        W46805  10.758  12.517  15.892 -0.2234 -0.0178  0.0659
27952W        W46806   6.548  17.057  15.927 -0.1494  0.0771 -0.2485
27953W        W46807  15.744   7.434   1.742 -0.0535 -0.1874  0.1364
27954W        W46808   3.474   0.074   0.632 -0.0834  0.1137 -0.0476
27955W        W46809   5.477  17.344  12.097 -0.0026  0.0677  0.0547
27956W        W46810   2.818   9.287   4.323  0.3993 -0.0861 -0.0456
27957W        W46811  11.555  13.528   3.052 -0.1140  0.0412  0.2314
27958W        W46812   8.076   1.504   0.794  0.1689  0.1288  0.2414
27959W        W46813   8.096  17.428  12.832 -0.2177 -0.2765  0.2985
27960W        W46814  14.649   7.831  14.563 -0.0970 -0.0317 -0.3049
27961W        W46815   8.657   1.270   3.836 -0.0740  0.0237 -0.0117
27962W        W46816   1.553  11.378   3.592  0.4209 -0.4062  0.0948
27963W        W46817  11.053  11.958  13.663 -0.0635 -0.0949  0.0914
27964W        W46818  12.114  10.194   2.299 -0.1366 -0.3167 -0.3013
27965W        W46819   4.263   7.452  11.826  0.1676 -0.3736  0.0596
27966W        W46820   7.434   0.024   3.619  0.0043 -0.1302 -0.1062
27967W        W46821  16.319   6.375   4.384  0.1196  0.0340  0.1103
27968W        W46822   1.020   2.070  11.741  0.1067  0.3023  0.0193
27969W        W46823  12.623   4.746   0.031  0.0176  0.2471 -0.0010
27970W        W46824  14.268   5.553  12.938  0.1922 -0.1033 -0.0919
27971W        W46825  14.265   5.062   2.926  0.1023  0.1991 -0.0485
27972W        W46826  11.815   1.787  15.431  0.0610 -0.1778  0.0456
27973W        W46827   6.391   8.106   0.512  0.3005 -0.0808 -0.1976
27974W        W46828   3.141   5.873  13.215 -0.0345  0.2014  0.4490
27975W        W46829   7.132  17.795   3.907  0.0566  0.0686 -0.1810
27976W        W46830   5.352   2.162  12.689  0.0183  0.0206  0.0514
27977W        W46831  16.372  10.483  12.872  0.0175  0.2266 -0.0246
27978W        W46832   0.838   1.476   1.980  0.0648 -0.0510  0.1623
27979W        W46833   2.571   2.651   1.817 -0.0033  0.1432  0.1129
27980W        W46834  10.174  12.723   5.327 -0.0633 -0.0821 -0.0891
27981W        W46835   4.829   8.358   1.052 -0.1831  0.1633  0.0497
27982W        W46836  12.344  13.092  14.510  0.0083  0.2603 -0.0198
27983W        W46837  11.681   5.572  11.426 -0.0947  0.3747 -0.0372
27984W        W46838  10.836   0.379  12.879  0.2666  0.1684  0.1577
27985W        W46839   8.038   4.648  12.961  0.2383 -0.1854  0.0275
27986W        W46840  10.095  16.995  13.835 -0.2634 -0.0485  0.2335
27987W        W46841  14.913   6.597   4.097  0.2695 -0.1135  0.0556
27988W        W46842   0.789  12.062  16.193 -0.0651 -0.2723 -0.0853
27989W        W46843   9.129  16.224   0.638  0.3546 -0.0957 -0.0382
27990W        W46844  10.877  13.145   1.692  0.2473 -0.1041  0.0208
27991W        W46845   3.362   8.041  15.263  0.0162 -0.0278  0.2893
27992W        W46846   2.211  15.809  14.507  0.1611 -0.1187 -0.1065
27993W        W46847   3.109   5.309  12.809  0.1412 -0.1428 -0.0403
27994W        W46848   7.583   2.771   0.866  0.0096  0.0378 -0.0942
27995W        W46849  10.590  10.553  13.137  0.3320  0.1976 -0.2329
27996W        W46850  11.979   5.147   0.830  0.0792  0.0068 -0.1445
27997W        W46851  15.511  14.573   4.956 -0.0881  0.0369  0.0436
27998W        W46852  10.137   3.415  13.689  0.1587 -0.0777 -0.0181
27999W        W46853  16.161   1.067  13.911  0.4683  0.0098 -0.1350
28000W        W46854  12.946   7.520  15.073  0.0095  0.1499  0.0630
28001W        W46855   8.692   6.684   4.228 -0.0355 -0.2024 -0.2722
28002W        W46856  12.706   4.464  12.200  0.0718  0.0333 -0.0765
28003W        W46857   0.338   6.814   3.365 -0.2406 -0.0565 -0.0855
28004W        W46858   0.564  11.762   1.675 -0.3136  0.1149 -0.2968
28005W        W46859   2.363   0.510   0.998  0.1132 -0.1592 -0.2815
28006W        W46860   1.446  14.687  11.613  0.1192  0.0239  0.1396
28007W        W46861   2.803  10.398   1.054 -0.1814  0.3517  0.1136
28008W        W46862   8.737  15.738  11.470  0.0540 -0.2591 -0.3954
28009W        W46863   1.775   8.562   1.372  0.1249 -0.2295 -0.2942
28010W        W46864   6.417   9.650  15.754 -0.1760 -0.0195 -0.0808
28011W        W46865   4.793   8.944   0.363 -0.1130  0.0266  0.0308
28012W        W46866  14.283   4.193  13.253 -0.0407 -0.0229 -0.0425
28013W        W46867   4.373   4.255   0.732  0.0560 -0.2328 -0.0524
28014W        W46868   9.330   0.714  12.395  0.3624  0.2307  0.0650
28015W        W46869  11.259  13.423   4.915 -0.2694  0.2354 -0.0629
28016W        W46870   0.864   1.242   2.701 -0.0539  0.1190  0.0124
28017W        W46871   1.731  11.634   2.502  0.0886 -0.1372 -0.0761
28018W        W46872   1.804   7.190  14.821 -0.2195 -0.0466  0.2953
28019W        W46873  11.257   1.288   1.386  0.0686 -0.1825 -0.0592
28020W        W46874   9.782  15.355  14.871 -0.0031  0.0963 -0.0125
28021W        W46875   3.885  10.662  12.344  0.3754 -0.1372 -0.0226
28022W        W46876  11.661  14.240   0.952  0.1806 -0.1518  0.3303
28023W        W46877   1.834   0.049  12.818  0.1574  0.2432 -0.0834
28024W        W46878  10.769  15.482  15.322  0.0359  0.1894 -0.0662
28025W        W46879   0.279  10.269  14.566  0.0184 -0.2084  0.0712
28026W        W46880  11.647  15.527  13.029 -0.2531  0.1480 -0.0161
28027W        W46881  10.657   1.061  12.079 -0.4359 -0.0190 -0.0690
28028W        W46882   5.205   7.401  11.480  0.0119 -0.0229  0.1610
28029W        W46883   4.679  17.774   3.242 -0.0829 -0.1293 -0.3011
28030W        W46884   1.430   2.225  13.652 -0.0364  0.5270 -0.3496
28031W        W46885  15.547  16.720  15.304  0.1804 -0.0851  0.1158
28032W        W46886   5.454  13.274  11.756 -0.1074  0.1367 -0.0792
28033W        W46887   3.062   0.988  15.050 -0.0772  0.2059 -0.2378
28034W        W46888  15.389  15.846  11.433  0.2038  0.3916  0.0809
28035W        W46889   0.306   3.314  11.408  0.0541 -0.2772  0.0862
28036W        W46890   9.149  10.780  14.316  0.1196  0.1343 -0.0250
28037W        W46891  13.987   2.586  12.594 -0.2475 -0.1140  0.1075
28038W        W46892   9.035  14.166   5.255 -0.1520 -0.0812  0.0250
28039W        W46893  11.002   1.863  14.701  0.0913  0.0926 -0.0173
28040W        W46894   3.541  17.911   1.730  0.0462  0.0735 -0.0233
28041W        W46895   4.521  11.677   2.065 -0.3358  0.1338 -0.1267
28042W        W46896   0.859  15.473   2.761  0.1711 -0.1576 -0.0574
28043W        W46897  12.468   6.097  10.990  0.2707  0.2138 -0.4003
28044W        W46898  14.425   9.418  14.447  0.2266 -0.0087  0.1749
28045W        W46899   0.870   3.544  12.802  0.0844  0.0421 -0.1331
28046W        W46900   0.810  16.357   2.053 -0.0069 -0.0840 -0.3069
28047W        W46901  15.944   2.719  13.304 -0.0566  0.1576  0.3669
28048W        W46902   6.018  17.712   2.984 -0.2842  0.2058 -0.1645
28049W        W46903   0.962  15.073  15.727  0.0543  0.0991  0.1647
28050W        W46904   4.990  17.983  13.909 -0.1310 -0.3942 -0.2225
28051W        W46905  15.213   7.895  10.583  0.1789 -0.2825 -0.0181
28052W        W46906   9.573   2.808  13.838  0.1976  0.2637 -0.0524
28053W        W46907   8.839  16.532  12.166  0.2161 -0.0984  0.3054
28054W        W46908  14.339   1.840  13.773 -0.1253  0.0069  0.1299
28055W        W46909   8.529  14.769   0.039 -0.1167  0.4319  0.2113
28056W        W46910  13.742   4.514   5.615 -0.0177  0.0439  0.2650
28057W        W46911   4.028  10.625  15.467  0.2163 -0.3033  0.2005
28058W        W46912   8.239   3.680   4.607 -0.0427 -0.0742 -0.0549
28059W        W46913  11.868   2.242  12.240 -0.3375 -0.2944  0.1226
28060W        W46914   7.276  17.143  10.805  0.0105  0.1074  0.1392
28061W        W46915   7.852   6.316   1.797  0.0262  0.1650 -0.1696
28062W        W46916  14.009  13.829  14.181  0.0378  0.2780 -0.0348
28063W        W46917   4.933  16.164   3.551  0.1389  0.0244 -0.0829
28064W        W46918   8.907  13.779  14.521  0.3637  0.2653 -0.0830
28065W        W46919   5.742   9.029   5.193  0.0197  0.2977  0.1504
28066W        W46920  14.945   3.338   3.235 -0.0493  0.0335  0.1062
28067W        W46921   8.695  11.502   3.816  0.0716  0.0223  0.3011
28068W        W46922   3.743  10.284   0.162 -0.2593 -0.1951  0.0513
28069W        W46923   9.050   7.523  11.608  0.0994  0.2822  0.1411
28070W        W46924   6.095   4.165   2.730  0.0667  0.2404  0.1425
28071W        W46925  13.613  10.142   3.742 -0.0913  0.4400 -0.1011
28072W        W46926   7.755   7.004  11.491  0.1869  0.1997 -0.2308
28073W        W46927   0.144  12.285  15.797  0.0381  0.1479 -0.1420
28074W        W46928   2.649  12.974  14.569  0.0223  0.0985  0.1916
28075W        W46929   1.821  17.697   4.850  0.0562 -0.1014  0.0819
28076W        W46930  12.523  10.494  13.662  0.0424 -0.0875  0.0528
28077W        W46931  11.587  14.536  11.173 -0.0476  0.1188  0.2371
28078W        W46932  15.894   3.217   1.802 -0.1368 -0.0205  0.0766
28079W        W46933  10.484   2.711  13.104  0.0809 -0.0776  0.1697
28080W        W46934  16.304   5.511  12.971 -0.0939  0.0374  0.0643
28081W        W46935   4.371   7.235  15.169 -0.1487 -0.1293  0.0241
28082W        W46936  16.696   4.120   1.812 -0.0036  0.0400  0.1890
28083W        W46937  15.771  14.162   4.933  0.0541  0.0121 -0.2178
28084W        W46938  13.097   0.747  14.330 -0.2039  0.0459  0.1117
28085W        W46939   7.824  10.669   0.384 -0.2709  0.0859 -0.1619
28086W        W46940  10.514  11.678  15.975 -0.1128  0.1110 -0.0954
28087W        W46941   0.033   2.514   1.859 -0.1786  0.2409 -0.0644
28088W        W46942  16.102   4.202  11.893  0.2199  0.1336 -0.1536
28089W        W46943   0.363   0.707   1.157 -0.1671  0.3223 -0.1026
28090W        W46944  13.276  16.740   2.940  0.1306 -0.0000 -0.1895
28091W        W46945  10.987  16.385  11.243  0.1722  0.0191 -0.1037
28092W        W46946   9.534   2.548   1.151 -0.0940  0.0454  0.0968
28093W        W46947   2.399   8.421  12.230 -0.1776 -0.2536  0.0537
28094W        W46948  15.562   7.574  15.736  0.3176  0.3360 -0.2709
28095W        W46949   3.702  14.974  15.945 -0.0527  0.0678 -0.0132
28096W        W46950  12.541  15.277   1.518  0.2747 -0.0825 -0.1801
28097W        W46951   1.537   3.259  11.593 -0.1134 -0.0740  0.0135
28098W        W46952   5.496   5.708   3.035 -0.3597 -0.1077  0.2976
28099W        W46953   5.989   0.543   2.386  0.0766 -0.2828  0.3297
28100W        W46954  16.727  14.244   4.620 -0.1774  0.0260  0.0803
28101W        W46955  14.477   4.937   2.464 -0.1114  0.1607 -0.1770
28102W        W46956   3.340   8.656   5.976  0.0265  0.2922  0.0023
28103W        W46957   2.197   3.624  15.468 -0.0857  0.1852  0.0235
28104W        W46958   5.992   9.751  16.112 -0.0509 -0.1422 -0.0037
28105W        W46959   3.333   4.376  10.804  0.1916 -0.2242 -0.0794
28106W        W46960  17.721  10.216  14.412 -0.1562 -0.0649 -0.0777
28107W        W46961  16.544   2.508   0.236 -0.2238  0.2065 -0.3081
28108W        W46962   2.680   2.581   1.209  0.3876  0.1364  0.0100
28109W        W46963   8.068  13.974  16.061  0.0377 -0.4118  0.0355
28110W        W46964   2.207  10.981   4.384  0.1998 -0.0432 -0.2023
28111W        W46965  16.533  14.147  13.245  0.3784  0.1267  0.0001
28112W        W46966  13.269   2.765  13.459  0.1889  0.1402  0.0670
28113W        W46967  13.159   8.778   3.328  0.3972  0.0524 -0.0911
28114W        W46968  14.519   7.383   3.192 -0.0366  0.0144  0.0259
28115W        W46969  13.083  11.112  15.897  0.0770  0.1219 -0.0379
28116W        W46970  16.144   4.205  12.562 -0.0128 -0.0051  0.0839
28117W        W46971   9.459   2.142   4.929  0.1663 -0.1849  0.2377
28118W        W46972   5.442   1.122   2.864 -0.0919 -0.1691  0.1159
28119W        W46973   1.725  15.531   4.747  0.2014 -0.0576  0.0613
28120W        W46974  10.905  10.401   0.824 -0.0564  0.0023  0.2373
28121W        W46975  16.112  13.647   4.243  0.1276 -0.1420  0.0957
28122W        W46976   1.347   3.388   0.355  0.0079 -0.0567 -0.4505
28123W        W46977   4.674   1.748   4.076  0.1029 -0.1334 -0.1357
28124W        W46978  14.666   4.303  11.614 -0.0849  0.0460 -0.0570
28125W        W46979   8.783  14.892  13.539  0.2739  0.0944  0.3748
28126W        W46980   7.500  17.806   5.138  0.4693 -0.1623 -0.1353
28127W        W46981  15.494   3.165   3.188  0.0250 -0.1270 -0.3229
28128W        W46982  13.058   6.808  12.451  0.2971 -0.0163  0.2506
28129W        W46983   9.234   6.137  15.468 -0.0515  0.3161  0.1132
28130W        W46984  10.956   4.245  14.468 -0.2029  0.0448  0.3785
28131W        W46985  10.563   2.376   2.934 -0.0758  0.0871  0.0628
28132W        W46986  15.725  17.419  15.697  0.1985 -0.0724  0.1325
28133W        W46987   5.713  17.893   4.449  0.3276  0.1566 -0.2729
28134W        W46988  12.523  17.955   1.896  0.1532  0.2532 -0.1732
28135W        W46989   7.367   5.015   4.386 -0.0378  0.4167 -0.0840
28136W        W46990  13.719   0.868  12.912  0.0596  0.0411 -0.0155
28137W        W46991   0.475  11.196  14.136  0.0682 -0.1780 -0.1778
28138W        W46992  12.573   5.368  15.931 -0.1070  0.0256  0.0148
28139W        W46993   9.896  14.667   3.567  0.0443  0.0296 -0.1344
28140W        W46994   0.956   2.510   2.178  0.1575  0.2129  0.0357
28141W        W46995   7.144   9.808  11.918 -0.0883 -0.0032  0.0930
28142W        W46996  14.003  15.608  13.530 -0.1369  0.2978  0.1682
28143W        W46997  11.705   0.169   1.336 -0.0034 -0.0989  0.0716
28144W        W46998  12.548  16.574   3.952 -0.0484 -0.1897  0.0709
28145W        W46999   3.317   4.097  15.231  0.0169  0.2906  0.2340
28146W        W47000   9.431  13.741   2.332 -0.1773  0.0413 -0.0146
28147W        W47001   2.066  14.944   2.459 -0.2009  0.1150 -0.0071
28148W        W47002  13.644   5.529   2.927  0.1514  0.0633 -0.0886
28149W        W47003   5.024  15.871   0.685 -0.1015  0.2914  0.3517
28150W        W47004   2.478  15.691  12.191  0.0082 -0.1158  0.2288
28151W        W47005  17.335  10.164  15.214 -0.2238  0.0926 -0.1091
28152W        W47006   9.486  15.303   2.897 -0.1408  0.3486  0.4056
28153W        W47007   4.004  16.997  13.976  0.0090 -0.0968  0.2314
28154W        W47008   8.026   9.693   1.113 -0.1899  0.0028  0.1025
28155W        W47009  14.449   4.288   3.578  0.1024  0.0819 -0.1114
28156W        W47010   7.627   8.529  12.964 -0.2701 -0.0564  0.0256
28157W        W47011   0.145   2.862  13.107 -0.1701  0.0893  0.6901
28158W        W47012   9.738   1.134   0.968 -0.1733 -0.3206 -0.1696
28159W        W47013  11.510   3.572  12.185  0.0283  0.0807  0.3109
28160W        W47014   8.976  17.381   0.423  0.2132 -0.0242 -0.1978
28161W        W47015   8.623  17.805   4.196  0.1879  0.3739 -0.1893
28162W        W47016   6.381   1.530  14.382 -0.1129  0.0459 -0.0100
28163W        W47017  16.018   7.558  15.946  0.0885 -0.3075  0.1444
28164W        W47018   7.949   9.884   2.789 -0.0193 -0.0657 -0.2399
28165W        W47019   3.668  14.641  13.930  0.0644  0.0525  0.0544
28166W        W47020  14.164   9.587  11.529  0.0391  0.2780  0.0863
28167W        W47021   6.594   0.558   1.872 -0.2965 -0.2438 -0.0200
28168W        W47022   7.595   9.845   0.317 -0.3809  0.1290  0.1269
28169W        W47023   0.548  10.155  12.732 -0.0151 -0.1903 -0.2742
28170W        W47024  13.563   2.734   3.953  0.1387 -0.1974 -0.1989
28171W        W47025  13.608   3.000   1.568  0.0856  0.1867  0.0350
28172W        W47026  11.884   0.703   5.489 -0.1037 -0.2439  0.2189
28173W        W47027  17.520  14.660   2.694  0.0541 -0.1591 -0.0324
28174W        W47028   8.824   0.426  15.115 -0.0579  0.2354 -0.0456
28175W        W47029   6.149   0.156   3.252 -0.0325  0.1854  0.1442
28176W        W47030  13.098   1.927   2.347  0.0102 -0.0942 -0.0208
28177W        W47031   2.202   5.641  12.500 -0.2061 -0.1293 -0.1309
28178W        W47032  15.372   7.240  15.411  0.1915  0.0412 -0.1582
28179W        W47033  15.270   3.598  14.666 -0.1542  0.2259  0.3168
28180W        W47034  10.655   8.568   1.134 -0.1726 -0.0042  0.1284
28181W        W47035  10.825   8.115   5.386  0.2183 -0.0354 -0.1269
28182W        W47036   7.343  17.939  12.613  0.1930  0.2662  0.1490
28183W        W47037  16.688   8.130   3.048 -0.0876 -0.2066  0.0386
28184W        W47038   2.833  11.955   3.763 -0.1918  0.1999  0.1764
28185W        W47039  16.444   6.393  12.552 -0.1205  0.0855  0.2683
28186W        W47040  14.267   6.461  12.315  0.0318  0.1873 -0.0904
28187W        W47041   4.395  12.417   0.869 -0.1640  0.0113 -0.0660
28188W        W47042   6.603   1.619   5.476  0.0995 -0.0566 -0.0477
28189W        W47043   5.973   8.120  15.431  0.2316 -0.0722 -0.0614
28190W        W47044   7.020  14.603  12.039 -0.2184 -0.1595  0.0571
28191W        W47045   0.442   1.642   1.427  0.1011  0.1390  0.1622
28192W        W47046  13.713  13.346  13.443  0.2506 -0.0453  0.0514
28193W        W47047   0.694   7.846  12.179 -0.0069 -0.0068  0.0929
28194W        W47048   8.760   1.729   5.599 -0.2132  0.0266  0.1216
28195W        W47049   6.162   5.406  13.476  0.0078 -0.2804  0.3398
28196W        W47050  12.123  16.921  11.236  0.0332 -0.1021 -0.1153
28197W        W47051  14.940   3.312  11.639  0.1651  0.0890  0.0266
28198W        W47052   0.775   0.570   0.841  0.1928 -0.1789 -0.1719
28199W        W47053  14.654  13.904  15.426 -0.3956  0.4135 -0.0253
28200W        W47054   3.704  14.208  15.775  0.0210 -0.0367  0.0931
28201W        W47055   0.306   4.905   0.606  0.2598 -0.2683 -0.0770
28202W        W47056   1.892  17.190  14.016  0.2883 -0.0844  0.1394
28203W        W47057   7.805   7.484   5.070  0.3629  0.0299 -0.0065
28204W        W47058  15.304  16.113  11.834 -0.0473  0.0678  0.1642
28205W        W47059  10.453  14.580   2.238  0.1436 -0.1065 -0.0013
28206W        W47060   0.521   6.361   4.026 -0.1453  0.1879 -0.3162
28207W        W47061   4.987  13.053   1.944 -0.2674 -0.0262  0.2589
28208W        W47062  15.973  12.850  11.527 -0.0028 -0.0871  0.3219
28209W        W47063   1.271  16.352   0.881 -0.0554 -0.1547 -0.1924
28210W        W47064  14.142  15.877   5.526  0.0857 -0.4517 -0.0209
28211W        W47065  17.372  13.315  11.779  0.0222  0.0336  0.2419
28212W        W47066   4.450   1.903  15.603 -0.1654 -0.0179 -0.0328
28213W        W47067   5.903   0.976   4.506  0.1193 -0.2538 -0.3080
28214W        W47068  13.589   9.771   4.118 -0.2491  0.2226 -0.2445
28215W        W47069   8.785   5.887  12.127 -0.2003 -0.0366 -0.1059
28216W        W47070   5.157  15.500   2.226  0.4195  0.1094 -0.0121
28217W        W47071   5.593  12.673   3.342 -0.2247  0.0390 -0.0316
28218W        W47072  17.466   8.542   3.748  0.0649  0.0216 -0.0967
28219W        W47073   8.380   3.641  16.184  0.0035  0.2310  0.0156
28220W        W47074   7.856  17.452   0.640  0.2951 -0.2210  0.1645
28221W        W47075   5.362   7.078  12.362 -0.0395 -0.1798  0.0078
28222W        W47076  14.428   6.477  11.798 -0.0504  0.1558  0.0614
28223W        W47077   3.287   6.572   3.045  0.3449  0.0742  0.1183
28224W        W47078  13.966  13.910   2.243  0.1517 -0.1628  0.0975
28225W        W47079  14.326   1.524  12.804  0.1892 -0.0626 -0.1570
28226W        W47080   0.396   0.401   3.007 -0.0235  0.2043 -0.3549
28227W        W47081   2.589  17.689   0.025  0.1143  0.0986  0.1119
28228W        W47082   5.490  12.468  12.345  0.3471  0.1044  0.1269
28229W        W47083  13.262   6.003   1.662  0.0176 -0.1334  0.3333
28230W        W47084  16.747   0.083   3.321 -0.4361  0.5753  0.0938
28231W        W47085   4.051  12.258   3.886  0.2739  0.2025  0.2352
28232W        W47086  16.176  14.212   1.155  0.0669  0.2426 -0.1641
28233W        W47087  17.965   0.270   0.879  0.0069  0.1288 -0.2212
28234W        W47088   9.223  13.271  15.131  0.1638 -0.2296  0.0979
28235W        W47089   7.240  16.538  14.213  0.0162 -0.0497 -0.0030
28236W        W47090  13.339   7.673  15.895 -0.0092 -0.1434  0.2243
28237W        W47091  16.658   2.557  13.901 -0.0298  0.0548  0.0307
28238W        W47092  10.953   5.178   4.496 -0.1254  0.2151 -0.0052
28239W        W47093   4.328  16.887   0.381  0.2231 -0.1725  0.1165
28240W        W47094  12.910  17.119   2.970 -0.0455  0.2761 -0.3556
28241W        W47095  13.091  13.947  12.099  0.0257  0.1981  0.1537
28242W        W47096   9.758  11.457  13.464  0.1283 -0.0871 -0.0555
28243W        W47097   7.178   4.335  11.826 -0.1044  0.0686 -0.2855
28244W        W47098   7.068   5.150   1.617  0.2068  0.0279  0.2148
28245W        W47099  12.247   5.130  13.626 -0.0272  0.4749  0.1050
28246W        W47100  15.793   4.158   4.495  0.1411  0.2274 -0.0463
28247W        W47101   1.755   4.498  13.463  0.3257 -0.2089 -0.0034
28248W        W47102   2.189  11.361   0.785 -0.2400 -0.0583  0.0031
28249W        W47103   5.936  14.839  14.516  0.0177  0.0602 -0.3899
28250W        W47104  14.625   7.046   4.656  0.1572 -0.1413  0.1512
28251W        W47105   7.941  10.545  13.792 -0.0278 -0.2548 -0.0855
28252W        W47106  15.975   1.100   2.740 -0.1930 -0.0529  0.2208
28253W        W47107  14.042   2.331   0.871 -0.2400  0.0219 -0.3567
28254W        W47108   0.822  14.058  15.744 -0.1303 -0.0874  0.1852
28255W        W47109  16.591   2.914   0.664  0.2726 -0.1233 -0.2586
28256W        W47110  11.383   1.366   3.178 -0.1104  0.2915 -0.3846
28257W        W47111   1.554  13.582  12.595  0.0811  0.0604 -0.1128
28258W        W47112   8.544  12.046   1.261 -0.0315 -0.2952  0.0558
28259W        W47113   8.841  10.453   0.335 -0.0250 -0.2167 -0.1272
28260W        W47114  15.545  12.588   4.205 -0.1062 -0.1999  0.0275
28261W        W47115  13.585  14.336   1.049 -0.0454  0.3985  0.2066
28262W        W47116  10.717   4.401  12.782  0.0621 -0.0879  0.1400
28263W        W47117  12.366   3.161   4.332  0.0419 -0.1383  0.0485
28264W        W47118  16.819   9.905   1.796 -0.0594 -0.3742 -0.3491
28265W        W47119   1.781  17.235  12.677 -0.0923 -0.4279  0.0550
28266W        W47120   6.335   9.368  13.610  0.1666 -0.2658 -0.0583
28267W        W47121  16.897  15.633  12.950  0.3447  0.0417 -0.1141
28268W        W47122   6.862   8.623   2.026  0.4333  0.2409 -0.0562
28269W        W47123   9.417   1.297  13.162  0.4295  0.0101 -0.0708
28270W        W47124  11.611  12.449   3.794 -0.0495 -0.3373 -0.3233
28271W        W47125  14.395   3.311   3.167  0.1165 -0.1393 -0.0616
28272W        W47126  12.445   2.896   2.869 -0.0849 -0.1925 -0.0648
28273W        W47127   3.426  17.549  14.108  0.0972  0.0821  0.5227
28274W        W47128   8.188  13.267  10.941 -0.1385  0.1432  0.1230
28275W        W47129   9.195  11.111  15.192 -0.0551  0.2075  0.0257
28276W        W47130   2.777   8.142  15.515 -0.1933 -0.2157  0.2974
28277W        W47131   6.673  15.837  12.557  0.0015  0.1060  0.1170
28278W        W47132  10.807  15.949  11.425  0.0100  0.0810  0.1605
28279W        W47133  13.671  12.858   2.901  0.3062 -0.0350  0.0156
28280W        W47134   8.758   5.796   2.315 -0.0949  0.0386  0.2954
28281W        W47135   8.158   4.442   2.347  0.2271 -0.4780  0.3052
28282W        W47136   9.722   4.954  15.376  0.2092  0.0947 -0.4323
28283W        W47137  10.640   9.039  11.800  0.2768  0.0775  0.1238
28284W        W47138   1.922  13.638   0.151  0.0210  0.1848 -0.3854
28285W        W47139   8.687   7.176  16.124  0.1224 -0.1855 -0.0139
28286W        W47140  17.341  14.085   3.485 -0.0807  0.4757  0.0763
28287W        W47141  14.105   2.963   2.768  0.2453  0.0732 -0.2309
28288W        W47142   5.006  14.593  16.062 -0.0756  0.0302 -0.0012
28289W        W47143   5.075   4.647   0.219 -0.2138  0.0934  0.0696
28290W        W47144  13.624   1.051  14.898 -0.3568 -0.0169 -0.3142
28291W        W47145   1.158   7.846  11.079  0.1616  0.0015 -0.2499
28292W        W47146   7.442  10.684  13.887 -0.2118 -0.1975  0.1075
28293W        W47147  13.532   9.465  11.886 -0.0746  0.0552  0.0469
28294W        W47148   0.895  17.499   1.509 -0.3502  0.0285 -0.0072
28295W        W47149   0.163   6.711  11.995 -0.1447  0.0997  0.2400
28296W        W47150  15.727   6.531  11.409  0.0603 -0.2541 -0.1032
28297W        W47151  16.801  12.523  14.288 -0.0473 -0.0789 -0.1766
28298W        W47152   1.949   5.650   2.815 -0.1940  0.2858 -0.0535
28299W        W47153   4.078  17.381   3.755  0.0607 -0.0170  0.2226
28300W        W47154   2.856   3.766  16.065 -0.1011  0.0889  0.2093
28301W        W47155   7.383   5.605  16.107  0.0290 -0.0616  0.3201
28302W        W47156   6.200   0.090   2.376  0.0392 -0.0352  0.0958
28303W        W47157  17.273   7.635   3.793 -0.1057 -0.1782 -0.0423
28304W        W47158   9.866  14.630  14.911 -0.1561  0.2771 -0.0707
28305W        W47159   1.243   6.312   3.496  0.0573 -0.1087 -0.1068
28306W        W47160   7.542  15.386  12.361  0.1860  0.0027  0.0360
28307W        W47161  15.885   3.199   2.847 -0.0562 -0.1619 -0.0833
28308W        W47162   4.908   7.564   0.116 -0.0603  0.3446  0.1078
28309W        W47163   8.642  12.624  11.729 -0.2351  0.0624 -0.3941
28310W        W47164   7.142  11.856  12.880  0.2920  0.1935 -0.1880
28311W        W47165  15.087  12.398   2.798 -0.1771 -0.0823 -0.2511
28312W        W47166  15.919  10.597  11.522  0.0681 -0.0158 -0.2448
28313W        W47167   3.074  15.610   1.098  0.0310  0.0996 -0.1868
28314W        W47168   5.156   2.814   4.180 -0.1277  0.0441  0.1978
28315W        W47169  17.742   6.886   2.634  0.1208 -0.2735  0.2583
28316W        W47170  11.001   2.428  13.580  0.0239 -0.0268  0.0519
28317W        W47171   2.653   3.927  12.824  0.2600 -0.3290 -0.2437
28318W        W47172   6.851  16.506  11.881  0.2193  0.0346 -0.1551
28319W        W47173  15.420  13.559  14.928 -0.1043 -0.3689 -0.0043
28320W        W47174  16.826  10.918  14.278  0.0352  0.1931  0.0148
28321W        W47175   1.862   1.691  12.482  0.1917 -0.0493 -0.0526
28322W        W47176   5.658  12.511   1.942 -0.0428  0.1497  0.1428
28323W        W47177   3.761  10.559   1.753 -0.3261  0.4283  0.2612
28324W        W47178  16.874   7.901  14.034  0.1127 -0.1476  0.2880
28325W        W47179   6.634  10.733  11.232 -0.1657 -0.0092  0.2163
28326W        W47180   1.601  10.544  15.712 -0.1777 -0.1157 -0.2474
28327W        W47181  10.116   8.489   4.499 -0.0109  0.0713  0.1718
28328W        W47182   6.384  13.385  12.763  0.2231 -0.0465  0.0204
28329W        W47183   8.721   6.617  14.963 -0.0070  0.0142  0.1222
28330W        W47184   6.564   3.354   2.461  0.2733  0.2038 -0.0252
28331W        W47185  15.709   4.959   3.049  0.2080 -0.1551  0.2837
28332W        W47186  13.935   3.629   0.961 -0.0119 -0.0712 -0.3036
28333W        W47187  17.023   5.160  13.825 -0.0750  0.3078 -0.1025
28334W        W47188  17.895  13.723  13.785  0.1521  0.0701  0.0591
28335W        W47189  14.619  10.005  15.133  0.2066 -0.1961 -0.1355
28336W        W47190  13.358  12.035  15.544  0.0076 -0.3894 -0.3021
28337W        W47191  15.791   8.392  15.388 -0.0603 -0.0659 -0.1641
28338W        W47192   6.639   9.872   0.452 -0.1139  0.2467 -0.0982
28339W        W47193   9.652  13.021   2.683  0.0272  0.2358 -0.1296
28340W        W47194  17.252  16.079  15.898  0.0146 -0.1214 -0.0624
28341W        W47195   8.239  17.178  15.905  0.0148  0.0978 -0.1608
28342W        W47196  17.121   1.946   3.382 -0.0551  0.0825 -0.2622
28343W        W47197  15.988   6.951  10.907 -0.2088 -0.1495  0.0987
28344W        W47198   3.842   2.558   3.327 -0.0581  0.4128  0.1036
28345W        W47199   1.254   3.472  15.063  0.3335 -0.2046 -0.2985
28346W        W47200  11.766  16.714   2.495  0.1556 -0.0055  0.2647
28347W        W47201  12.634  12.522  13.017  0.0408 -0.2060  0.3361
28348W        W47202   9.555  17.634  14.122 -0.0790  0.1517  0.0600
28349W        W47203  12.758  15.696  12.324 -0.0445  0.1826 -0.2082
28350W        W47204   2.872  11.676  14.458  0.2627  0.0445  0.1062
28351W        W47205  12.234   4.470   4.104  0.0446 -0.0850 -0.0054
28352W        W47206   8.930   7.075  13.626  0.0122 -0.0699 -0.3366
28353W        W47207  17.085   5.485  11.878 -0.3036 -0.2901  0.1808
28354W        W47208   7.492   1.495   2.962  0.3573 -0.1954 -0.0288
28355W        W47209   0.953  16.689   2.431  0.0817 -0.0880  0.0881
28356W        W47210   6.993   8.100   5.654 -0.0604 -0.1587 -0.3775
28357W        W47211  15.731  15.456   1.653  0.1740  0.1428 -0.1911
28358W        W47212  11.638   7.587   3.035  0.2117  0.0014  0.1187
28359W        W47213  12.767   2.891  12.254 -0.2115 -0.0213 -0.3302
28360W        W47214   2.384   7.107  14.259 -0.0074 -0.1009  0.0318
28361W        W47215   9.547  11.029   0.581 -0.2249 -0.1831  0.3673
28362W        W47216   7.739   1.222   5.842  0.0744  0.1463  0.0758
28363W        W47217   1.586   5.544  13.603  0.0980 -0.1396 -0.3195
28364W        W47218  16.940   7.730   1.408 -0.0197 -0.0804 -0.1340
28365W        W47219   6.927  14.419   2.936 -0.2310 -0.0928 -0.1270
28366W        W47220  17.295  15.421   5.123  0.0735  0.0133 -0.0374
28367W        W47221  11.665  10.295   5.107 -0.0117 -0.2443  0.2295
28368W        W47222  16.998   8.227  15.845  0.1157 -0.0153 -0.0171
28369W        W47223  11.886   6.430  11.891 -0.3017 -0.0231 -0.0086
28370W        W47224   7.108   9.853   0.569  0.3910  0.0089 -0.0954
28371W        W47225  16.724  17.553   0.015 -0.0249 -0.0370  0.1365
28372W        W47226   7.076   1.437   5.266 -0.3013 -0.1865  0.1368
28373W        W47227   3.064  16.385   1.505 -0.0077  0.1938 -0.0801
28374W        W47228  16.576   8.701  14.002 -0.0271  0.0172  0.1334
28375W        W47229   7.587   4.096  11.992 -0.0626 -0.1438  0.3250
28376W        W47230   9.757   1.649  11.939 -0.1400  0.0101  0.1588
28377W        W47231  14.403   6.017  12.633 -0.0347 -0.0957 -0.2087
28378W        W47232  11.004   8.994   3.693 -0.1682  0.0016 -0.0619
28379W        W47233   2.090  12.877  13.602  0.3002  0.0636 -0.1107
28380W        W47234  14.747   8.181  13.626 -0.1620 -0.0476 -0.0915
28381W        W47235  17.353   2.037  15.861 -0.0538 -0.0505 -0.0303
28382W        W47236   8.765   8.607   2.856 -0.1806  0.1757 -0.0583
28383W        W47237  14.912   7.354  12.657 -0.0304 -0.1188 -0.0310
28384W        W47238   7.996   8.154  12.521  0.2311  0.1194 -0.2312
28385W        W47239  17.362   5.459  13.537 -0.1464 -0.0235  0.0104
28386W        W47240   7.593  11.115   3.069  0.0975 -0.0271 -0.0261
28387W        W47241   0.068  11.710  14.489 -0.0816 -0.0645  0.0148
28388W        W47242  13.461  15.588  12.401 -0.0454  0.2418  0.1931
28389W        W47243  12.157   5.206   2.434  0.0227 -0.0980  0.1050
28390W        W47244   8.425  17.696   5.330 -0.0339 -0.3679  0.1012
28391W        W47245   0.194   0.048   3.284 -0.1307  0.2934 -0.0773
28392W        W47246  14.582  10.184  12.058 -0.0861 -0.2408  0.0435
28393W        W47247   8.563  12.195  13.773 -0.1621 -0.0115 -0.2307
28394W        W47248   3.078  13.442   3.405 -0.1115  0.1869 -0.1692
28395W        W47249   0.866   6.535  14.567 -0.0518  0.0003  0.3220
28396W        W47250  16.942  17.539   4.946 -0.0103 -0.1891  0.0742
28397W        W47251   0.224  18.024  15.862 -0.0118 -0.4797  0.0548
28398W        W47252   0.177   2.805   0.415  0.3798 -0.1905  0.0323
28399W        W47253   6.712   7.580  13.468  0.2821 -0.0617  0.0387
28400W        W47254   6.760  11.679  13.195  0.1882  0.1208 -0.2679
28401W        W47255  16.050  15.006   2.449 -0.0009 -0.0456  0.2955
28402W        W47256   8.582   9.206  12.021  0.1424  0.0908 -0.1494
28403W        W47257  14.685  17.860  14.803  0.1844  0.1274 -0.1775
28404W        W47258  14.686  10.588  11.631 -0.0661 -0.0521  0.1011
28405W        W47259  15.396   8.938   5.584 -0.0072 -0.0399 -0.1650
28406W        W47260   5.484  16.485  12.703  0.4356  0.0143  0.0070
28407W        W47261  14.841   6.192   4.415  0.0591 -0.2092 -0.1250
28408W        W47262   7.006  12.832   1.526  0.0355  0.1640 -0.2259
28409W        W47263   3.478   4.928   1.716 -0.0891 -0.1193 -0.1582
28410W        W47264   8.552  10.435  16.138 -0.0890  0.2945  0.0025
28411W        W47265   9.939   0.152   6.199 -0.1572  0.2505 -0.1245
28412W        W47266  17.611  17.458   1.854 -0.1076  0.1342  0.1718
28413W        W47267   4.224   6.386   3.451  0.0104  0.2650 -0.2570
28414W        W47268  12.788  10.216  12.447 -0.0679  0.1359 -0.0925
28415W        W47269   9.679  13.556   0.588  0.5280 -0.2301  0.0238
28416W        W47270  17.438   0.897   4.637 -0.2171 -0.1389  0.0488
28417W        W47271   6.950  11.962  14.785  0.2164 -0.1975  0.1827
28418W        W47272  14.046   9.617  10.999 -0.1546 -0.1614  0.2465
28419W        W47273   3.674   9.633  13.105  0.2280  0.1112  0.0443
28420W        W47274  12.006   1.580  15.888 -0.0270 -0.4107  0.1098
28421W        W47275  14.083  11.491  13.273  0.0315  0.0834  0.3083
28422W        W47276  14.152  16.365   3.453  0.1510  0.0488 -0.0426
28423W        W47277   0.510   7.389  11.431  0.1831 -0.0781  0.0843
28424W        W47278  10.505  17.921  15.797  0.0855 -0.1052  0.1797
28425W        W47279   1.869  14.571   2.772 -0.0567  0.2035 -0.1902
28426W        W47280  15.080   1.362  13.206 -0.0379  0.0160  0.1263
28427W        W47281  16.796   0.732   2.787 -0.0893 -0.1838  0.0373
28428W        W47282  17.923   9.175  11.419  0.0036  0.1498 -0.4014
28429W        W47283  14.063  17.589   3.175  0.0103 -0.0276  0.2067
28430W        W47284   0.269  10.941  15.272 -0.0987  0.1170 -0.2615
28431W        W47285  11.244   4.741   2.264  0.0473 -0.1800 -0.0443
28432W        W47286  14.227  12.691  15.749  0.2460 -0.2742 -0.1154
28433W        W47287   9.403  11.109   4.557 -0.0677 -0.0076 -0.0866
28434W        W47288  16.018   9.073  12.872  0.2583  0.0632 -0.4813
28435W        W47289  13.008   9.475   0.729 -0.2034 -0.1697 -0.1707
28436W        W47290   2.786   7.735   5.760  0.1324  0.1961 -0.0760
28437W        W47291  11.324  17.492  14.170 -0.4164  0.1242  0.2570
28438W        W47292   4.634  15.574   2.296  0.0382  0.1232 -0.0612
28439W        W47293   9.981  17.746  13.678 -0.0884  0.0527  0.0628
28440W        W47294   7.304  13.452   4.318  0.0935 -0.1078 -0.0391
28441W        W47295   9.086   1.700  11.339  0.0714  0.3057  0.1014
28442W        W47296  16.819  15.990  15.526 -0.0594 -0.5620  0.0230
28443W        W47297  17.489  13.366  15.427  0.1570  0.1033 -0.2876
28444W        W47298   4.371   4.763  13.372 -0.2370 -0.2474 -0.2185
28445W        W47299   8.939   8.964  11.331 -0.1765 -0.2912  0.2235
28446W        W47300  14.690  12.383  14.359  0.4744 -0.0521 -0.0700
28447W        W47301  11.750   8.496  15.511 -0.0118 -0.0572  0.1046
28448W        W47302   7.460  10.105  13.236 -0.1352  0.0306 -0.0807
28449W        W47303   0.238  14.615  13.275 -0.1597  0.1220  0.2372
28450W        W47304  14.486   5.436  15.553  0.3739  0.0360  0.0680
28451W        W47305   5.001   1.192  12.616  0.3069 -0.0830  0.2978
28452W        W47306  16.964   0.884   4.841 -0.1655  0.2347  0.0680
28453W        W47307  14.390  10.681  12.924 -0.2089  0.0818 -0.0731
28454W        W47308   3.890  16.132  16.034 -0.0425  0.0360  0.0318
28455W        W47309  10.321  16.461   4.887 -0.1337 -0.1154  0.2782
28456W        W47310   8.905   2.877   3.876  0.2049  0.1742  0.1798
28457W        W47311  17.601  14.979   0.586 -0.0660 -0.1954 -0.0985
28458W        W47312   0.839  14.687   1.959  0.2826  0.1358 -0.0876
28459W        W47313  15.899   8.958  13.434  0.1413  0.0521 -0.0524
28460W        W47314   7.213   2.345  13.462  0.3491  0.1671  0.0964
28461W        W47315   8.163  16.400   3.108  0.1386 -0.1223 -0.1211
28462W        W47316   6.237   6.809  13.868  0.1054  0.0339 -0.2723
28463W        W47317   5.954   3.381  14.553  0.1425 -0.0036  0.0113
28464W        W47318   4.880   8.867   1.806  0.0885  0.0868  0.0059
28465W        W47319   0.762  15.074  15.265 -0.0259 -0.3744 -0.0408
28466W        W47320  12.863   6.949  14.802  0.1320  0.3043  0.2510
28467W        W47321   9.787  16.641  14.240 -0.1695 -0.1745 -0.0237
28468W        W47322   6.502  14.181   1.744  0.0276  0.0139  0.2652
28469W        W47323  12.723  15.158   3.889 -0.0903  0.1490  0.1759
28470W        W47324  16.774   2.821   3.801  0.0352  0.0591  0.1457
28471W        W47325   1.990   1.392  13.227 -0.0874 -0.1137  0.1301
28472W        W47326   7.523  12.959  13.493  0.1289 -0.1239  0.0774
28473W        W47327   9.562   0.066   3.323  0.0904 -0.0826  0.0332
28474W        W47328   9.776   9.991   1.072  0.3796  0.1586  0.1663
28475W        W47329   8.673  12.787  12.624 -0.0220  0.2525 -0.0571
28476W        W47330  16.596   1.743  15.009  0.0442  0.0127  0.1831
28477W        W47331  17.625   7.843   4.136 -0.1878 -0.3375  0.1871
28478W        W47332  14.163  15.557   2.823 -0.0927 -0.0992  0.2806
28479W        W47333  12.570  16.020   2.735  0.1071  0.2445  0.0651
28480W        W47334   6.087  16.779  11.721  0.0641 -0.3414 -0.0637
28481W        W47335  15.418   8.017  13.259  0.0157  0.2154 -0.2587
28482W        W47336   5.242   9.414  12.629 -0.1774 -0.0776  0.1762
28483W        W47337   5.367   9.769   3.354 -0.0666  0.0717  0.0582
28484W        W47338   9.091   0.275  12.577  0.0644 -0.1397  0.3561
28485W        W47339   9.517  17.448   2.624  0.0608 -0.1163 -0.0034
28486W        W47340   5.394   4.601  15.364  0.2274 -0.0828  0.0692
28487W        W47341  15.193   1.858   2.325 -0.0656 -0.2106 -0.1747
28488W        W47342  12.309   8.514  15.616 -0.1313 -0.0710  0.0635
28489W        W47343   5.174  11.875  13.133  0.0582  0.0890  0.0767
28490W        W47344  10.221   3.500  14.238  0.0927  0.0157  0.1078
28491W        W47345   2.271   4.768  12.575 -0.0240 -0.0308 -0.1294
28492W        W47346  14.280   4.096   4.960 -0.1067 -0.1083  0.0456
28493W        W47347   8.840   9.785   1.117 -0.1282 -0.2018  0.0932
28494W        W47348   6.369  10.801  13.546  0.0071 -0.0913 -0.0144
28495W        W47349   0.845  17.699  13.483  0.0836 -0.0578 -0.0298
28496W        W47350   0.955   2.613   3.387 -0.0349 -0.4210 -0.0097
28497W        W47351  14.331  17.737   0.195  0.0003 -0.0546 -0.0771
28498W        W47352  12.633   2.873   1.865  0.0545  0.5120 -0.0682
28499W        W47353  15.053   3.318  15.634  0.1034 -0.0693 -0.1712
28500W        W47354  13.728  16.387   2.835 -0.0330 -0.2174  0.0492
28501W        W47355   2.503   1.815  14.712  0.1852  0.1439 -0.0819
28502W        W47356   6.260  16.185   1.710  0.5842  0.0650 -0.0221
28503W        W47357   2.951   9.638   3.883  0.2598  0.0940  0.3251
28504W        W47358   0.877   5.576  12.405  0.2222  0.1553  0.1297
28505W        W47359  13.297   9.806  12.236  0.0059 -0.0170  0.4755
28506W        W47360   4.105  12.723   0.605  0.2234  0.0351  0.1916
28507W        W47361   1.941   8.749  12.389 -0.2322 -0.0500  0.1339
28508W        W47362   7.954   9.888  14.310  0.1803 -0.1677  0.3809
28509W        W47363  14.853   1.785   1.579  0.1015  0.2424 -0.0818
28510W        W47364  16.321   9.265  12.536 -0.2150 -0.1330 -0.0274
28511W        W47365   6.303   9.174   2.573 -0.1796 -0.1768 -0.3935
28512W        W47366  12.190   2.541  16.050 -0.0268  0.1987 -0.0925
28513W        W47367   2.742  11.011   3.959 -0.1484 -0.2289  0.2452
28514W        W47368   5.595   5.570   0.894  0.0462  0.3652  0.0553
28515W        W47369  10.210  10.289   2.201  0.0434  0.0276  0.0259
28516W        W47370   6.548   9.868  13.640 -0.1799  0.0903 -0.0588
28517W        W47371  14.934   2.349  10.820 -0.6369 -0.1238  0.1124
28518W        W47372   7.289  13.013   4.507 -0.1334 -0.1665 -0.1368
28519W        W47373  17.395   6.476   1.283  0.6551  0.4074 -0.0787
28520W        W47374   8.439   9.145   3.733 -0.1003  0.1961 -0.2895
28521W        W47375   7.601  11.224  13.264  0.3843  0.1138 -0.2478
28522W        W47376   9.956   6.842  13.667 -0.0805 -0.2608  0.1192
28523W        W47377   0.374   7.135   0.422  0.0597  0.2591 -0.2444
28524W        W47378  15.381   2.121  11.920 -0.0619  0.0213  0.1317
28525W        W47379  11.864   0.777  11.560 -0.0518 -0.0978 -0.0395
28526W        W47380  11.637  15.975  14.062  0.0208  0.1277  0.0103
28527W        W47381   0.204  17.518  14.144 -0.3039 -0.1540 -0.0720
28528W        W47382  10.002   4.204   4.754  0.0581  0.0257 -0.2333
28529W        W47383   5.763   2.932  13.599 -0.1082 -0.2076  0.0610
28530W        W47384   3.423  13.320  15.916  0.2283  0.2071 -0.0938
28531W        W47385  14.966   9.589   3.072 -0.2175 -0.3857 -0.1320
28532W        W47386  15.779  12.182  13.566 -0.1210 -0.1626  0.1087
28533W        W47387   9.364  15.856   5.150 -0.0822  0.3892  0.1287
28534W        W47388  15.829   5.038   2.258  0.0727 -0.0263  0.0790
28535W        W47389   6.734  14.927  12.337 -0.1190 -0.2199 -0.1811
28536W        W47390  13.944   0.963  15.912  0.3275 -0.4867  0.2207
28537W        W47391   1.217  12.702  14.095 -0.1651  0.0859  0.0548
28538W        W47392   4.838  15.175   3.563 -0.2376 -0.0032  0.1779
28539W        W47393   3.279  14.895   4.414 -0.0794 -0.0719 -0.1099
28540W        W47394   6.143   5.654  11.823 -0.1163  0.1815  0.0101
28541W        W47395  15.409  10.087   4.302  0.0150  0.1034  0.1369
28542W        W47396   5.109   2.807   5.018 -0.0459 -0.0763 -0.0519
28543W        W47397  10.283  15.959   2.039 -0.4398 -0.0231 -0.2274
28544W        W47398   4.958  11.330  12.378 -0.0892 -0.0563  0.1740
28545W        W47399   9.926   5.494   0.962 -0.2534 -0.2091  0.0283
28546W        W47400  11.397   1.213  14.601 -0.1260  0.0298  0.0155
28547W        W47401  10.707   0.977  11.315  0.1700 -0.0792  0.0934
28548W        W47402  17.271   5.190  15.001  0.0612 -0.1177  0.1891
28549W        W47403   4.371   8.968   0.107  0.1126  0.0446  0.1865
28550W        W47404   5.726   0.995   3.247  0.0977  0.0332  0.2697
28551W        W47405  11.240   1.894   0.245 -0.0792 -0.5374 -0.1235
28552W        W47406   8.924  14.215   3.561 -0.0219  0.0378  0.2808
28553W        W47407   9.145   8.927   2.005 -0.0566 -0.3102 -0.4625
28554W        W47408  14.186  18.006  12.805 -0.1764 -0.0473  0.3128
28555W        W47409   5.286  16.512  12.141 -0.0268 -0.1575  0.0234
28556W        W47410  10.206  10.371  14.612 -0.2284  0.1447  0.2413
28557W        W47411  12.462   3.270  14.470 -0.2942 -0.0902 -0.0355
28558W        W47412   9.826  12.351   5.208  0.2600 -0.2852  0.0683
28559W        W47413   5.200   2.639  11.959  0.1116 -0.0969 -0.0748
28560W        W47414   5.999   8.072  12.105 -0.1816 -0.0370 -0.4247
28561W        W47415  12.021   0.968   1.533  0.0869 -0.3952  0.0721
28562W        W47416  15.190   2.684   1.848  0.0205 -0.0160  0.1985
28563W        W47417  12.907  14.437  12.287  0.1706 -0.1815  0.2936
28564W        W47418   2.060   7.568   3.108  0.2816  0.1609 -0.0267
28565W        W47419   1.496   1.921   4.687 -0.2387  0.0819  0.0847
28566W        W47420  17.906   8.510   1.265  0.1159 -0.2240  0.4044
28567W        W47421   6.626  10.279   0.761  0.0930  0.0249 -0.1200
28568W        W47422  10.996  12.799   4.393  0.0684 -0.3271  0.1006
28569W        W47423   6.952   3.711  15.786 -0.0163 -0.2876  0.2483
28570W        W47424   8.783  11.435   2.134 -0.0984  0.0507  0.1075
28571W        W47425  12.927   1.407  13.607 -0.0628 -0.0298  0.0928
28572W        W47426  16.373   1.926   1.390  0.1879 -0.1815 -0.1804
28573W        W47427   5.143  10.310  14.950 -0.2145  0.1456  0.3490
28574W        W47428   7.590   4.636  14.329  0.4727 -0.1813  0.0313
28575W        W47429   4.154  15.638   4.174  0.5513 -0.0346 -0.0810
28576W        W47430  17.701  13.274  16.215  0.0905  0.1538 -0.1914
28577W        W47431  15.532  13.999   2.263  0.1646 -0.0069 -0.1418
28578W        W47432   3.147  13.441   2.008 -0.2265  0.3400 -0.1699
28579W        W47433   7.014  11.277  12.835  0.2556  0.1866  0.0006
28580W        W47434   2.476   1.519  13.864  0.2381  0.1066 -0.0633
28581W        W47435  13.920   9.309   3.928  0.2347 -0.0009  0.3984
28582W        W47436  10.603   1.000   2.611  0.0052  0.0768  0.1643
28583W        W47437   9.745   1.647   0.437  0.0526 -0.2480 -0.2355
28584W        W47438   2.771   2.630   4.392 -0.1810 -0.0346  0.0730
28585W        W47439   2.014   4.096  13.569  0.2008 -0.0454  0.0012
28586W        W47440  11.874   5.493  12.971  0.0238  0.1069  0.1270
28587W        W47441  14.796  11.094   0.158  0.2121 -0.1589  0.0772
28588W        W47442   0.397  13.710  13.597  0.2311 -0.1548 -0.1821
28589W        W47443  10.606   1.390   2.299 -0.2809 -0.3137  0.0759
28590W        W47444   7.667  12.489   2.940 -0.0098 -0.1671 -0.1529
28591W        W47445   9.932  15.283   3.289  0.0316 -0.0052  0.0061
28592W        W47446   3.707  10.694  11.572 -0.0707 -0.1737 -0.2396
28593W        W47447   5.532   7.427  15.678  0.3082 -0.0383  0.1805
28594W        W47448  10.217  13.435  15.314 -0.0900 -0.1280 -0.0004
28595W        W47449  14.214  13.710   2.631 -0.2313 -0.0056 -0.0804
28596W        W47450   3.824  11.681   3.505  0.2415 -0.0039  0.2012
28597W        W47451   5.848   0.578  15.979  0.0709  0.3481  0.2649
28598W        W47452   3.660   8.534   4.145  0.1506 -0.0490  0.2902
28599W        W47453   2.589  17.992   2.066 -0.1989  0.0011 -0.0828
28600W        W47454  15.551  17.183   4.272  0.0984 -0.3756 -0.2646
28601W        W47455  13.933  15.786  15.527  0.3010  0.1724 -0.1547
28602W        W47456  17.909  14.544   0.463  0.0043 -0.0866  0.0798
28603W        W47457   1.618  12.160  14.826  0.0028  0.0280 -0.0444
28604W        W47458  14.638   6.768  14.437 -0.0488 -0.0115 -0.4986
28605W        W47459   0.285  10.926  15.792  0.0949 -0.1232  0.1526
28606W        W47460  13.824  11.786   2.689  0.3238  0.1152 -0.1829
28607W        W47461  12.516  15.909  13.163  0.1387 -0.0235  0.0540
28608W        W47462  11.819  12.154  11.907  0.1065  0.0100  0.1614
28609W        W47463  15.426   1.237   0.030  0.1334  0.0061 -0.0476
28610W        W47464   2.587   0.493  14.232  0.0846  0.0818  0.1518
28611W        W47465   2.938   7.308  15.350  0.2606  0.2643  0.1076
28612W        W47466   4.163  10.511   4.135 -0.2328  0.1494 -0.2088
28613W        W47467  11.098  16.495   3.061 -0.2200 -0.0390  0.0968
28614W        W47468   2.572   6.838   4.734 -0.1515 -0.3015  0.0228
28615W        W47469   6.505   5.257   0.888 -0.1695 -0.3453 -0.0079
28616W        W47470   1.941   1.874  15.416 -0.1086 -0.0000  0.3510
28617W        W47471  11.584   4.452  14.085  0.1424 -0.0009 -0.3388
28618W        W47472   3.848  11.679  15.989 -0.0353  0.0034 -0.0772
28619W        W47473  13.279  16.194   4.168 -0.1012 -0.0166  0.0073
28620W        W47474   1.786   7.984   5.489  0.1429 -0.1294  0.2152
28621W        W47475   2.080  17.706  15.585  0.1130  0.0544  0.3058
28622W        W47476  14.186  15.518   4.629 -0.1551 -0.0334 -0.3737
28623W        W47477   7.577  14.072   1.056 -0.3054  0.1928 -0.0080
28624W        W47478   6.839   2.337  11.792  0.0082  0.0219  0.0758
28625W        W47479  15.365   7.206   2.654  0.0085 -0.1270 -0.4053
28626W        W47480  11.197   4.641  15.079 -0.0399  0.0349 -0.3020
28627W        W47481  17.752   6.002  15.906 -0.0178 -0.1193 -0.1923
28628W        W47482   2.411  10.082  11.438  0.5648 -0.1600 -0.0093
28629W        W47483  17.323  17.122  13.285 -0.0515 -0.1925 -0.0631
28630W        W47484  13.094  11.479   0.535  0.0098 -0.0781  0.2897
28631W        W47485   3.176   0.466   0.669 -0.2572  0.1426  0.2233
28632W        W47486   4.740   1.565  12.986 -0.0533  0.0642  0.0102
28633W        W47487   3.450  14.472   1.782  0.0892  0.2938  0.0971
28634W        W47488   9.448   5.318  14.631  0.0376  0.2499 -0.0123
28635W        W47489  10.189   6.599   1.904 -0.3184 -0.0341 -0.1519
28636W        W47490   1.002  12.678  13.383 -0.0460  0.2174  0.3671
28637W        W47491  13.216   1.890  11.489 -0.1896 -0.2351  0.2104
28638W        W47492   7.135   3.382   3.095  0.0087 -0.0034  0.0376
28639W        W47493   9.001  14.037   4.746 -0.3086 -0.0711 -0.2242
28640W        W47494  15.795   0.835  15.262 -0.2989  0.0433 -0.1375
28641W        W47495  17.749   0.107  15.862 -0.0028  0.1308 -0.2815
28642W        W47496   3.023   7.589  12.341 -0.0957  0.2888 -0.0289
28643W        W47497  16.202   8.010  16.149 -0.0412  0.0102 -0.0996
28644W        W47498  17.560  14.609   1.386  0.0273  0.1708  0.1885
28645W        W47499  11.868   7.969  14.729 -0.3277 -0.0313 -0.2367
28646W        W47500  15.344  15.969  12.302 -0.0438 -0.1610  0.1352
28647W        W47501   7.866   4.994  12.367 -0.2856 -0.1036  0.0179
28648W        W47502  17.168  12.576  15.018  0.0418  0.0596  0.2836
28649W        W47503   8.634   6.809   2.113  0.0096  0.1355 -0.1114
28650W        W47504   1.972   2.339  12.309  0.0447  0.2928  0.1601
28651W        W47505   3.586  13.671  11.365 -0.2143 -0.2027  0.0981
28652W        W47506   2.518   3.244   2.007 -0.1040 -0.0716 -0.5504
28653W        W47507   6.980   6.322   5.336 -0.0436  0.1574 -0.0150
28654W        W47508  17.977   6.456   2.849 -0.1806  0.0543  0.0824
28655W        W47509   3.575   5.423   1.788  0.3472  0.1192  0.0229
28656W        W47510  17.349   4.740  14.946 -0.1248 -0.2688  0.1432
28657W        W47511   7.777   8.613  11.664 -0.0238 -0.1297  0.2326
28658W        W47512   3.905   7.972  14.214  0.0176 -0.0165 -0.4014
28659W        W47513  10.332  10.570  13.571  0.2592  0.0134 -0.1872
28660W        W47514   8.906  10.060   4.185  0.0142 -0.2213  0.2028
28661W        W47515   9.939   1.208  13.347 -0.0238 -0.3872  0.1064
28662W        W47516  12.900   6.597   4.562 -0.0282 -0.0456 -0.1009
28663W        W47517  11.901   3.432   3.409 -0.2421 -0.3352  0.2293
28664W        W47518   6.165   1.234   1.913  0.0679  0.0734 -0.0333
28665W        W47519  12.639  10.488   1.326 -0.0364 -0.0566  0.1572
28666W        W47520  12.427   8.272   5.120  0.1870  0.2243  0.0165
28667W        W47521  16.931   1.457  14.474  0.0213  0.1045  0.0556
28668W        W47522   3.887  11.284  11.183  0.0284 -0.2053 -0.1463
28669W        W47523   6.248  10.589  11.998  0.0354 -0.0098 -0.1751
28670W        W47524   1.692   8.215   1.022 -0.1355  0.0675  0.0824
28671W        W47525   5.172  11.537  15.272  0.1939 -0.0198 -0.1604
28672W        W47526   7.287   6.172   2.735 -0.0374 -0.2755 -0.3035
28673W        W47527  11.040  17.175   4.535  0.1339 -0.0081  0.1068
28674W        W47528  13.536  13.623   5.904 -0.0312 -0.1445  0.0305
28675W        W47529   0.510  16.162  15.351 -0.2081  0.0570  0.0128
28676W        W47530  17.474  14.064  12.445 -0.0677  0.2721  0.0768
28677W        W47531   0.111  13.863   4.685 -0.0209 -0.1475  0.1807
28678W        W47532   4.754  14.166   4.926  0.2139 -0.0429  0.1024
28679W        W47533  13.256   9.631  16.017 -0.0628  0.0902  0.0610
28680W        W47534  13.851   1.443   2.011 -0.0155 -0.0668 -0.0846
28681W        W47535   9.982  11.356  12.946 -0.0998 -0.0499  0.0658
28682W        W47536   0.062   2.049  12.712 -0.2217  0.2600  0.0595
28683W        W47537  12.338   1.134   3.098 -0.1702  0.0057  0.0372
28684W        W47538  11.154  17.330  12.098 -0.1330  0.2321  0.0125
28685W        W47539  11.778   6.607   2.823  0.4966  0.0420  0.3440
28686W        W47540   1.959  15.409  14.264 -0.0668 -0.2639  0.2335
28687W        W47541   9.659   5.922  13.984 -0.0488 -0.1444  0.2281
28688W        W47542   1.487   9.048  15.946 -0.1806  0.2243 -0.0968
28689W        W47543  14.433  14.170  14.373  0.1473 -0.0614  0.0804
28690W        W47544   3.156  12.268   0.440  0.0459  0.0840 -0.0199
28691W        W47545   3.402   3.720  14.892 -0.1149  0.0981  0.1500
28692W        W47546   9.916   8.428   3.427 -0.1059  0.0807 -0.1552
28693W        W47547  12.434  10.845   3.340  0.1220  0.0138  0.1577
28694W        W47548   5.311   5.553   3.607 -0.2467 -0.0991 -0.0197
28695W        W47549  10.522   4.371  14.641  0.4232 -0.4283 -0.0674
28696W        W47550   9.639   9.732   4.853 -0.1349 -0.0207  0.0542
28697W        W47551   2.643  17.127   4.174  0.0870  0.2671  0.5117
28698W        W47552   3.142  15.985  13.255 -0.0670 -0.2093  0.2576
28699W        W47553  12.430   7.404  13.361 -0.0067  0.1109  0.1472
28700W        W47554   9.240   6.573  15.154 -0.0335 -0.1687  0.0154
28701W        W47555   9.783  12.894  14.201  0.0647 -0.1549  0.1092
28702W        W47556   1.030  14.379   4.131 -0.0975  0.0890 -0.0251
28703W        W47557  15.468  10.306  12.115  0.1657 -0.0797 -0.1458
28704W        W47558  13.668  16.939  15.196  0.4761 -0.1555 -0.0089
28705W        W47559  16.915   6.912   1.532  0.0082 -0.0561 -0.2547
28706W        W47560   6.202   7.621   4.541  0.2964  0.1221  0.0502
28707W        W47561   9.434  17.648  13.144  0.1120 -0.0257 -0.0309
28708W        W47562   5.552  11.687  14.050 -0.0164  0.0430  0.1041
28709W        W47563   1.075   6.207  13.265 -0.0360 -0.1552 -0.0785
28710W        W47564  14.531  17.412   3.273 -0.3160  0.2704  0.0851
28711W        W47565  16.243  12.466  14.764 -0.1077  0.1474  0.1978
28712W        W47566  15.948   0.632   3.197 -0.0147 -0.2625  0.0322
28713W        W47567  14.453   0.933  14.378  0.0029 -0.2477  0.2652
28714W        W47568   0.144  17.977  11.901  0.0006  0.2423  0.0461
28715W        W47569   6.114   0.099  12.846  0.0126  0.6026 -0.0433
28716W        W47570  14.207  15.008   0.826 -0.0224 -0.1889  0.0587
28717W        W47571   7.651   4.153   1.197  0.2776  0.1424 -0.0251
28718W        W47572  13.277  12.368   4.490 -0.0527  0.0098 -0.0790
28719W        W47573  10.551  10.287  13.983  0.0151 -0.2638 -0.1962
28720W        W47574   4.638   1.744   2.039 -0.1166 -0.1850  0.3693
28721W        W47575   5.091   2.053  12.198 -0.0648 -0.0731 -0.0140
28722W        W47576   2.013  12.775  13.080 -0.2299  0.0095 -0.2481
28723W        W47577   0.870   0.292  15.227 -0.1961 -0.1519 -0.1628
28724W        W47578   2.318  16.648   3.259  0.2393 -0.2674  0.1454
28725W        W47579   4.025   5.805  13.637  0.4377 -0.0969 -0.0147
28726W        W47580  14.490   3.617  15.130  0.1759  0.0581 -0.4141
28727W        W47581   5.404  12.012  15.334 -0.1105 -0.0782 -0.2612
28728W        W47582  17.248  17.482  11.176  0.0648  0.2625  0.0142
28729W        W47583  15.054  10.617   2.453 -0.2214 -0.0586  0.0644
28730W        W47584  14.577  12.454   0.369 -0.2619  0.0068  0.2369
28731W        W47585  11.983  15.705  13.330 -0.1346  0.1928 -0.0466
28732W        W47586  12.563  16.033   0.002 -0.5658 -0.2956 -0.0416
28733W        W47587   9.272   2.668  14.409 -0.2029 -0.2565 -0.0746
28734W        W47588  11.347  17.619   2.497 -0.1639  0.0909  0.5293
28735W        W47589   6.797  13.455  16.162  0.0135 -0.2121  0.1387
28736W        W47590  15.528   6.294   3.533 -0.1493 -0.2633 -0.0813
28737W        W47591  15.948   1.285   0.235  0.4208  0.0495  0.3242
28738W        W47592  14.357   4.465  12.600  0.0171 -0.2477 -0.0405
28739W        W47593   6.217  15.557  12.826  0.0872 -0.1900  0.2630
28740W        W47594  10.664  12.531  11.978  0.1121  0.3451 -0.3668
28741W        W47595  15.119  13.888   3.994 -0.1149  0.1343 -0.0236
28742W        W47596  15.309   1.221   3.994 -0.0406  0.1286 -0.1289
28743W        W47597   4.356   6.541   2.107  0.1413  0.0188  0.4457
28744W        W47598  10.839   9.664   3.367 -0.3432  0.0393 -0.1994
28745W        W47599  12.955  10.036   3.029  0.6478  0.2245  0.0599
28746W        W47600  13.835  11.455  13.707 -0.0697 -0.1588 -0.0784
28747W        W47601   8.791  17.238  14.460  0.1239 -0.4288  0.1485
28748W        W47602  16.922   7.532   0.895  0.0977  0.1379  0.4911
28749W        W47603  15.450   7.258  12.708  0.1681  0.2095 -0.1816
28750W        W47604   9.021   2.439   2.135 -0.1816  0.1283  0.3008
28751W        W47605  10.179  13.712   1.563  0.0952 -0.2366  0.2230
28752W        W47606   9.048   8.186  13.567  0.1654  0.3890  0.0837
28753W        W47607   6.098   5.165   4.727 -0.0041  0.1676  0.0508
28754W        W47608  17.954  16.696   4.452 -0.0458  0.1718 -0.3888
28755W        W47609   4.140   7.158  15.815 -0.2726 -0.0614 -0.1363
28756W        W47610   4.139   1.389   1.347 -0.3467  0.2239 -0.1159
28757W        W47611   7.237   9.136   0.890  0.2912 -0.1709  0.6133
28758W        W47612   4.077   7.110   4.435  0.0879  0.0756 -0.0786
28759W        W47613   7.064   1.945   1.031 -0.5556  0.1071 -0.0683
28760W        W47614   1.532   5.791   3.322  0.1074 -0.0350  0.1701
28761W        W47615   1.978  15.088   4.589  0.3879 -0.0491  0.0954
28762W        W47616  11.401   8.259  14.089 -0.0826 -0.4127 -0.2494
28763W        W47617   2.662   4.382   2.741  0.4571  0.1700  0.2750
28764W        W47618  10.793   3.817   4.949  0.1073 -0.2669  0.1418
28765W        W47619   5.106   0.525   1.198  0.0709  0.2068 -0.0732
28766W        W47620  14.798   6.794  12.151 -0.0833  0.0521 -0.0976
28767W        W47621   4.110   7.890   0.072  0.3642  0.0157 -0.0618
28768W        W47622   1.588   1.283  13.485  0.1770  0.1126  0.4837
28769W        W47623  15.656   2.920   4.773 -0.1627 -0.0801 -0.1379
28770W        W47624   2.791  16.907  13.519  0.0620  0.1092  0.3263
28771W        W47625   7.482  11.845  14.897 -0.1247 -0.0934  0.0166
28772W        W47626   3.822   5.298  13.653 -0.0884 -0.1967  0.0310
28773W        W47627  13.507  15.706  12.882  0.3172  0.0715 -0.0883
28774W        W47628   8.471   0.734   2.035 -0.1182  0.2109 -0.1975
28775W        W47629  15.672   0.989  12.384  0.0723  0.3826 -0.0681
28776W        W47630   6.090  15.306  15.726  0.1573  0.2255  0.1546
28777W        W47631  12.316   2.736   1.039  0.0628  0.1432 -0.0892
28778W        W47632   1.723   1.447  11.989 -0.1400  0.1563  0.2677
28779W        W47633  15.403   5.638  11.424  0.4164  0.0878 -0.1187
28780W        W47634   3.946   0.432   3.151  0.1429  0.0158  0.1330
28781W        W47635   8.277   7.349   0.759  0.0197  0.0007 -0.2767
28782W        W47636  10.444   1.912   0.899  0.0570  0.1431 -0.0429
28783W        W47637   9.493  10.626   1.790  0.1973  0.1724 -0.0802
28784W        W47638   3.741   5.272  15.786  0.0392 -0.1185 -0.1042
28785W        W47639   5.524  16.739   1.940  0.1652  0.2887  0.1005
28786W        W47640  13.996   0.985  14.594  0.0020 -0.1355 -0.0843
28787W        W47641   7.506  16.839   1.405  0.0993 -0.0310  0.1168
28788W        W47642  14.081   0.343   4.559  0.1333 -0.0841 -0.3475
28789W        W47643  16.919   4.338  16.159 -0.0927  0.1324 -0.3461
28790W        W47644   0.549  14.486   4.022  0.1125  0.4236 -0.0559
28791W        W47645   6.589   6.367  12.857  0.1387 -0.3369  0.0789
28792W        W47646   1.266   4.816   3.100  0.1838  0.0943  0.0007
28793W        W47647   6.714  10.857   4.298  0.1261  0.0952 -0.1183
28794W        W47648   3.077   9.156  15.219 -0.2082 -0.1101 -0.0437
28795W        W47649   5.304   6.496  15.346 -0.2369  0.0659  0.0455
28796W        W47650  10.427   6.721   0.253  0.0605 -0.3859  0.3265
28797W        W47651   5.509  10.605  13.671  0.1317 -0.3271  0.2765
28798W        W47652  13.432   0.175   2.091 -0.0819  0.0996 -0.0975
28799W        W47653   8.904  10.906   1.592  0.1248 -0.2037  0.0114
28800W        W47654  14.883   5.029   4.089  0.1670  0.1522  0.0058
28801W        W47655  13.584  12.809   4.224 -0.1109 -0.2625  0.2295
28802W        W47656   9.113  17.271   4.940  0.2773 -0.0404  0.1202
28803W        W47657   4.731   3.944   0.115 -0.0587 -0.2485  0.1392
28804W        W47658   7.358  12.931   1.933  0.2048  0.1964 -0.2103
28805W        W47659  17.480   3.781  11.621  0.0722  0.2900  0.0986
28806W        W47660   3.881   0.192   0.881  0.0651 -0.1920  0.1116
28807W        W47661  15.537  10.356   3.254 -0.0445  0.1769  0.2379
28808W        W47662   5.770  16.984   1.007  0.1327 -0.0680  0.2375
28809W        W47663  10.577  12.998  15.844  0.0579 -0.3209  0.1112
28810W        W47664  18.025   8.547  15.043 -0.3203  0.0297  0.1131
28811W        W47665   7.221  12.234   3.866 -0.1728  0.0666  0.0215
28812W        W47666   1.204  14.814   3.369  0.0157 -0.2057  0.0055
28813W        W47667   4.152   2.826   4.117 -0.0049 -0.1481  0.2788
28814W        W47668  15.607  16.754  12.932 -0.2283  0.0049 -0.0627
28815W        W47669  17.894   4.230  15.580  0.1484 -0.0833 -0.0344
28816W        W47670  17.729   2.875  13.293  0.0976 -0.0412 -0.2699
28817W        W47671  14.474  14.515  14.873  0.0661 -0.0387  0.0564
28818W        W47672   1.971   8.008   2.234  0.0055  0.0460  0.0987
28819W        W47673   9.100  15.240  12.753 -0.1482  0.0228 -0.1929
28820W        W47674  15.340  10.940   0.084  0.0216  0.0075  0.1096
28821W        W47675  16.713   5.410  11.506 -0.0307  0.2207 -0.1351
28822W        W47676   5.395  16.651   2.899  0.1917 -0.0341  0.2607
28823W        W47677   9.245   5.081  12.529  0.1835  0.0721  0.0573
28824W        W47678   8.775   2.130  11.154 -0.0583  0.2486  0.1381
28825W        W47679  17.916   7.506   2.857 -0.0927 -0.1392  0.1453
28826W        W47680   6.944   9.945   2.379  0.3687  0.0569 -0.0103
28827W        W47681  13.287   3.747  12.241  0.0723 -0.0250 -0.2662
28828W        W47682   3.456  14.742   2.345  0.1923  0.0252 -0.1566
28829W        W47683   5.442  17.332   0.293 -0.1570 -0.1395  0.0307
28830W        W47684  16.864   8.842  13.105 -0.0146  0.0068 -0.0963
28831W        W47685  10.033   7.573  15.998 -0.1805 -0.1052 -0.0753
28832W        W47686   8.440   6.731  15.385 -0.2753 -0.1626  0.1220
28833W        W47687  10.291   1.222  16.026 -0.0881 -0.1597  0.0542
28834W        W47688  12.498   5.964  15.848  0.0867  0.1203 -0.2846
28835W        W47689   8.853  12.246  13.356 -0.1847 -0.0646  0.0208
28836W        W47690   8.091  12.443  13.572  0.0990  0.2123  0.1591
28837W        W47691  11.751  12.030   0.774  0.2572 -0.0376 -0.0040
28838W        W47692   3.212  16.552   2.838  0.1061  0.1030  0.3194
28839W        W47693  14.827  11.774  16.176 -0.2764  0.3393  0.0908
28840W        W47694   7.173   5.639   1.991  0.3375  0.0571 -0.1048
28841W        W47695   7.018   6.076  12.790 -0.1738  0.0660 -0.1983
28842W        W47696  11.660   9.213   5.441 -0.1068  0.0949 -0.4158
28843W        W47697   5.580   7.307   2.865 -0.0884  0.1905 -0.1662
28844W        W47698   5.063   9.516   0.078 -0.0722  0.3580  0.0726
28845W        W47699  15.428  13.481   2.165 -0.0193 -0.0115 -0.3788
28846W        W47700   3.324   2.094  12.815 -0.0266 -0.1411  0.4295
28847W        W47701  10.977   4.364   1.266  0.3046 -0.3191 -0.1658
28848W        W47702   7.446   7.062  13.844 -0.2906  0.1231 -0.2892
28849W        W47703  10.213   8.775   5.438 -0.0323 -0.2572  0.3541
28850W        W47704   9.531   6.595   0.734  0.3211  0.1292  0.2253
28851W        W47705   1.378   5.235  11.654  0.1072  0.3293 -0.3628
28852W        W47706   2.249  14.640   3.098  0.0570  0.3345  0.1096
28853W        W47707  10.922   6.633   0.370  0.2993 -0.0878 -0.0343
28854W        W47708  10.374   2.768   0.971  0.2744  0.0526 -0.0372
28855W        W47709  15.994   7.408   2.310  0.0496  0.3517  0.1014
28856W        W47710  12.597   6.452  10.663  0.3486 -0.0136  0.0720
28857W        W47711   0.701   1.351  16.073  0.0926  0.2126  0.0989
28858W        W47712   4.881   5.329   1.774  0.0817  0.0472  0.3260
28859W        W47713   0.669   8.131  13.521  0.0308  0.0257  0.0226
28860W        W47714  17.573   9.366   1.631 -0.0689  0.3871 -0.0279
28861W        W47715   8.161   2.010   1.346 -0.0594  0.0587 -0.0044
28862W        W47716  11.413  13.956   5.049 -0.0137  0.0848 -0.1862
28863W        W47717   3.260   2.993  15.072  0.1405  0.1249  0.1421
28864W        W47718  16.091  14.442  13.358 -0.0300 -0.1992  0.0448
28865W        W47719   8.698  13.741  14.952 -0.0154  0.2835 -0.1197
28866W        W47720   3.065   8.435  15.226 -0.3161 -0.2665  0.0891
28867W        W47721   4.644   7.167   0.317  0.1076  0.0899  0.1698
28868W        W47722  13.309   4.864  15.625  0.0660 -0.1852  0.1557
28869W        W47723  13.610  12.967   1.354 -0.0348  0.0155  0.1625
28870W        W47724   7.674   4.711   0.023  0.0889 -0.3025  0.0979
28871W        W47725   1.371  11.848  15.454  0.0477 -0.1205  0.2793
28872W        W47726  13.708  10.181  13.623 -0.0375 -0.2933  0.2832
28873W        W47727   1.741  16.335   3.249 -0.2518 -0.0325 -0.0450
28874W        W47728  17.159   1.869   2.772 -0.2487  0.2325 -0.1027
28875W        W47729  16.381   7.447   3.886 -0.1695  0.1203 -0.0144
28876W        W47730   4.817  11.958   3.326 -0.2633  0.1297  0.1796
28877W        W47731   9.250   3.544   0.384  0.2004  0.3246  0.2447
28878W        W47732   5.712  12.143  14.992 -0.0634 -0.2007 -0.1310
28879W        W47733   5.260   6.654   4.246  0.0890 -0.2342 -0.2565
28880W        W47734   1.361   9.270   1.963 -0.4151 -0.1514 -0.0919
28881W        W47735   4.441   1.889  14.185 -0.2857 -0.1383 -0.1495
28882W        W47736   5.500   6.660  15.815  0.1608  0.0839  0.1088
28883W        W47737   2.531   6.882  11.732 -0.4028 -0.2277  0.0157
28884W        W47738  15.928  12.984   4.807 -0.1021 -0.0869 -0.2536
28885W        W47739   7.558  12.315  13.440  0.0891  0.0270 -0.1049
28886W        W47740   3.297  12.223   3.759 -0.0603  0.0228  0.1576
28887W        W47741   9.831   4.652   0.485 -0.2157  0.2983  0.0251
28888W        W47742   2.790   9.099   0.062 -0.1343 -0.1940  0.0858
28889W        W47743   1.963   3.582   3.226 -0.1452 -0.0096 -0.0844
28890W        W47744   8.345   0.602   0.664 -0.0005  0.2354 -0.2102
28891W        W47745   3.193  14.011  14.619 -0.1675  0.0288  0.0150
28892W        W47746  14.302   5.456  13.893 -0.0604  0.0999 -0.0335
28893W        W47747   1.121   3.429  11.847  0.2007 -0.0328 -0.1863
28894W        W47748   2.066  12.361   2.001 -0.1448  0.2317  0.0203
28895W        W47749  10.518   2.256  15.923  0.1352  0.0682  0.0452
28896W        W47750   6.129   3.694  12.015 -0.2026 -0.1072  0.0566
28897W        W47751  15.241   0.701   4.000  0.2120 -0.2649 -0.5339
28898W        W47752   4.796   9.720   0.509 -0.0547  0.0321 -0.0137
28899W        W47753  10.749   9.343  14.000 -0.1856  0.1114 -0.1854
28900W        W47754  14.957   5.179  13.537  0.2286  0.2223 -0.1178
28901W        W47755   0.310  10.420  13.065  0.4489  0.0827 -0.6054
28902W        W47756   0.780   3.683   3.389  0.0577 -0.0676 -0.0080
28903W        W47757   6.109  16.699   0.815  0.0765  0.0214 -0.0414
28904W        W47758  16.102   3.927   1.630  0.2533  0.2578  0.0717
28905W        W47759  10.940   4.064  11.781  0.3740 -0.1384  0.0005
28906W        W47760   5.562  16.123  12.373  0.0532  0.1948  0.0966
28907W        W47761   3.756  12.578   4.048  0.3289 -0.3584  0.0037
28908W        W47762  14.631  14.674   4.289 -0.0708 -0.0949 -0.1864
28909W        W47763  16.440  17.046  15.452 -0.2895 -0.2002 -0.1567
28910W        W47764   9.438   1.525   0.810  0.0069  0.0841 -0.2350
28911W        W47765   9.466  10.097   2.865 -0.2824 -0.0734 -0.2029
28912W        W47766   4.379  12.439   3.117 -0.3062 -0.1264 -0.1043
28913W        W47767  14.449  17.030  12.856 -0.0436 -0.1215 -0.1451
28914W        W47768  14.208   0.268   1.150 -0.1566  0.2704  0.0976
28915W        W47769  11.374   1.574  11.724 -0.0448  0.0261 -0.1837
28916W        W47770  16.329   8.145  15.259 -0.0613  0.3507  0.1744
28917W        W47771   8.299  12.161  14.704  0.2564 -0.1379 -0.0092
28918W        W47772   8.334  16.443   4.461  0.3289  0.1784 -0.3239
28919W        W47773   3.121  17.014  14.830 -0.0500 -0.0134 -0.1249
28920W        W47774   4.958  10.477   3.219 -0.2686 -0.0330  0.1556
28921W        W47775   5.703   4.853   0.984  0.0977 -0.2749 -0.1956
28922W        W47776   1.878   3.401  12.323  0.1445  0.1019 -0.3019
28923W        W47777   3.204   6.911   3.884  0.0312 -0.2839 -0.1455
28924W        W47778   8.933   0.759   2.862  0.1623  0.0518  0.0292
28925W        W47779  11.858   8.204   0.631 -0.1794  0.1884 -0.1150
28926W        W47780   3.590   4.430  15.484 -0.0564 -0.1260  0.5125
28927W        W47781   1.556   2.115  12.303 -0.1078 -0.0589 -0.1509
28928W        W47782   4.512  17.085   2.353  0.1327  0.3017  0.3304
28929W        W47783   8.764  13.459   4.806 -0.0843  0.0945  0.0135
28930W        W47784  17.891   3.480  14.378 -0.1509  0.0310 -0.1031
28931W        W47785   2.787   8.599   3.039  0.0254  0.2330  0.1257
28932W        W47786  14.756   3.385   5.146  0.0476  0.1620 -0.0542
28933W        W47787  11.276  11.253   1.862  0.2290  0.1015  0.2083
28934W        W47788   0.448  12.686  13.517  0.1636 -0.0870 -0.1420
28935W        W47789  10.962   6.205  11.463 -0.0038  0.2044  0.2838
28936W        W47790  12.645   7.977   4.207  0.1175  0.2332 -0.1896
28937W        W47791   9.736  12.000   3.800  0.0610 -0.0118 -0.0952
28938W        W47792   8.788   8.359  11.788 -0.1414 -0.3797 -0.1051
28939W        W47793  11.238  12.574   1.458  0.1438 -0.3864  0.0500
28940W        W47794  14.571  11.176  12.960  0.0913 -0.2272  0.3663
28941W        W47795   2.618  12.614  14.140 -0.0137 -0.1592  0.0533
28942W        W47796  16.577   1.150  12.119 -0.2238 -0.1769  0.0715
28943W        W47797  17.710  13.422  14.510 -0.2031 -0.0836  0.1206
28944W        W47798   7.186  17.450   4.747 -0.3355 -0.0506  0.1313
28945W        W47799   3.693   5.983  15.579 -0.1553 -0.3277 -0.3486
28946W        W47800  12.815  13.709  11.784  0.0333  0.0453  0.3202
28947W        W47801  11.297   2.837   3.372 -0.0078  0.0931  0.2269
28948W        W47802  11.555  13.856   2.429 -0.0035 -0.5456 -0.1615
28949W        W47803  12.888   0.382  15.214 -0.2955 -0.3507 -0.0614
28950W        W47804   7.297  15.649  15.255  0.0707 -0.0356  0.1878
28951W        W47805  11.128   2.133   2.244 -0.0597  0.0677  0.0944
28952W        W47806  15.411  11.665  13.259  0.1097 -0.0695 -0.1219
28953W        W47807  17.288   4.231   2.389 -0.1279  0.0274 -0.0541
28954ION     NA47808  13.163   1.711  13.119 -0.0252  0.1685  0.0191
28955ION     NA47809  14.826   6.560   5.494  0.1458 -0.2319 -0.1977
28956ION     NA47810   9.155  13.518   3.891 -0.1949 -0.0116  0.0685
28957ION     NA47811  13.963   9.762  10.521 -0.1267  0.0484  0.1156
28958ION     NA47812  10.829   4.926  11.541 -0.0898 -0.1486  0.0974
28959ION     NA47813  10.706  15.871   2.945  0.1802 -0.3888 -0.1733
28960ION     NA47814  10.188  17.071  11.076  0.3623  0.1145  0.1004
28961ION     NA47815  13.905  14.037  10.971  0.3121 -0.2247  0.0370
28962ION     NA47816   7.596  14.477   2.855 -0.1398  0.1581  0.1554
28963ION     NA47817   3.612  10.458   5.491  0.3748  0.4409  0.2089
28964ION     NA47818   0.901   0.411   5.791 -0.0556 -0.1957  0.1522
28965ION     NA47819  13.438  17.929   5.564 -0.0740 -0.0726  0.2841
28966ION     NA47820   3.079  15.439  11.391 -0.1549 -0.0216  0.1647
28967ION     NA47821   9.687  17.129  10.874 -0.0943 -0.4233 -0.0279
28968ION     NA47822   1.101  12.975  15.160  0.0675  0.1439 -0.1077
28969ION     NA47823   8.934  16.170  11.222  0.1511 -0.1734  0.0051
28970ION     NA47824  16.625  11.983  12.846  0.1174 -0.2611  0.1537
28971ION     NA47825  14.989   9.258  13.098  0.3004  0.0587 -0.0321
28972ION     NA47826  14.046  12.422  15.091 -0.0309 -0.0601 -0.3047
28973ION     NA47827   2.822   5.500  11.889  0.0012  0.0295  0.0420
28974ION     NA47828  15.763   2.000  13.690  0.0514 -0.2021 -0.1457
28975ION     NA47829   4.908  10.756  13.381  0.1153  0.0995  0.2917
28976ION     NA47830  15.179   8.889  11.648 -0.0235 -0.2218 -0.3495
28977ION     NA47831   9.233   5.915   2.337  0.1025  0.1116 -0.0732
28978ION     NA47832   1.612  14.291  12.559  0.0092  0.1247 -0.0822
28979ION     NA47833  16.439   7.009   5.184 -0.0250  0.1271 -0.1947
28980ION     NA47834  13.837   3.710   4.932  0.3639 -0.0794  0.4407
28981ION     NA47835   8.567   2.577   3.244 -0.0351 -0.1435 -0.0698
28982ION     NA47836   7.149   7.580   1.087  0.1203  0.3968 -0.2440
28983ION     NA47837  12.947  15.961  10.849 -0.1733 -0.1028  0.1294
28984ION     NA47838  11.263  15.810  15.391 -0.1493 -0.0311  0.1928
28985ION     NA47839   5.235   5.834   2.584 -0.0679 -0.0253 -0.1905
28986ION     NA47840  14.834   1.793   0.096  0.1590 -0.2252 -0.2281
28987ION     NA47841  15.559   7.714   5.398  0.0416  0.3043  0.1176
28988ION     NA47842  17.660   4.256  10.632  0.2301  0.1889  0.3969
28989ION     NA47843   5.286   8.435  10.837  0.0895  0.1461 -0.1158
28990ION     NA47844  11.112  11.367  14.240 -0.2260  0.1940 -0.1087
28991ION     NA47845   4.423  11.289   2.626  0.3028 -0.4271 -0.1707
28992ION     NA47846  17.403   8.437  11.958 -0.0426  0.3658  0.1724
28993ION     NA47847  13.341  12.398  15.995  0.0238 -0.0679 -0.3073
28994ION     NA47848  10.036   2.873   1.785 -0.1524 -0.2499  0.1833
28995ION     NA47849   5.585   6.834  15.089  0.2188 -0.1623 -0.2644
28996ION     NA47850   8.672  11.320   5.730 -0.1878 -0.3586  0.2618
28997ION     NA47851   8.463  10.791   3.124 -0.2891 -0.0642  0.1483
28998ION     NA47852   3.573   8.697  15.845 -0.1221  0.2321 -0.0880
28999ION     NA47853   2.725  15.066   1.807 -0.1345  0.6063  0.1058
29000ION     NA47854   7.106   2.845  13.992  0.2358  0.0998  0.1909
29001ION     NA47855   6.459  14.818   4.887  0.1740  0.2142  0.2926
29002ION     NA47856   5.858   6.744  13.519 -0.2922  0.1896 -0.0751
29003ION     NA47857  10.257  10.726   0.004 -0.0549  0.0653 -0.2172
29004ION     NA47858   2.702  15.893   0.017 -0.2927  0.0251  0.1282
29005ION     NA47859  13.656   3.007  13.711 -0.0006 -0.3019 -0.0967
29006ION     NA47860  10.753   3.868   2.658  0.1521  0.0516 -0.0637
29007ION     NA47861   9.022   4.264   5.625  0.1167 -0.0253 -0.0056
29008ION     NA47862   2.546   0.301  10.714 -0.1198  0.2096  0.0541
29009ION     NA47863   2.845   5.319   0.756  0.1409 -0.1129  0.0366
29010ION     NA47864  15.427  13.548  14.200  0.0526  0.1180  0.0503
29011ION     NA47865  12.641   7.958  10.865 -0.0681 -0.0283 -0.2307
29012ION     NA47866   6.141   4.004  12.468  0.2077  0.1199  0.0530
29013ION     NA47867   3.548   6.511  10.792 -0.3345  0.2928 -0.1329
29014ION     NA47868   7.696   7.029   3.105  0.0321  0.0848 -0.1210
29015ION     NA47869   8.661  10.001   5.074 -0.3454 -0.2361  0.1687
29016ION     NA47870   3.398   6.706   5.391  0.0181  0.0495 -0.0426
29017ION     NA47871  13.916   6.367  13.458 -0.1455  0.1496 -0.2603
29018ION     NA47872   0.628   7.416   4.963  0.0799 -0.0513  0.1781
29019ION     NA47873   6.208   1.705  13.116  0.4218 -0.0902  0.2366
29020ION     NA47874   0.121   5.440   0.408  0.2305 -0.1995 -0.3040
29021ION     NA47875   3.485   9.541   5.314  0.1820 -0.1959 -0.0511
29022ION     NA47876  17.988   8.044   2.701  0.0588 -0.1310 -0.1457
29023ION     NA47877   7.256  14.548   4.015  0.1368 -0.0965 -0.0645
29024ION     NA47878  16.812   4.601   5.383  0.0137 -0.0758 -0.0327
29025ION     NA47879   8.086   3.507   2.135 -0.0541  0.1607 -0.3082
29026ION     NA47880  14.959   1.293  14.966  0.0163 -0.0077  0.0294
29027ION     NA47881  14.933  17.512  14.377  0.1222  0.0027 -0.3395
29028ION     NA47882  16.910  16.258  10.715  0.2168  0.1077 -0.1728
29029ION     NA47883  14.397  17.470   5.600 -0.2957  0.2251  0.3590
29030ION     NA47884   9.207   5.156   1.589  0.0402  0.1424 -0.1095
29031ION     NA47885   0.016   9.715  16.136  0.0470  0.0867  0.1997
29032ION     NA47886  10.741   8.036   4.257 -0.0499  0.0580 -0.1067
29033ION     NA47887   2.136  13.048  14.490  0.2719 -0.1013  0.0363
29034ION     NA47888  12.700   8.095   0.175  0.2287  0.1628  0.0006
29035ION     NA47889  11.986  16.472  13.835  0.0451 -0.2136  0.2270
29036ION     NA47890  13.024   1.272   1.134  0.0428 -0.1346  0.0295
29037ION     NA47891   8.860   8.358   5.508  0.2107  0.0846  0.0206
29038ION     NA47892   9.472  14.298   1.089 -0.1960 -0.1545  0.0107
29039ION     NA47893  14.231   1.271   0.154  0.1276 -0.2237  0.4436
29040ION     NA47894   2.614  17.240  11.111 -0.1456 -0.1837 -0.0874
29041ION     NA47895   9.610  11.591  14.462 -0.4791 -0.0981 -0.0802
29042ION     NA47896  11.189   9.373   5.749  0.1714 -0.0654  0.1402
29043ION     NA47897   2.136  14.452  11.588 -0.0511 -0.1550  0.0360
29044ION     NA47898   7.926  13.516  14.423 -0.1291 -0.0055 -0.1348
29045ION     NA47899   5.216  16.307   5.636 -0.0546  0.1561  0.3401
29046ION     NA47900   4.247  16.114   5.907 -0.1656 -0.0589  0.1168
29047ION     NA47901  15.593  11.481   5.712 -0.0057  0.1977  0.2043
29048ION     NA47902   2.198   1.524  15.709 -0.1776  0.1113 -0.1314
29049ION     NA47903   4.935  14.880  10.877  0.0316  0.1904 -0.3220
29050ION     NA47904   9.545  17.297   1.138  0.0034  0.0045 -0.0317
29051ION     NA47905   7.003   3.634   5.109 -0.0605 -0.1443 -0.2275
29052ION     NA47906  12.970   7.443   0.591 -0.1955 -0.2379  0.2823
29053ION     NA47907  13.231   2.470  10.535  0.0115 -0.2624  0.3064
29054ION     NA47908  16.490  11.820  14.660 -0.0417  0.0378 -0.0895
29055ION     NA47909  11.151  16.863   2.774  0.0452  0.0082  0.0139
29056ION     NA47910   7.660   3.776   5.872 -0.2736 -0.1424 -0.0274
29057ION     NA47911  12.732   0.609  13.896 -0.0953  0.1254 -0.0274
29058ION     NA47912  15.934   4.213  15.235 -0.4010  0.3033 -0.3093
29059ION     NA47913  10.723   4.471   1.946  0.3215 -0.1579 -0.1038
29060ION     NA47914   6.931   3.069   2.566 -0.3303  0.1048 -0.1565
29061ION     NA47915   1.642  15.889  12.595  0.0921 -0.0083 -0.1428
29062ION     NA47916  11.616   0.889  12.405 -0.0708  0.2597 -0.0733
29063ION     NA47917   0.595   5.678   5.035  0.0501  0.1111 -0.2804
29064ION     NA47918  13.443  11.612   5.413 -0.2407  0.0993 -0.1649
29065ION     NA47919  17.119  14.860   0.224  0.0041 -0.0806  0.0572
29066ION     NA47920   8.087  12.510   4.255 -0.2068  0.0263 -0.2224
29067ION     NA47921   2.232   8.349   1.401 -0.2529 -0.0217  0.0402
29068ION     NA47922  13.430   7.797   2.186  0.0497  0.1144 -0.1848
29069ION     NA47923   3.864  16.944  11.173 -0.1451 -0.0737  0.0968
29070ION     NA47924   4.244  14.874  14.348  0.1599  0.0359  0.2202
29071ION     NA47925   0.776   6.488   4.831 -0.1717 -0.0547  0.2334
29072ION     NA47926   7.905   6.154   5.500 -0.1354 -0.1642 -0.0123
29073ION     NA47927  15.512  13.896  15.862  0.2540 -0.0883 -0.0436
29074ION     NA47928   5.924  13.218  14.984 -0.0958 -0.1987  0.3894
29075ION     NA47929  10.780   0.655  15.083  0.0977 -0.0880 -0.3263
29076ION     NA47930   1.620  15.054   3.641  0.2305  0.0006 -0.0272
29077ION     NA47931  13.139  10.589  15.941 -0.0450 -0.1635  0.0427
29078ION     NA47932   0.449  10.076   5.421  0.0432  0.1297  0.1676
29079ION     NA47933   2.202   9.717   0.766  0.0163 -0.1693 -0.0760
29080ION     NA47934  14.419   2.195  11.707  0.0244 -0.1674 -0.1258
29081ION     NA47935  17.889   6.288  15.343  0.2239  0.3108 -0.0727
29082ION     NA47936   3.148   3.551   0.230  0.3371  0.1118  0.1465
29083ION     NA47937   0.467   9.198   5.442  0.2337  0.0784  0.2045
29084ION     NA47938   4.325  11.139   5.321 -0.3106  0.1031 -0.4108
29085ION     NA47939   3.284  15.811  13.720 -0.0797 -0.1445  0.0453
29086ION     NA47940   6.346   8.869  13.720  0.1066  0.1100 -0.1068
29087ION     NA47941   3.711   7.992   5.468  0.1767 -0.3061  0.0181
29088ION     NA47942  11.610   8.736   5.360  0.0142  0.1278  0.1887
29089ION     NA47943   8.624   3.055  10.864 -0.0316  0.0070  0.0926
29090ION     NA47944   8.016  10.064   1.547  0.1433  0.3649 -0.0357
29091ION     NA47945   9.420   4.798  10.604 -0.0766 -0.3384  0.0709
29092ION     NA47946  10.921   8.938  12.589  0.0890  0.0967  0.0144
29093ION     NA47947   0.521  12.538   5.732  0.0687  0.1747  0.4120
29094ION     NA47948  11.184  12.147   5.584 -0.3230  0.2210 -0.0115
29095ION     NA47949   6.388  16.201   3.810 -0.0613 -0.1885 -0.0452
29096ION     NA47950   0.689   9.016  13.749 -0.1780  0.0641 -0.2689
29097ION     NA47951  11.021  15.016   2.766 -0.2569 -0.0305  0.0297
29098ION     NA47952  17.782  16.317  10.990 -0.0210  0.1335 -0.0192
29099ION     NA47953   3.609   4.804   0.427  0.2434 -0.0431 -0.0140
29100ION     NA47954  10.955  12.063  10.800  0.0421  0.1445 -0.1228
29101ION     NA47955   6.950   3.192  14.854 -0.0278  0.2412 -0.1010
29102ION     NA47956   6.487  16.849   0.557  0.0437 -0.1841  0.3536
29103ION     NA47957   6.202  14.931   1.218  0.1282 -0.0476 -0.0782
29104ION     NA47958  15.444  13.505  11.076 -0.1001 -0.4695  0.2915
29105ION     NA47959  14.497   3.889   5.398  0.0272 -0.0355  0.3078
29106ION     NA47960   8.310  16.377   0.134 -0.0542 -0.1343 -0.5358
29107ION     NA47961  10.594  16.282  10.894 -0.1240 -0.1209  0.0188
29108ION     NA47962  16.526  12.755   3.991  0.2237  0.0617 -0.0011
29109ION     NA47963   6.017  16.610  10.834 -0.0086  0.0460 -0.0133
29110ION     NA47964   8.886   9.323   3.537 -0.0144 -0.1482  0.0359
29111ION     NA47965  15.349  12.529  13.684 -0.0433  0.2137 -0.0126
29112ION     NA47966  13.365   9.665  15.009  0.1726 -0.1927 -0.1806
29113ION     NA47967   8.777  13.859   0.933  0.0763  0.0677  0.0626
29114ION     NA47968  12.376   8.078   5.578  0.0876  0.3341  0.2620
29115ION     NA47969   0.574   3.751   5.071  0.0287  0.0212 -0.0440
29116ION     NA47970   4.274  13.202  10.938  0.0182 -0.0891 -0.1745
29117ION     NA47971  10.664  10.131  10.858 -0.3323 -0.1088 -0.0620
29118ION     NA47972   4.551   3.647   5.403 -0.0066 -0.1588 -0.3715
29119ION     NA47973   9.573   3.028  10.760  0.2290  0.1041  0.3388
29120ION     NA47974   2.795  14.696  13.057  0.2299  0.2132 -0.2540
29121ION     NA47975  11.591   2.447   0.613 -0.1920 -0.2327 -0.1893
29122ION     NA47976  12.756  17.619  16.108 -0.1404 -0.0381  0.6682
29123ION     NA47977  15.004   3.514  13.751  0.0790  0.2883 -0.1473
29124ION     NA47978  17.273   2.860  15.283 -0.0513 -0.0847 -0.0746
29125ION     NA47979   4.842   0.744   1.643 -0.1471 -0.0123 -0.0373
29126ION     NA47980  14.184  16.101   2.818 -0.0142 -0.1846 -0.0235
29127ION     NA47981  11.011  17.219  10.726  0.0551 -0.0704  0.1926
29128ION     NA47982   9.064   0.708   1.170  0.4639  0.0946  0.2409
29129ION     NA47983  16.673  16.221  15.125  0.1475 -0.2211  0.0814
29130ION     NA47984   6.404   2.070   1.685  0.1580  0.0470 -0.0832
29131ION     NA47985  10.870  17.057   4.014 -0.3982  0.1278 -0.0278
29132ION     NA47986   3.879   7.922   0.974 -0.2220 -0.1643  0.2620
29133ION     NA47987   1.730  13.161  13.358  0.0366 -0.0210  0.0606
29134ION     NA47988   2.658   5.686   2.128  0.1177 -0.1019  0.0828
29135ION     NA47989   5.971  15.342  13.385 -0.0299 -0.3316 -0.1737
29136ION     NA47990   4.222  17.524  10.990 -0.0004 -0.3941 -0.2716
29137ION     NA47991   6.966   6.007  12.283 -0.1188  0.1476 -0.3353
29138ION     NA47992  10.639   2.549   3.523 -0.2004  0.1834 -0.1308
29139ION     NA47993  14.786   5.650   5.175 -0.2718  0.1258 -0.0031
29140ION     NA47994  15.590   7.110   2.086  0.1215  0.0141  0.0954
29141ION     NA47995   9.697   8.048  14.133 -0.0113  0.0255 -0.0964
29142ION     NA47996   7.272   2.652   1.256  0.1676 -0.0355  0.3649
29143ION     NA47997  17.396   8.888   2.747 -0.0396 -0.1727 -0.0298
29144ION     NA47998   9.789   3.300  11.943 -0.3643  0.1938  0.0916
29145ION     NA47999  10.646   3.761  13.789 -0.2036  0.1635 -0.0312
29146ION     NA48000   9.393  15.180   5.849 -0.0081 -0.0696  0.0208
29147ION     NA48001   2.354   8.826   5.587 -0.0170  0.0080 -0.1275
29148ION     NA48002   2.384  12.693   4.912  0.3334 -0.3494  0.0879
29149ION     NA48003   9.730   4.161  13.961 -0.0604  0.0272  0.1660
29150ION     NA48004   4.032  17.007   4.197  0.1759 -0.1671  0.2195
29151ION     NA48005  16.950   8.943   0.879  0.1480 -0.1787 -0.3128
29152ION     NA48006   2.101  10.477   4.347  0.1203  0.0038  0.2190
29153ION     NA48007   6.228  14.665   5.620  0.0362 -0.2615 -0.0321
29154ION     NA48008  17.963   3.209  12.204 -0.1867 -0.0390 -0.2436
29155ION     NA48009   7.945   4.880  10.911 -0.1883 -0.3020  0.2041
29156ION     NA48010   6.038   1.564   0.966 -0.1193  0.0033 -0.0539
29157ION     NA48011   8.641   8.016  13.264 -0.1853 -0.4088  0.0218
29158ION     NA48012   3.271  16.583   2.004 -0.0181 -0.0941  0.0399
29159ION     NA48013  10.468  17.823  14.369  0.1903  0.2481 -0.0129
29160ION     NA48014   4.746  11.370   5.237  0.1083 -0.0569  0.2406
29161ION     NA48015   9.080  16.635  10.636  0.1015 -0.0252  0.2923
29162ION     NA48016  10.723  16.083   5.834 -0.0702  0.1084  0.3297
29163ION     NA48017   4.989   3.724  10.706 -0.1921  0.2554 -0.2113
29164ION     NA48018  11.919   5.415   5.359 -0.0206 -0.2728 -0.0934
29165ION     NA48019  15.874  14.405   3.087  0.0663  0.1480 -0.2245
29166ION     NA48020   6.132   6.826  11.242  0.2537  0.0945  0.1601
29167ION     NA48021   1.338   5.357   5.202 -0.1139  0.1031  0.2562
29168ION     NA48022   7.568   3.675  13.319  0.0594  0.0923  0.0074
29169ION     NA48023   3.739  14.605  15.450 -0.0693  0.3594 -0.2244
29170ION     NA48024   7.798   5.634  14.156  0.0036  0.1711 -0.0864
29171ION     NA48025   4.600   8.157  12.974 -0.2694 -0.1738 -0.0532
29172ION     NA48026   6.803   9.772  10.375 -0.2283  0.1625  0.0883
29173ION     NA48027  16.211   2.896   1.446  0.1030 -0.1975  0.0383
29174ION     NA48028   4.113  13.992  10.708  0.0108  0.0579  0.3094
29175ION     NA48029  16.871   8.262  10.239  0.1211 -0.1268 -0.1305
29176ION     NA48030   6.424   4.517   0.516  0.3292 -0.2574  0.1966
29177ION     NA48031   1.660  14.067  10.827 -0.3024 -0.0171 -0.1843
29178ION     NA48032   5.771  11.144  10.541  0.0466  0.0076  0.3793
29179ION     NA48033   0.456   6.156  10.155 -0.0140  0.3560  0.1844
29180ION     NA48034   6.283  14.214   2.556 -0.2125  0.1684 -0.2919
29181ION     NA48035  17.045   6.236   4.974 -0.0267 -0.1477  0.4809
29182ION     NA48036   7.121  15.510   1.497 -0.2071  0.0521 -0.1973
29183ION     NA48037   7.115   8.781  10.696  0.3243 -0.0940  0.0494
29184ION     NA48038   9.554   2.095   1.371 -0.1298  0.0878  0.1347
29185ION     NA48039   6.086   9.461  13.093 -0.1161 -0.0480 -0.0795
29186ION     NA48040  14.743   9.954  14.624 -0.1922  0.1019  0.1341
29187ION     NA48041  16.901  10.522   0.362 -0.1306  0.1164 -0.0757
29188ION     NA48042   9.414   2.118  10.963  0.1035 -0.0003  0.1830
29189ION     NA48043  17.596   6.738  14.396  0.0763 -0.0750  0.1209
29190ION     NA48044  15.726  17.259   5.617 -0.3564 -0.1957 -0.0231
29191ION     NA48045  15.171  17.963  10.706  0.0695 -0.1369 -0.0070
29192ION     NA48046  17.166   1.892   0.465 -0.1247  0.1350 -0.1203
29193ION     NA48047   7.771  11.742   5.763 -0.2099 -0.0387 -0.0406
29194ION     NA48048  13.712  15.970   3.977 -0.3066  0.1438 -0.0415
29195ION     NA48049  10.949  15.287  10.928 -0.3830 -0.0759 -0.2910
29196ION     NA48050   6.838  12.943   5.925  0.2485  0.1300 -0.3200
29197ION     NA48051  11.742   9.438   3.301  0.2689 -0.2180 -0.1839
29198ION     NA48052   2.578   4.696   5.281 -0.3532  0.0246 -0.1157
29199ION     NA48053   7.872  10.674   5.923  0.0801  0.1647 -0.0672
29200ION     NA48054  17.830  15.109  15.131 -0.1357 -0.0897 -0.2397
29201ION     NA48055  14.129   1.905  10.926 -0.0660 -0.1501  0.2165
29202ION     NA48056  12.260  10.297  15.016 -0.3118 -0.1151  0.0958
29203ION     NA48057   0.762   7.900   2.517  0.2054 -0.0141  0.0229
29204ION     NA48058  10.280  16.543  15.194  0.2024  0.0480  0.0319
29205ION     NA48059  16.599  10.193   5.530 -0.1022  0.2420 -0.2653
29206ION     NA48060   3.855  10.024  10.430 -0.0152 -0.0049 -0.0196
29207ION     NA48061  13.843  12.971  10.967 -0.1477  0.1095 -0.2549
29208ION     NA48062   3.401  14.526   5.263 -0.0192  0.1142 -0.0948
29209ION     NA48063   6.146   7.082   4.567  0.0776  0.0767 -0.0791
29210ION     NA48064   0.540  13.127   1.459  0.0638  0.0934 -0.0225
29211ION     NA48065   4.745   5.080  10.703  0.0831 -0.2326  0.0692
29212ION     NA48066  13.871  10.188   5.530  0.0696 -0.1995 -0.0590
29213ION     NA48067  11.398   3.794  10.733  0.1974 -0.2568  0.1408
29214ION     NA48068   8.005   2.462  15.138  0.3059  0.1052  0.0127
29215ION     NA48069   2.814   6.093   5.251  0.5260  0.0557 -0.1727
29216ION     NA48070  14.252   7.634  10.554  0.2183  0.3020 -0.0529
29217ION     NA48071  17.947  11.883  14.905 -0.1484 -0.0464  0.0302
29218ION     NA48072   4.759  15.509  13.220  0.1922  0.1448  0.0412
29219ION     NA48073  14.288  12.792   0.791  0.1477  0.4627 -0.4334
29220ION     NA48074   3.900  11.870   5.317 -0.1500 -0.0942 -0.0775
29221ION     NA48075  16.323  18.017  10.872 -0.0290  0.2534  0.1607
29222ION     NA48076  14.201   6.164   0.097 -0.0423 -0.3171  0.2180
29223ION     NA48077   1.413   3.586   4.943 -0.2090  0.0230  0.0157
29224ION     NA48078   2.376  12.916   5.782  0.0048 -0.3518 -0.0275
29225ION     NA48079   7.111   7.772  13.765  0.0380 -0.0868  0.0467
29226ION     NA48080  15.852   4.111  11.041 -0.0378  0.0190 -0.1803
29227ION     NA48081   1.615   4.656  10.502 -0.1972  0.1619  0.0387
29228ION     NA48082   7.471  16.068  16.044 -0.0692 -0.0673  0.2587
29229ION     NA48083  16.822  16.075  11.202  0.2394 -0.2047 -0.0726
29230ION     NA48084  17.303  10.613  15.501  0.1038 -0.5551 -0.0233
29231ION     NA48085   0.510   2.126   3.776  0.1418 -0.1523  0.0616
29232ION     NA48086   8.320   9.026   0.606  0.0231  0.0967 -0.1954
29233ION     NA48087   6.276  10.516   2.027  0.4307 -0.0592  0.2839
29234ION     NA48088  16.845   6.805   0.070  0.1705  0.1044 -0.0018
29235ION     NA48089  17.883   5.239   3.436  0.0317  0.1720  0.0519
29236ION     NA48090   4.350   4.076  12.763  0.3607 -0.1009  0.0379
29237ION     NA48091   7.947  13.120  10.541  0.0894  0.0558  0.2419
29238ION     NA48092  16.221   9.206   3.247 -0.2475  0.3065 -0.1832
29239ION     NA48093  16.990   7.312   3.097 -0.3121  0.1177  0.0314
29240ION     NA48094  10.733   3.950   4.429  0.0230  0.2160  0.0379
29241ION     NA48095  13.879   1.241   1.053  0.2100 -0.2609  0.3498
29242ION     NA48096   2.765   2.519   5.472  0.3278 -0.0008 -0.0346
29243ION     NA48097   9.841   5.613   5.451 -0.0492 -0.0128 -0.2785
29244ION     NA48098   2.216   6.815   0.854 -0.0633  0.3291  0.0455
29245ION     NA48099   4.033   3.171   0.049  0.3769  0.0019 -0.0239
29246ION     NA48100  12.464   3.002  10.294 -0.1558 -0.2821 -0.0968
29247ION     NA48101   2.368   6.324   0.901  0.1024  0.0937  0.2042
29248ION     NA48102  13.060  14.339   5.939 -0.1887 -0.1510 -0.0437
29249ION     NA48103   8.942  11.433  12.853 -0.0343  0.2927  0.0610
29250ION     NA48104  15.628   8.370   3.262  0.1031 -0.1869 -0.0641
29251ION     NA48105   1.402  15.758  10.868 -0.2502 -0.2867  0.0912
29252ION     NA48106   7.125  10.722  11.051  0.0631  0.0335  0.0053
29253ION     NA48107   3.935   0.722  11.509  0.2740  0.0506  0.1354
29254ION     NA48108  17.232   1.015  14.592 -0.0811  0.1136  0.0140
29255ION     NA48109  15.768   0.008  15.840  0.0294  0.1460  0.0692
29256ION     NA48110   0.871   3.159  11.452 -0.0576  0.1206  0.0767
29257ION     NA48111   5.270  11.616   4.089 -0.3425  0.2015  0.0706
29258ION     NA48112  14.970   7.220   0.161  0.1823 -0.1909 -0.2299
29259ION     NA48113  13.127   4.966   3.888  0.0903  0.0940  0.1213
29260ION     NA48114  12.504   5.373  13.944  0.2007 -0.3292  0.2664
29261ION     NA48115  10.665  12.450   0.553  0.1806 -0.1236  0.2116
29262ION     NA48116   4.372   8.574  10.481  0.1320 -0.1848 -0.1316
29263ION     NA48117   3.576  10.278   0.639 -0.0044 -0.1902 -0.2940
29264ION     NA48118  17.412  10.622   5.617  0.0622 -0.0435  0.0005
29265ION     NA48119  11.608   3.889  15.157  0.1397  0.0139  0.1953
29266ION     NA48120   2.353   9.833  10.996  0.1630 -0.0667  0.1397
29267ION     NA48121  12.093   9.707  10.997 -0.0367 -0.1288  0.1427
29268ION     NA48122   7.749   9.582  10.687  0.0926  0.4037  0.0413
29269ION     NA48123   6.238   5.117  10.683  0.1231  0.1148  0.0197
29270ION     NA48124   4.263  14.647   5.619 -0.1997 -0.3749  0.3089
29271ION     NA48125  12.953  10.053   5.553  0.3398  0.1961 -0.0120
29272ION     NA48126  10.544   7.336   5.261  0.0895 -0.0424 -0.1633
29273ION     NA48127   1.880   6.047   5.141  0.1869 -0.2255  0.2042
29274ION     NA48128   7.661  13.052  15.926 -0.1248 -0.1426 -0.4828
29275ION     NA48129   4.802   4.560   1.086  0.1288 -0.1112  0.0855
29276ION     NA48130   8.069  15.789   3.523 -0.1527 -0.1182 -0.0051
29277ION     NA48131  11.223   2.854  12.143  0.1735 -0.0536  0.2434
29278ION     NA48132  10.285  17.846  10.728  0.2378 -0.0207 -0.0797
29279ION     NA48133   2.947   3.717   4.173  0.0701 -0.0557 -0.1076
29280ION     NA48134   9.888  13.796  13.990 -0.1078 -0.1130  0.0116
29281ION     NA48135  13.844   1.578  13.685 -0.0857 -0.1908  0.1293
29282ION     NA48136   3.024   5.258   4.279 -0.0085 -0.1301 -0.1223
29283ION     NA48137   9.534   9.330   1.256  0.1383  0.0611 -0.0562
29284ION     NA48138   9.602   7.262   1.264  0.0956 -0.0506 -0.3673
29285ION     NA48139  15.058  17.597   0.844 -0.1697 -0.0546 -0.1922
29286ION     NA48140   4.918   9.378  14.671 -0.1943 -0.0345  0.2041
29287ION     NA48141  13.808   8.644   4.555 -0.1436 -0.1496  0.0347
29288ION     NA48142  12.553  16.039   0.470 -0.2471  0.2363  0.0754
29289ION     NA48143  10.417   6.077   1.500 -0.2641  0.3213 -0.1841
29290ION     NA48144   4.914   6.019  13.764 -0.0076 -0.1560 -0.0312
29291ION     NA48145  13.788   6.863   5.548  0.0831  0.0478  0.3234
29292ION     NA48146   3.702   3.912  15.632 -0.0215 -0.0196  0.1143
29293ION     NA48147   8.222   0.860   6.231  0.1338 -0.3264  0.0578
29294ION     NA48148  15.744  10.306   5.658 -0.0382 -0.0158 -0.0878
29295ION     NA48149   4.977  16.259  10.882 -0.1912  0.4510 -0.0100
29296ION     NA48150   6.078   1.750  15.905 -0.2596  0.3796 -0.0836
29297ION     NA48151  16.007   4.094   5.483 -0.0890  0.1106 -0.1012
29298ION     NA48152  13.276   2.807   1.860  0.4086 -0.2872 -0.4322
29299ION     NA48153  15.422   3.470   2.522  0.0410  0.0137  0.0120
29300ION     NA48154   6.926  15.004   0.688 -0.1584  0.2142  0.1925
29301ION     NA48155   8.542  14.161  15.401  0.1574  0.0264  0.0028
29302ION     NA48156  12.193   7.414   2.148  0.0768  0.2753  0.0284
29303ION     NA48157   8.246   4.769   4.851 -0.0694  0.0281 -0.0760
29304ION     NA48158  14.883  14.154   4.358 -0.0033 -0.0498 -0.1090
29305ION     NA48159   9.053  11.536   6.066 -0.0305  0.2711 -0.2248
29306ION     NA48160  14.207  10.524   5.437  0.2525  0.2339  0.0238
29307ION     NA48161   7.047  13.294  10.740 -0.3067  0.2850  0.0363
29308ION     NA48162   8.478   4.903  14.612 -0.1970 -0.0358 -0.0305
29309ION     NA48163   5.099   2.853   1.715  0.2603  0.0129  0.1942
29310ION     NA48164   3.500  13.806   2.720 -0.1017 -0.3705  0.1579
29311ION     NA48165   7.377  11.412  11.915 -0.0470 -0.2603  0.2537
29312ION     NA48166  13.267   0.695  10.837  0.0448 -0.1540  0.2274
29313ION     NA48167   7.192   9.121  16.154  0.0914 -0.1780  0.1933
29314ION     NA48168   5.601  17.676  11.497  0.1576 -0.0563  0.0303
29315ION     NA48169  16.084   9.467   5.623 -0.1532  0.0806  0.0848
29316ION     NA48170   1.622   8.430   0.477 -0.1411  0.1040 -0.0460
29317ION     NA48171   3.911   9.162  10.205 -0.0912  0.0395  0.1248
29318ION     NA48172   6.513  15.731  11.074  0.1677  0.1601  0.1474
29319ION     NA48173   5.310  12.067   5.609  0.1202  0.0871 -0.1800
29320ION     NA48174   5.489   9.179   5.632  0.2507  0.1426  0.2414
29321ION     NA48175  17.548  10.477   1.484 -0.0444 -0.1271 -0.1834
29322ION     NA48176   1.661  10.711   2.302  0.3106 -0.3279  0.0695
29323ION     NA48177  14.184  10.204  13.745  0.2112 -0.1977 -0.0738
29324ION     NA48178  13.628  13.333  12.912 -0.1552  0.0280  0.1807
29325ION     NA48179  10.953  14.668   3.458  0.4750  0.1075  0.4263
29326ION     NA48180  10.414   9.950   5.979 -0.0834 -0.1091 -0.1562
29327ION     NA48181  14.202   7.155  15.515  0.0356  0.1454 -0.0105
29328ION     NA48182   3.902   5.027  11.016 -0.2746 -0.0576 -0.1216
29329ION     NA48183   2.003   7.329  10.275 -0.2795  0.2061 -0.2272
29330ION     NA48184   3.881   2.389  13.597 -0.0617  0.1396  0.2691
29331ION     NA48185  10.395  15.315   5.482  0.1820  0.1321  0.1017
29332ION     NA48186  12.843   1.298   2.492 -0.1258  0.2175  0.0657
29333ION     NA48187   8.808   5.231   0.475 -0.1515 -0.2556 -0.2188
29334ION     NA48188   5.918   3.952   0.876 -0.2163  0.2850 -0.0198
29335ION     NA48189   7.934   5.204   5.654  0.0152 -0.0386  0.1100
29336ION     NA48190   4.645   6.553   3.565 -0.1559  0.0683 -0.0896
29337ION     NA48191  13.447   0.898   0.451  0.0791  0.1348  0.2837
29338ION     NA48192  12.659   0.917   5.618 -0.0002 -0.0552 -0.0482
29339ION     NA48193  16.582   1.055  15.190 -0.0989  0.3018  0.2572
29340ION     NA48194   3.659  13.762  14.405 -0.2059 -0.0076 -0.2730
29341ION     NA48195  14.312  12.791   2.564  0.0296 -0.0707  0.0547
29342ION     NA48196  11.665  11.039   2.577  0.2824  0.1161  0.0119
29343ION     NA48197   5.249  13.448   4.186  0.1869 -0.1501  0.1683
29344ION     NA48198  12.240   4.482  15.571 -0.0994  0.0915  0.0663
29345ION     NA48199   6.722  10.705  12.249  0.0748 -0.0522  0.4790
29346ION     NA48200   0.934   5.456  10.390 -0.1482  0.0887 -0.0339
29347ION     NA48201  11.512   7.693   5.294  0.1045  0.1779  0.1736
29348ION     NA48202   3.130   4.023  11.077 -0.3149  0.0414  0.0600
29349ION     NA48203   5.818  17.259  15.680  0.0637  0.2519  0.4342
29350ION     NA48204   7.295   4.451   3.821  0.0659 -0.0448  0.2028
29351ION     NA48205  13.608   0.729  11.982 -0.0682 -0.2537 -0.0006
29352ION     NA48206   5.002   6.706  11.949  0.1223  0.0413  0.0437
29353ION     NA48207   7.196  13.774   5.122 -0.0374 -0.1199  0.0012
29354ION     NA48208   9.391  15.029  14.227  0.1100  0.1046 -0.1346
29355ION     NA48209   2.146  17.719   1.858  0.1134  0.1601 -0.0205
29356ION     NA48210   9.621  13.041  12.667  0.0271 -0.0020  0.2668
29357ION     NA48211   4.346   6.325   5.332 -0.1734  0.2727 -0.2033
29358ION     NA48212  16.826  10.434  14.220  0.0434  0.2920 -0.1436
29359ION     NA48213  12.529  17.843   4.074 -0.0718  0.0205  0.1631
29360ION     NA48214  17.172   2.546   2.234  0.0936  0.0910  0.1966
29361ION     NA48215  12.293   1.774   5.480 -0.2161  0.0031  0.1068
29362ION     NA48216   2.839  12.700  15.886  0.2663 -0.2722  0.0737
29363ION     NA48217   9.474   3.839  10.722  0.0928 -0.0119 -0.0606
29364ION     NA48218  17.617   6.796   0.835 -0.4393  0.0484 -0.0356
29365ION     NA48219   6.775   6.640  10.715 -0.0405 -0.0489  0.3349
29366ION     NA48220   6.927   3.360   5.556 -0.2399 -0.0368 -0.1895
29367ION     NA48221  14.698  13.082   5.910  0.0862  0.1244  0.0734
29368ION     NA48222  11.831  15.051  11.066  0.0586 -0.1168  0.0247
29369ION     NA48223   9.088   7.829   0.289 -0.0182 -0.1399  0.1815
29370ION     NA48224   5.587  13.103   2.556 -0.1892 -0.0373  0.0160
29371ION     NA48225   2.468  13.799   5.497 -0.2807  0.2846  0.0392
29372ION     NA48226  14.645   6.889   2.115  0.0205 -0.1487  0.1064
29373ION     NA48227  13.924   5.051  13.162  0.0940  0.4057 -0.2062
29374ION     NA48228   9.153   7.290  12.441 -0.0705  0.0472  0.1473
29375ION     NA48229  17.080   1.031   2.497 -0.2168 -0.1934 -0.0993
29376ION     NA48230  10.726   4.169   5.255 -0.0967 -0.1827  0.0240
29377ION     NA48231  10.046  16.547   1.585  0.2579  0.0119 -0.0292
29378ION     NA48232  13.218  13.019  12.219  0.0136  0.2088 -0.1975
29379ION     NA48233   1.927  12.559  10.578 -0.0108  0.1637 -0.1962
29380ION     NA48234   7.108   8.976   5.653  0.0860  0.1071 -0.0430
29381ION     NA48235   1.157  14.871  10.648  0.0333 -0.1629 -0.1686
29382ION     NA48236  16.286   6.525   0.887 -0.0095  0.2301  0.0741
29383ION     NA48237  11.871   5.383   2.063 -0.0769  0.2141 -0.1230
29384ION     NA48238  14.516  16.282   5.480 -0.0297  0.0913  0.0543
29385ION     NA48239   5.048   0.695   5.280 -0.0308  0.0158  0.0565
29386ION     NA48240  13.358  15.877   1.060 -0.2756 -0.0764  0.0590
29387ION     NA48241   5.675   2.786   5.611 -0.0637 -0.2961  0.0721
29388ION     NA48242  16.729  10.032  15.007  0.2726  0.0304 -0.1209
29389ION     NA48243   1.951   7.694  16.019  0.2487  0.0283 -0.1954
29390ION     NA48244   9.779  13.587  10.631 -0.0846 -0.3014 -0.2365
29391ION     NA48245  12.737  16.924  10.634  0.0380 -0.2529  0.1303
29392ION     NA48246  11.004   8.599   0.731 -0.2072  0.1570  0.1287
29393ION     NA48247  15.415   0.772  15.981 -0.0964 -0.1266  0.2003
29394ION     NA48248  14.763   6.406  14.108  0.0079 -0.0521 -0.3396
29395ION     NA48249   3.709   5.652   5.334 -0.4103 -0.0897 -0.0094
29396ION     NA48250  14.940  17.626   2.950  0.0846  0.1766  0.2237
29397ION     NA48251   6.939  11.936   5.893 -0.0097  0.2624 -0.1667
29398ION     NA48252  16.044   9.032   4.855  0.2652  0.5654 -0.0582
29399ION     NA48253   0.925   9.830  11.139 -0.2905  0.0296 -0.1045
29400ION     NA48254   8.198  16.168   5.797 -0.5011  0.2054 -0.0874
29401ION     NA48255  12.145  14.247  12.942  0.1382  0.4961  0.2587
29402ION     NA48256  14.914   4.423  10.660 -0.2898 -0.1771  0.0229
29403ION     NA48257   0.244  12.362   3.094 -0.3235  0.2229  0.1648
29404ION     NA48258  10.486   2.473  14.984 -0.1070 -0.1888 -0.1424
29405ION     NA48259  12.537  11.260   3.134  0.0713 -0.1855  0.0209
29406ION     NA48260   8.356   8.675  14.680  0.0518  0.0944  0.2380
29407ION     NA48261   9.042   8.744  10.868 -0.1638 -0.0485 -0.0755
29408ION     NA48262  16.837   4.159   0.405 -0.1553 -0.0623  0.0184
29409ION     NA48263   9.704  13.460  15.043 -0.0605 -0.1890  0.3626
29410ION     NA48264   1.302   3.946  11.928 -0.4592  0.0808 -0.1655
29411ION     NA48265   1.928   9.042  10.705 -0.0631 -0.2081  0.0122
29412ION     NA48266  11.447  17.901  10.728  0.0681  0.0975  0.0820
29413ION     NA48267   2.737   8.792  15.048 -0.0902  0.1665 -0.0761
29414ION     NA48268   0.041   3.414   3.636  0.0301 -0.2359  0.0393
29415ION     NA48269  15.801   1.087   5.320 -0.1771 -0.3300 -0.0225
29416ION     NA48270  17.598  17.127  10.923 -0.4945  0.0579 -0.1335
29417ION     NA48271   8.939  12.009   2.893  0.0961 -0.1513 -0.0012
29418ION     NA48272   7.938   6.241   4.645 -0.2341  0.0676 -0.1021
29419ION     NA48273  15.865   7.000  13.008  0.0717  0.1540 -0.0773
29420ION     NA48274   4.085  16.132  10.971  0.1625  0.0563  0.2029
29421ION     NA48275  13.616   9.349  13.154 -0.0273 -0.0128  0.2395
29422ION     NA48276   6.115  17.913  14.898  0.1548  0.2600 -0.1957
29423ION     NA48277   6.572   1.605   3.531 -0.2886  0.2200 -0.1004
29424ION     NA48278   3.487   6.406  14.738  0.3486  0.2261  0.0072
29425ION     NA48279   5.188  17.120  10.855  0.2036 -0.0110  0.0664
29426ION     NA48280  17.360  17.904  14.151 -0.2074 -0.1978 -0.2190
29427ION     NA48281   4.539   7.721  15.855  0.2661 -0.1495 -0.1748
29428ION     NA48282   3.243   5.234   5.526 -0.2068  0.2127 -0.1651
29429ION     NA48283  15.408   4.581   2.878 -0.0264 -0.0724 -0.1589
29430ION     NA48284  12.876   3.256  10.489 -0.1527 -0.0916  0.1676
29431ION     NA48285  10.267  17.666   0.934  0.0049  0.1710  0.2047
29432ION     NA48286  17.175   2.117   1.515  0.3892 -0.0302  0.0249
29433ION     NA48287  13.346   1.511  14.966 -0.2077 -0.0423  0.0476
29434ION     NA48288   7.633  14.186  16.003 -0.0340  0.0539 -0.2344
29435ION     NA48289  16.554  13.022  15.543 -0.1717 -0.2250  0.1196
29436ION     NA48290   7.137   1.874  13.750 -0.0835 -0.0027 -0.2696
29437ION     NA48291   0.091  10.850   3.700 -0.0571  0.1280  0.3785
29438ION     NA48292   7.321   5.292  15.026  0.3770  0.0849 -0.1854
29439ION     NA48293   7.062  13.460   3.841 -0.1604  0.0476  0.0180
29440ION     NA48294  17.850  13.994  11.697  0.1282  0.0079  0.1045
29441ION     NA48295  16.342   7.974   0.469 -0.0707 -0.0129  0.2164
29442ION     NA48296   9.736   4.811   2.209  0.3973  0.0441  0.1500
29443ION     NA48297  14.825   8.393  10.493  0.1896 -0.0455 -0.1043
29444ION     NA48298   8.767   3.142   1.261  0.1105 -0.2016  0.1954
29445ION     NA48299   9.822   9.164   5.731  0.0051 -0.1092  0.1741
29446ION     NA48300   1.823  15.888   5.773  0.0936  0.0184 -0.3264
29447ION     NA48301  11.188  13.292   5.675 -0.2438 -0.1138 -0.0043
29448ION     NA48302   0.982   1.197   3.728  0.1219 -0.2123 -0.1584
29449ION     NA48303   1.907   5.871  14.902 -0.1885 -0.0320 -0.0769
29450ION     NA48304   4.942   9.304  13.146  0.1483  0.3436  0.1927
29451ION     NA48305  13.674   4.469   2.297 -0.1022 -0.2346  0.2461
29452ION     NA48306   8.377   6.252   5.376 -0.1482  0.0590 -0.0168
29453ION     NA48307   5.606   4.399  10.576  0.3261  0.0140  0.1519
29454ION     NA48308  13.142  14.241  15.149  0.2586 -0.1312 -0.0278
29455ION     NA48309   3.087   9.872  11.788 -0.0919  0.1593 -0.0419
29456ION     NA48310   7.619   3.463   3.862  0.1464  0.0579 -0.0778
29457ION     NA48311   8.379   9.286   2.081  0.1960 -0.1117 -0.0126
29458ION     NA48312   4.971  13.181  15.909 -0.0008 -0.0260 -0.0801
29459ION     NA48313  16.789  13.134   0.542 -0.0248  0.0304 -0.0643
29460ION     NA48314   6.299  11.422  11.702 -0.3105 -0.0673  0.4050
29461ION     NA48315  17.978   0.965   5.091 -0.2156 -0.2044 -0.4215
29462ION     NA48316  17.088  17.026   5.817  0.0217  0.0944 -0.1459
29463ION     NA48317   7.236  16.536   2.956 -0.0082 -0.2696 -0.0707
29464ION     NA48318   2.229   1.435   2.421  0.0241 -0.2486  0.0451
29465ION     NA48319  14.194   4.808   1.076 -0.4143 -0.2047  0.1097
29466ION     NA48320  10.894   0.042   5.465  0.3183  0.0209 -0.3107
29467ION     NA48321  15.393  12.997  14.952  0.1858 -0.0362 -0.0529
29468ION     NA48322  10.802   2.625  16.172 -0.0888 -0.1080 -0.2202
29469ION     NA48323  14.384  11.800   0.481 -0.3748  0.1310 -0.1596
29470ION     NA48324  17.773   7.317  15.516 -0.2015  0.0048 -0.2187
29471ION     NA48325   1.030   2.162   5.513  0.0912  0.1680  0.2649
29472ION     NA48326   9.739   8.680   4.266  0.3304  0.1883  0.3254
29473ION     NA48327  15.085   8.891  10.556 -0.1553 -0.2032 -0.1598
29474ION     NA48328   7.326  17.415   0.681  0.0429  0.2642 -0.2057
29475ION     NA48329  10.250   7.917   0.639  0.2194  0.0062 -0.2145
29476ION     NA48330   2.677   1.326  12.549  0.0046 -0.1410 -0.1617
29477ION     NA48331  14.258  12.262  10.782  0.1296 -0.0802  0.1465
29478ION     NA48332  12.105   0.021   5.619  0.1343 -0.1077 -0.1139
29479ION     NA48333  17.378  13.792   5.996 -0.0742  0.1445 -0.0018
29480ION     NA48334   3.775   7.401  10.761  0.1844 -0.2384 -0.0966
29481ION     NA48335   5.992  10.737  14.925 -0.2690 -0.2282  0.0192
29482ION     NA48336   9.078   3.120  15.841 -0.0389  0.1152 -0.4384
29483ION     NA48337  10.085   6.333  10.618 -0.0088  0.0798  0.2187
29484ION     NA48338  16.166   7.112   1.500  0.0394  0.1176 -0.0274
29485ION     NA48339   3.309  11.408  10.454 -0.4165 -0.1857 -0.0321
29486ION     NA48340   8.885   6.056   0.420  0.1630  0.0172  0.2782
29487ION     NA48341  16.068  16.003  10.905  0.1255 -0.0636  0.2365
29488ION     NA48342   6.244  12.930  10.842 -0.3552  0.0404  0.1769
29489ION     NA48343  18.022   9.390  14.495 -0.2102 -0.1145  0.0188
29490ION     NA48344  13.663   7.545   0.036 -0.1308  0.2741 -0.1645
29491ION     NA48345   7.494  11.757  14.287 -0.0850  0.2131  0.0527
29492ION     NA48346  17.783   0.315   1.894 -0.1634 -0.0438  0.1624
29493ION     NA48347   3.334   5.714  10.641  0.0270 -0.1124 -0.1144
29494ION     NA48348  16.367  15.363  11.650 -0.1875  0.2146 -0.0195
29495ION     NA48349  17.307  13.153  14.302 -0.1152 -0.0722  0.2279
29496ION     NA48350  16.045   4.785   5.044 -0.0388  0.0243  0.0897
29497ION     NA48351  15.857  10.688  12.932 -0.1694 -0.0312  0.0056
29498ION     NA48352   9.313   2.715  12.649 -0.1729  0.1169 -0.0638
29499ION     NA48353   0.614  14.478  12.909 -0.1833 -0.1884 -0.0437
29500ION     NA48354   4.069   2.471  10.648 -0.0464 -0.0621 -0.1029
29501ION     NA48355  10.948  11.081   5.810  0.0514 -0.0544  0.2859
29502ION     NA48356   1.203   3.045  16.099  0.1340  0.0971  0.2558
29503ION     NA48357   9.837   0.310  14.760 -0.1297 -0.0188 -0.2845
29504ION     NA48358  15.133  10.468  14.729 -0.0797  0.1562 -0.4181
29505ION     NA48359  17.810   9.764  11.492  0.1772  0.0391  0.0987
29506ION     NA48360  14.639   4.709   5.505  0.2337 -0.1067 -0.1632
29507ION     NA48361   3.953   5.023  14.526  0.0856 -0.2649 -0.2505
29508ION     NA48362   6.002   2.744  10.740  0.0437 -0.0924  0.0821
29509ION     NA48363  14.758   1.298  14.501  0.0038 -0.2711 -0.0788
29510ION     NA48364   8.850   7.744   1.245  0.1888 -0.1692 -0.0004
29511ION     NA48365   8.430  14.027  10.497 -0.0098 -0.2616 -0.4112
29512ION     NA48366   3.161   3.844  14.415  0.0345  0.1804  0.2350
29513ION     NA48367   4.810  17.041   5.806  0.1850 -0.3266  0.0354
29514ION     NA48368   7.784   0.154  15.060  0.0690  0.2309  0.1371
29515ION     NA48369  14.228  11.414   5.460 -0.3482 -0.2174  0.1594
29516ION     NA48370   2.916   9.157  10.737  0.0530  0.1767  0.0901
29517ION     NA48371  11.644   7.949   0.969 -0.3629  0.1361  0.0940
29518ION     NA48372   4.143  15.316   0.126 -0.1391 -0.1660  0.0208
29519ION     NA48373  13.207   0.872  12.992 -0.1990  0.1711  0.1398
29520ION     NA48374   5.695   1.257   5.715 -0.0522  0.2285  0.0679
29521ION     NA48375   2.915  14.043  15.053 -0.1747  0.1715  0.0071
29522ION     NA48376   3.724   0.735  14.643  0.0766  0.3974 -0.1867
29523ION     NA48377   9.707   7.177  10.527 -0.1725  0.0334 -0.1403
29524ION     NA48378   8.102  12.014  15.855  0.1218 -0.0847  0.2511
29525ION     NA48379   8.763  10.120   5.972 -0.1761  0.0269 -0.0525
29526ION     NA48380  15.108   3.970   1.635 -0.0045  0.0981 -0.0752
29527ION     NA48381  10.638   6.539   5.331 -0.2012 -0.0643  0.2807
29528ION     NA48382  10.047   0.883   1.433  0.1753 -0.0064  0.1630
29529ION     NA48383  11.435  17.473   5.628 -0.1135 -0.0038  0.3382
29530ION     NA48384  17.048   6.416  13.180  0.0190  0.0292 -0.2471
29531ION     NA48385  11.311  16.916   1.725  0.0686  0.0421  0.1054
29532ION     NA48386  15.002  11.583  10.937  0.3539 -0.3629  0.4238
29533ION     NA48387  13.863   9.303   2.662 -0.0261 -0.0142  0.0642
29534ION     NA48388  15.392  12.697   1.656 -0.1838 -0.2259 -0.1492
29535ION     NA48389   5.888   0.814   0.279  0.1188 -0.0243 -0.2112
29536ION     NA48390  12.153  13.188   5.676 -0.2114 -0.2145  0.0583
29537ION     NA48391  10.355   8.787   1.479 -0.0991  0.0273  0.0785
29538ION     NA48392   9.778   5.038  14.407  0.1637 -0.1174 -0.3820
29539ION     NA48393   0.629  15.402   5.320  0.0478 -0.0624  0.1582
29540ION     NA48394  14.401   0.722   2.646  0.0150 -0.0926 -0.2459
29541ION     NA48395   2.494  15.004   2.775 -0.3016 -0.2598  0.0649
29542ION     NA48396   3.993  13.597   0.878 -0.0955 -0.2445  0.1268
29543ION     NA48397   0.921   4.052   1.551 -0.0666  0.1317  0.2940
29544ION     NA48398   1.091  15.320   5.703 -0.0301 -0.0056  0.0228
29545ION     NA48399  17.563  11.788  10.810 -0.1699 -0.0379 -0.0658
29546ION     NA48400   3.243  17.135  15.588 -0.0364 -0.1842 -0.0377
29547ION     NA48401   8.800   4.961   5.596  0.0013 -0.2460 -0.0331
29548ION     NA48402  16.623   6.210  10.350 -0.2977 -0.0427 -0.0571
29549ION     NA48403  17.747  13.854  15.685  0.2351 -0.3944 -0.0160
29550ION     NA48404   7.126   4.631  10.879  0.1256 -0.0088 -0.0292
29551ION     NA48405   1.966   3.391  14.470  0.1231  0.0423  0.2443
29552ION     NA48406   5.766   4.993   4.294 -0.1424  0.2512 -0.3122
29553ION     NA48407  17.699  11.675   0.888  0.1565 -0.1208 -0.1441
29554ION     NA48408  13.220   6.660   1.456 -0.2477  0.3536 -0.0670
29555ION     NA48409   6.982  14.441  10.639 -0.1175 -0.2924 -0.2084
29556ION     NA48410  12.283   6.427  15.885  0.1354  0.1445 -0.0328
29557ION     NA48411  13.915  16.715   2.468  0.0669  0.2922 -0.0116
29558ION     NA48412   1.631   9.779  10.483  0.1437 -0.3679  0.1041
29559ION     NA48413  14.817   3.534   0.300  0.2140  0.3653  0.1105
29560ION     NA48414   4.271  12.271  14.824 -0.2658 -0.3498 -0.0491
29561ION     NA48415   1.060   3.253   4.278 -0.0603  0.0910  0.1831
29562ION     NA48416   2.445  14.295   4.095  0.0751 -0.0888  0.1122
29563ION     NA48417  16.309   5.905  14.200 -0.3574 -0.0149 -0.2354
29564ION     NA48418   9.126  15.659   3.622 -0.0687  0.1955  0.1265
29565ION     NA48419   3.556  17.377   5.731 -0.0448 -0.2357  0.0444
29566ION     NA48420  11.035   1.566   2.620 -0.0812 -0.1576 -0.1692
29567ION     NA48421   8.095  15.436  10.671  0.5640  0.1146 -0.1976
29568ION     NA48422   3.142   2.750  14.614 -0.1413  0.1351  0.3525
29569ION     NA48423   0.429  10.267   3.155 -0.1212  0.1558 -0.0317
29570ION     NA48424   0.979  16.466   5.778 -0.1422 -0.0950 -0.1370
29571ION     NA48425  12.421   0.028  15.381 -0.1544  0.1378 -0.2246
29572ION     NA48426  10.074   3.940   5.568 -0.1319  0.0975 -0.0208
29573ION     NA48427   5.237   2.677  10.771 -0.2325 -0.3882 -0.1244
29574ION     NA48428  13.320   7.927  14.941  0.2300  0.0155 -0.6340
29575ION     NA48429   1.544  10.199  15.396 -0.0950  0.0396 -0.1117
29576ION     NA48430   8.750   4.482  10.737  0.3140  0.0637 -0.0956
29577ION     NA48431  12.088  17.803   0.604 -0.0777  0.0903  0.1042
29578ION     NA48432   7.410  15.036  13.500 -0.2767  0.1682 -0.0680
29579ION     NA48433   7.781   6.528  10.664  0.4257  0.3449 -0.0290
29580ION     NA48434  17.801   7.442   3.337  0.1392 -0.1948  0.3504
29581ION     NA48435  11.887  10.919   0.296  0.2934 -0.0926  0.0483
29582ION     NA48436  16.581   6.784  12.187  0.2771  0.1177 -0.1895
29583ION     NA48437  13.508   2.597  15.472  0.0275 -0.3033  0.1331
29584ION     NA48438   7.188   3.919  14.391 -0.0718 -0.3717 -0.3096
29585ION     NA48439  16.335   0.072  12.829  0.3480  0.1600 -0.0395
29586ION     NA48440  14.339   8.112  13.828  0.1004 -0.3284  0.0280
29587ION     NA48441  13.658   3.995   0.687 -0.0071 -0.0986 -0.0256
29588ION     NA48442   5.527  14.777  11.016  0.0899 -0.3030  0.1308
29589ION     NA48443   0.146   3.289   1.443  0.3246 -0.1331 -0.0137
29590ION     NA48444   2.064   2.449  10.943  0.2966  0.2569  0.0876
29591ION     NA48445   0.912   2.248  10.975 -0.1554 -0.1291 -0.1036
29592ION     NA48446   0.627   3.806   0.234  0.1252  0.0194  0.1710
29593ION     NA48447  15.037  13.105  15.842 -0.0624  0.3666 -0.1054
29594ION     NA48448  17.768  10.886  10.527  0.1607  0.1755 -0.1885
29595ION     NA48449  14.760  16.455   0.350  0.2232  0.1415 -0.0282
29596ION     NA48450   8.824  11.971  10.722 -0.1581 -0.2375  0.0029
29597ION     NA48451  16.609   2.043   5.535 -0.0535 -0.3207  0.0084
29598ION     NA48452   1.517   6.968   5.063 -0.0656 -0.0933 -0.1155
29599ION     NA48453   8.202   9.808  15.731 -0.0099  0.1110  0.2770
29600ION     NA48454   6.184   7.899   3.036 -0.3231  0.0849  0.0391
29601ION     NA48455  13.638  12.662   4.774  0.1946  0.3272 -0.0008
29602ION     NA48456   7.645   8.770   3.734  0.0903 -0.0419  0.0406
29603ION     NA48457  15.436  18.019   5.585  0.1263 -0.0765  0.1907
29604ION     NA48458  12.115   3.845  10.606  0.2535  0.2302 -0.0431
29605ION     NA48459  11.780  16.746   3.683 -0.1127  0.0211  0.1594
29606ION     NA48460  10.949  17.417  11.249 -0.1410 -0.0523  0.1291
29607ION     NA48461  15.100   1.859  12.288  0.0787 -0.5251  0.0530
29608ION     NA48462  17.154  13.091  12.201 -0.1613 -0.0575 -0.2171
29609ION     NA48463   9.203   7.009   4.459  0.1490  0.2114 -0.0993
29610ION     NA48464   3.725   9.514  15.790  0.0406  0.2193  0.2523
29611ION     NA48465   4.575  16.945  16.131 -0.1596 -0.1563 -0.0585
29612ION     NA48466  17.232   9.188  12.650 -0.0052 -0.3133 -0.0183
29613ION     NA48467   6.681  14.585  15.123 -0.0309 -0.0382 -0.0007
29614ION     NA48468   8.044   2.224   5.796  0.0989 -0.2154 -0.0056
29615ION     NA48469   8.685  15.298   0.772  0.0337  0.1194 -0.0642
29616ION     NA48470   3.596   2.256   5.467  0.1579 -0.0104 -0.0008
29617ION     NA48471   5.366  12.614   0.695 -0.2156 -0.1758 -0.0197
29618ION     NA48472  11.058  13.699  10.923 -0.1490  0.0313 -0.0785
29619ION     NA48473   3.918  13.725   5.669  0.0746  0.1037  0.0811
29620ION     NA48474   4.712   7.563   1.073  0.1284 -0.0794 -0.0210
29621ION     NA48475  16.532  15.361  10.635  0.1725  0.2619 -0.3155
29622ION     NA48476  10.484  10.676   1.991 -0.1240  0.0154 -0.0473
29623ION     NA48477  11.368   3.252   5.210  0.0665  0.0095 -0.2916
29624ION     NA48478   8.641   2.770   5.496 -0.1157  0.1143  0.1758
29625ION     NA48479   4.189   6.452   0.102  0.0512 -0.0563  0.1523
29626ION     NA48480  12.038   1.282   4.329 -0.0965 -0.0661  0.1627
29627ION     NA48481  14.170  13.400  13.565  0.1346 -0.0632  0.0432
29628ION     NA48482  11.437  13.861   5.577  0.1316  0.1420  0.1478
29629ION     NA48483  17.443  10.161  12.951 -0.0922 -0.1296 -0.0153
29630ION     NA48484   4.209  17.177  13.539  0.0157  0.0413  0.0180
29631ION     NA48485  15.348  15.578   5.726  0.2113  0.1912  0.3562
29632ION     NA48486   7.377  14.298   1.975 -0.0825  0.0253 -0.2277
29633ION     NA48487  14.099  10.433   3.911 -0.0942 -0.0232 -0.0501
29634ION     NA48488   5.247   7.761   5.596  0.0876  0.0183  0.0236
29635ION     NA48489   4.811  13.979   5.472 -0.0063  0.0652 -0.2689
29636ION     NA48490  16.143   8.502   5.614 -0.5953  0.3185 -0.1170
29637ION     NA48491  16.514   7.990  15.714 -0.1712  0.1566  0.0035
29638ION     NA48492  12.164   3.169   5.543 -0.0224 -0.0415  0.0800
29639ION     NA48493   8.575  14.537  12.724 -0.0879 -0.0512  0.1139
29640ION     NA48494   9.973  15.888  15.161  0.1312  0.5827  0.4532
29641ION     NA48495  16.538  10.258   4.643  0.1512  0.0194 -0.0759
29642ION     NA48496  12.166   6.927   0.699  0.0369  0.0305 -0.0722
29643ION     NA48497  12.351   4.684   4.961  0.0345  0.0795 -0.2573
29644ION     NA48498   7.155   9.234  13.397 -0.2170  0.1698 -0.2025
29645ION     NA48499   9.324   8.141  15.089  0.0137 -0.1003 -0.2082
29646ION     NA48500   8.429   0.035   0.734 -0.0948 -0.1576  0.2884
29647ION     NA48501   0.304   1.091  10.938  0.0341 -0.0958 -0.1583
29648ION     NA48502  14.216   7.954  15.418  0.0673 -0.2581 -0.0118
29649ION     NA48503   3.412   8.027  10.591 -0.0326 -0.0227  0.2345
29650ION     NA48504   1.467  15.288  14.804  0.0557  0.0981 -0.1555
29651ION     NA48505   5.589   6.782   0.592  0.6884  0.2952 -0.0683
29652ION     NA48506   4.850   8.579   5.570  0.0169  0.1472  0.0752
29653ION     NA48507  10.845   0.416   1.927  0.0021 -0.0814  0.1582
29654ION     NA48508  15.460   8.571   2.310 -0.0464 -0.2462  0.1243
29655ION     NA48509  15.043   7.576  10.159  0.1359 -0.0325 -0.0087
29656ION     NA48510  14.543  16.305  15.346  0.0628 -0.0850 -0.0256
29657ION     NA48511  12.745   0.907  15.863  0.2451  0.1083 -0.1161
29658ION     NA48512  10.320   3.187   5.282 -0.0137  0.0311  0.1458
29659ION     NA48513   6.026  11.066   5.488 -0.1073  0.0210  0.0875
29660ION     NA48514   8.778  16.895   5.649 -0.2034 -0.4244 -0.3488
29661ION     NA48515   7.914   0.743   4.367 -0.0037 -0.1643  0.0803
29662ION     NA48516   8.626   6.065   1.659 -0.0278  0.1493  0.0200
29663ION     NA48517  12.020  13.945  13.594 -0.1800 -0.0389 -0.0199
29664ION     NA48518   4.614   9.900  10.725  0.1723  0.0439 -0.0182
29665ION     NA48519   4.229  12.923   0.130 -0.1737  0.5123 -0.1182
29666ION     NA48520  13.305  11.036  14.622  0.2542  0.0647  0.3684
29667ION     NA48521  16.037  11.596   1.049 -0.0006  0.0550 -0.2684
29668ION     NA48522  12.910   6.037  10.701  0.2066 -0.3089  0.1136
29669ION     NA48523  14.475   6.378  10.272  0.0906 -0.1917 -0.4926
29670ION     NA48524   5.514  10.327  10.632  0.0412  0.4422 -0.2272
29671ION     NA48525   5.837  13.859   5.690 -0.0644 -0.1287 -0.2980
29672ION     NA48526  12.860   6.992   4.291  0.1196  0.1837  0.1730
29673ION     NA48527   1.725   8.107  10.286 -0.2486 -0.0701 -0.0491
29674ION     NA48528  15.649   9.615   3.515  0.1858 -0.0342  0.0871
29675ION     NA48529  14.597  12.276  15.703 -0.2959 -0.0792  0.0088
29676ION     NA48530  16.840   2.913  10.777 -0.0663  0.2670  0.0326
29677ION     NA48531   2.701  11.156  14.335 -0.0111  0.0411 -0.2139
29678ION     NA48532   6.967  13.969   0.503 -0.1069 -0.3926  0.0734
29679ION     NA48533  12.888  16.467   5.700  0.0113  0.2923  0.0011
29680ION     NA48534  13.649   8.807  15.968 -0.0228  0.1502  0.1439
29681ION     NA48535   9.679   1.420  10.669 -0.0837  0.1035 -0.0317
29682ION     NA48536  15.887   2.378   2.257  0.0155  0.2355 -0.4145
29683ION     NA48537  13.381   6.832  12.013  0.0249 -0.1574  0.3006
29684ION     NA48538  16.362   9.525   2.058 -0.0911 -0.1517  0.0768
29685ION     NA48539   6.582  13.242   1.635  0.0184  0.3075 -0.0936
29686ION     NA48540  10.024  17.855   5.548  0.0560 -0.1653 -0.1167
29687ION     NA48541   1.372   6.685  14.718  0.1767  0.0713  0.0336
29688ION     NA48542   1.656  14.119  13.620 -0.0897  0.2063 -0.1228
29689ION     NA48543  11.258   9.467  10.757  0.2041  0.2560 -0.1779
29690ION     NA48544   5.129  10.269  13.781 -0.1901  0.3854  0.0866
29691ION     NA48545   4.412  13.604  13.228 -0.0327  0.1079  0.0249
29692ION     NA48546  10.279  15.114   5.905  0.0343  0.3419 -0.1465
29693ION     NA48547  15.468   9.788  10.672  0.0756  0.0449  0.0443
29694ION     NA48548   5.941   0.519  11.214  0.1500 -0.1493 -0.1968
29695ION     NA48549  12.003  12.268   2.214  0.1750 -0.0802  0.0516
29696ION     NA48550  16.459  15.973  14.153  0.3255  0.0869 -0.1006
29697ION     NA48551   9.478   2.493   5.420  0.1768  0.0708  0.1290
29698ION     NA48552   1.796   6.934   0.319 -0.0780  0.0257  0.0847
29699ION     NA48553   3.296  15.769   2.271 -0.2810 -0.0656  0.1337
29700ION     NA48554   5.084   8.131   0.222  0.1065 -0.0001  0.3121
29701ION     NA48555  17.925   0.866   5.574 -0.1999  0.1196 -0.1873
29702ION     NA48556  17.002  13.064  11.000  0.1262  0.2128 -0.1360
29703ION     NA48557   4.902  10.008   0.059  0.1911 -0.2011 -0.1884
29704ION     NA48558   1.606   3.236  10.583 -0.0826  0.0849 -0.1196
29705ION     NA48559   5.551  17.730   2.812  0.0797  0.0368 -0.0361
29706ION     NA48560  14.775  15.489  10.871  0.2293  0.1711 -0.3306
29707ION     NA48561  10.848   5.814  10.622  0.1283 -0.0366 -0.0586
29708ION     NA48562  16.836  12.706   5.670  0.2576 -0.0677  0.1984
29709ION     NA48563   2.360  10.354  10.535 -0.3429 -0.0522  0.2225
29710ION     NA48564   7.078   5.459   5.548  0.1493  0.0143 -0.1678
29711ION     NA48565  12.722   6.405  14.403 -0.0230 -0.3892 -0.0305
29712ION     NA48566   6.594  17.188   2.514  0.0805 -0.1501  0.1989
29713ION     NA48567   7.678   8.395   0.269  0.0370  0.1457  0.3686
29714ION     NA48568  11.556  12.736  13.584  0.1013  0.0537 -0.0041
29715ION     NA48569   2.252   0.044  13.165  0.2865  0.1604 -0.0221
29716ION     NA48570  12.951   6.573   5.526  0.1406 -0.0668  0.0783
29717ION     NA48571   9.317   3.341   5.578 -0.3895  0.0202 -0.1039
29718ION     NA48572   3.059  13.692  15.959 -0.1074 -0.3315 -0.1197
29719ION     NA48573  13.254   4.739   5.643 -0.0289  0.0416  0.0671
29720ION     NA48574   3.934   6.288   1.731  0.2732 -0.1249  0.0398
29721ION     NA48575   7.504   0.610   0.048  0.1549 -0.0058  0.2878
29722ION     NA48576  14.876  10.758   5.781 -0.1679  0.0855 -0.4500
29723ION     NA48577   1.290   9.294   5.519  0.1684 -0.3576  0.1258
29724ION     NA48578   8.407   3.871  13.721  0.0081  0.4471  0.1237
29725ION     NA48579   3.312  16.600  11.172 -0.0871 -0.1240 -0.0885
29726ION     NA48580  16.712   0.649  13.942 -0.1167 -0.0109 -0.0985
29727ION     NA48581  10.359   7.585  11.075 -0.0716 -0.1118  0.2916
29728ION     NA48582   9.838   2.256   2.581 -0.0273 -0.4074 -0.0128
29729ION     NA48583  12.853  10.018  10.661  0.2955 -0.0757 -0.2460
29730ION     NA48584  17.565   4.143  13.388  0.1755  0.2130  0.1563
29731ION     NA48585  15.986  11.807  10.760  0.0093 -0.0438 -0.0818
29732ION     NA48586   6.344  15.196  12.444 -0.0834  0.2556 -0.0542
29733ION     NA48587  16.029   9.556  14.052 -0.1912 -0.2136  0.0256
29734ION     NA48588   8.677  17.369  16.190 -0.4202 -0.3964 -0.1965
29735ION     NA48589   7.118   0.866   5.993  0.0237 -0.0354  0.0765
29736ION     NA48590  10.409  11.303  14.773 -0.0483 -0.1209 -0.1844
29737ION     NA48591   4.584  12.243  10.744  0.1647 -0.0727  0.0951
29738ION     NA48592   5.023   6.864   5.261  0.1088 -0.0851 -0.3237
29739ION     NA48593  16.871   0.477   5.605  0.1960  0.0057 -0.0516
29740ION     NA48594   3.437   4.350  12.383  0.1203 -0.2350 -0.2170
29741ION     NA48595  10.764  15.742  13.964 -0.1351  0.1579 -0.0958
29742ION     NA48596  12.845   6.728  13.341 -0.3332 -0.0205  0.0934
29743ION     NA48597  12.711   3.959   1.268 -0.1592 -0.1738 -0.2099
29744ION     NA48598   8.761   0.199   6.024 -0.0744 -0.1431 -0.0931
29745ION     NA48599   2.086   9.922   5.462  0.3507 -0.2712 -0.2458
29746ION     NA48600   0.893   8.462   5.485 -0.1891  0.0568  0.0961
29747ION     NA48601  10.958   6.834   2.479 -0.2143 -0.2109 -0.0508
29748ION     NA48602   8.438  15.862  12.905 -0.0539 -0.1606 -0.0137
29749ION     NA48603   5.370   1.945   3.017  0.0860 -0.1558  0.2228
29750ION     NA48604   5.841  12.516   5.587  0.0593 -0.0706 -0.0876
29751ION     NA48605  11.009  14.585  11.268 -0.3216  0.3858 -0.3562
29752ION     NA48606  17.474   1.541  10.973  0.2264  0.1182  0.1778
29753ION     NA48607   7.130  11.619  10.508 -0.0652 -0.2031  0.0655
29754ION     NA48608   5.558  17.489   5.312  0.3300  0.0387 -0.0032
29755ION     NA48609  12.411   5.373  10.466 -0.2174  0.3736 -0.1085
29756ION     NA48610   9.147   9.868  11.953  0.1855 -0.0503 -0.2370
29757ION     NA48611   1.626  12.018  14.349 -0.1109  0.0730  0.2109
29758ION     NA48612  16.999  11.608  13.958  0.0386 -0.3155 -0.0947
29759ION     NA48613   4.433   6.670  10.807  0.2111  0.1158  0.3717
29760ION     NA48614  17.292   2.756   5.456 -0.2490 -0.2116  0.1068
29761ION     NA48615  11.576   5.482   0.663  0.0182 -0.3950 -0.4586
29762ION     NA48616   8.061  11.509  10.748  0.0946  0.2651  0.1155
29763ION     NA48617   2.748  10.018   5.405 -0.3188 -0.1502 -0.3338
29764ION     NA48618  16.399   7.533  10.199 -0.4457 -0.0574 -0.1257
29765ION     NA48619   5.402   1.189   2.362  0.2720 -0.2395 -0.1518
29766ION     NA48620  15.243  15.621  10.902 -0.1819 -0.1860 -0.2480
29767ION     NA48621  14.178  14.678   4.645  0.1715  0.1229 -0.0203
29768ION     NA48622   5.842   3.457  11.263  0.1082  0.0477 -0.2472
29769ION     NA48623   4.890  12.462   3.145 -0.0578  0.2254 -0.0232
29770ION     NA48624  11.606   4.531   5.518 -0.2051  0.1584  0.0413
29771ION     NA48625  10.550   2.538   5.387 -0.0513  0.0632  0.0241
29772ION     NA48626  16.296  13.670  10.989 -0.0512  0.0142 -0.1714
29773ION     NA48627   2.970   4.899  10.718  0.2585  0.0411  0.0846
29774ION     NA48628   5.676  15.431   5.541 -0.0405  0.3115  0.3873
29775ION     NA48629  10.010  11.379   5.862 -0.0835 -0.1631 -0.0825
29776ION     NA48630  14.240   0.679   5.352  0.0673 -0.1744  0.1884
29777ION     NA48631  13.090   7.573   5.646  0.0728  0.0319  0.1053
29778ION     NA48632  11.459  12.763  14.899 -0.2110 -0.2935  0.1928
29779ION     NA48633   2.273  15.874   5.533 -0.1792  0.0003  0.1824
29780ION     NA48634  10.206   8.306  12.276  0.2498 -0.0656 -0.1293
29781ION     NA48635   5.445   5.339  14.124  0.0764 -0.1535 -0.1415
29782ION     NA48636   9.950   6.759   3.781 -0.0326 -0.2787  0.0468
29783ION     NA48637  15.434   0.424   0.752 -0.1693 -0.1121 -0.1092
29784ION     NA48638   3.074   8.654   5.535 -0.1575 -0.1058 -0.0849
29785ION     NA48639  15.953  10.628  10.676  0.0924  0.0294  0.0039
29786ION     NA48640  14.030   3.711  10.630  0.1201  0.0632 -0.2563
29787ION     NA48641  17.750   8.023  10.090 -0.1932 -0.1590 -0.0063
29788ION     NA48642  13.080  13.597   5.622 -0.2845 -0.0067  0.1963
29789ION     NA48643  10.492  16.494  11.967 -0.0052  0.0427  0.2498
29790ION     NA48644  13.446  17.643  10.907  0.0630  0.0411  0.0166
29791ION     NA48645  10.358   9.106  14.664 -0.2031  0.0742 -0.1107
29792ION     NA48646   7.373  15.329  10.959 -0.2856  0.2259  0.1168
29793ION     NA48647   6.171  12.186  13.714 -0.1059  0.4001  0.1305
29794ION     NA48648  11.221   0.538   3.511  0.2501 -0.0111 -0.4329
29795ION     NA48649   5.006  17.863   5.746  0.4038 -0.1001 -0.2613
29796ION     NA48650  10.069   5.396  10.793 -0.1794  0.2488  0.0770
29797ION     NA48651   0.567  11.676   0.217 -0.0960 -0.0626 -0.1511
29798ION     NA48652  10.288  11.217  12.617  0.0971 -0.0871 -0.2108
29799ION     NA48653   8.443   7.927  12.101 -0.1232  0.5832  0.1796
29800ION     NA48654  14.867   5.783  15.656  0.3635  0.0759  0.0263
29801ION     NA48655   8.782   9.590   0.289 -0.2169 -0.0777 -0.0552
29802ION     NA48656   8.622   5.489  10.834  0.1916  0.0050 -0.0650
29803ION     NA48657  12.811   0.219  10.735 -0.3327 -0.0618 -0.0797
29804ION     NA48658  15.753   4.437  10.612  0.3242  0.2671 -0.0653
29805ION     NA48659   6.953   4.895  12.434 -0.0872 -0.0312 -0.0500
29806ION     NA48660   3.726   0.780  15.870 -0.3767 -0.0998 -0.3638
29807ION     NA48661   7.137   2.337   2.281 -0.0965  0.0684 -0.1330
29808ION     NA48662  12.267   9.255   1.980  0.1591 -0.0508 -0.1079
29809ION     NA48663  11.935  13.267  10.672  0.3284 -0.0472 -0.1406
29810ION     NA48664  12.096  15.897   5.793 -0.2811 -0.0015 -0.0529
29811ION     NA48665   6.483  10.687  10.732 -0.0411 -0.3348 -0.1434
29812ION     NA48666  17.188   1.376   5.519  0.0186  0.0066 -0.1589
29813ION     NA48667   3.365  17.641  11.295 -0.0943 -0.1390  0.0076
29814ION     NA48668  10.411  17.486   4.833 -0.1366 -0.2859 -0.2880
29815ION     NA48669  17.574  12.809   0.742  0.2178  0.0884 -0.0504
29816ION     NA48670   4.833  14.250  14.820  0.2261 -0.4026 -0.0104
29817ION     NA48671   9.060   7.516   5.660 -0.2512  0.2255 -0.3220
29818ION     NA48672   0.368   8.994  10.498  0.1252  0.0175  0.0307
29819ION     NA48673  17.033  12.861   3.373  0.1547  0.2780  0.0057
29820ION     NA48674  15.598   1.380  14.291  0.1360 -0.0500 -0.0124
29821ION     NA48675  13.403  13.517  15.892 -0.1871 -0.1851 -0.0538
29822ION     NA48676   7.955  15.375  14.394 -0.2104  0.0873  0.0401
29823ION     NA48677   3.046   6.776  11.973 -0.2922 -0.2383  0.3162
29824ION     NA48678  11.411  17.161  15.724  0.1397  0.2914  0.2581
29825ION     NA48679  10.655   6.309   0.630 -0.0083  0.3301  0.2976
29826ION     NA48680   1.357   3.174   5.317 -0.0762  0.3606 -0.2697
29827ION     NA48681  15.686   6.262   5.134  0.0930  0.2973  0.0268
29828ION     NA48682   7.884   4.029  10.948  0.0536  0.0377 -0.0756
29829ION     NA48683   5.321   6.765  10.642 -0.0118  0.0917 -0.0068
29830ION     NA48684   4.656   9.502   5.569 -0.1656  0.0272  0.1148
29831ION     NA48685   9.737  10.687  10.938  0.0980 -0.1271 -0.0223
29832ION     NA48686   9.750   4.643   5.448  0.2236 -0.1935 -0.0058
29833ION     NA48687   9.045   6.001  12.605  0.0118 -0.0604  0.0553
29834ION     NA48688  12.904   2.377   2.030  0.2103 -0.2777 -0.2114
29835ION     NA48689   3.553  16.321   5.730 -0.2226 -0.1618  0.1715
29836ION     NA48690   0.656  11.092  10.752  0.2216 -0.0176 -0.1472
29837ION     NA48691   9.141   1.329  15.155 -0.0039  0.0425  0.0406
29838ION     NA48692  18.003   2.195   5.507  0.1452 -0.1467  0.2662
29839ION     NA48693  15.695   4.843  13.178  0.0869  0.2180  0.0240
29840ION     NA48694  14.589   2.881   2.913 -0.0985  0.0090 -0.2268
29841ION     NA48695  11.692   8.710  11.179  0.0314  0.1981  0.4234
29842ION     NA48696   5.616  15.249  11.033 -0.1040  0.0287 -0.2257
29843ION     NA48697   9.267   6.520   5.575 -0.2801  0.1128  0.1307
29844ION     NA48698  14.648  16.487  11.005 -0.2492 -0.0439  0.0213
29845ION     NA48699   4.641  10.764  10.570  0.0655 -0.1170 -0.0044
29846ION     NA48700   7.653  16.558  12.367  0.2697 -0.2039 -0.0352
29847ION     NA48701  12.159   5.388  14.378  0.4445 -0.2587  0.0564
29848ION     NA48702   0.427   0.123  11.533  0.1242  0.0968 -0.1859
29849ION     NA48703  14.001   4.655  16.202  0.3722  0.0455  0.1198
29850ION     NA48704   9.438  10.715   5.803  0.2546  0.0576 -0.0167
29851ION     NA48705   1.580  10.957  10.494  0.0365 -0.6504  0.0497
29852ION     NA48706   4.957  12.835   5.270  0.2057 -0.0970 -0.2285
29853ION     NA48707  10.416  14.183  13.469 -0.2309 -0.1964 -0.3512
29854ION     NA48708  13.217  16.860   2.073  0.3742 -0.0760 -0.0775
29855ION     NA48709  16.761  16.471   4.454  0.4734  0.1444 -0.1558
29856ION     NA48710  17.982   5.322  10.336 -0.1690 -0.1905 -0.3596
29857ION     NA48711   4.034  17.898   1.835 -0.2012 -0.1821  0.0272
29858ION     NA48712   4.688   7.570  10.590 -0.0605 -0.2157 -0.0795
29859ION     NA48713  15.161   9.262   5.282 -0.1718  0.2397  0.1064
29860ION     NA48714  12.780   6.981  10.822 -0.0798  0.2408  0.1686
29861ION     NA48715   4.947  14.003  10.622  0.0202 -0.0578  0.2773
29862ION     NA48716  12.594   3.764  14.684 -0.0538 -0.0800  0.0417
29863ION     NA48717   7.056  10.151   1.358 -0.0125  0.0187 -0.1698
29864ION     NA48718   1.027   1.495   1.489  0.3183 -0.1238 -0.0837
29865ION     NA48719  14.839  13.186   5.374  0.3380  0.0356  0.1975
29866ION     NA48720   8.235  10.605  13.337 -0.0785  0.2950 -0.0685
29867ION     NA48721   6.879   0.717  11.046  0.0205  0.1183 -0.2233
29868ION     NA48722  12.516  17.793   5.432  0.0258 -0.0685 -0.1252
29869ION     NA48723   6.738  13.885   5.900 -0.2570 -0.1239  0.2476
29870ION     NA48724   9.558   9.924  15.480  0.2132 -0.1799  0.1643
29871ION     NA48725   0.850  14.525   5.958  0.0807 -0.0114  0.0076
29872ION     NA48726   3.583  17.913   1.093  0.0911  0.1300  0.2816
29873ION     NA48727   6.139   7.851   2.434 -0.1007 -0.1092  0.0091
29874ION     NA48728   5.479  10.008   5.389  0.1269  0.0277  0.1052
29875ION     NA48729  14.424  17.591  12.549 -0.0347  0.0958  0.0268
29876ION     NA48730  13.881   7.235  10.686  0.1575  0.1807  0.0065
29877ION     NA48731   2.650   3.202  10.680  0.4376  0.1229 -0.1351
29878ION     NA48732   2.558   8.090   4.548 -0.0596  0.0348  0.2161
29879ION     NA48733  17.571   6.973   5.210 -0.2112  0.0022  0.0711
29880ION     NA48734   1.085   0.768  11.141  0.0848 -0.0748 -0.1592
29881ION     NA48735   8.437  11.268  13.771  0.1740  0.2534 -0.3470
29882ION     NA48736   6.673  12.577  11.641 -0.3697  0.0190 -0.3042
29883ION     NA48737  16.239  10.868  14.613 -0.2114 -0.0215 -0.2798
29884ION     NA48738   2.714  11.975   0.412  0.2389 -0.0640  0.1565
29885ION     NA48739   9.727   3.370  12.858  0.1466 -0.1120 -0.2263
29886ION     NA48740   1.404  13.261  10.644 -0.2497 -0.1752 -0.1267
29887ION     NA48741  10.322   3.473  10.667  0.4061  0.4766  0.0935
29888ION     NA48742   9.681   6.441  15.331  0.2762 -0.0527  0.1632
29889ION     NA48743  17.984   2.374   0.145  0.1084  0.1899 -0.3932
29890ION     NA48744  14.174  17.917   4.349 -0.2836  0.1485 -0.3416
29891ION     NA48745   2.982   8.066  13.251 -0.1911 -0.0444  0.0835
29892ION     NA48746  11.776  16.909  10.836  0.3213  0.0769 -0.0518
29893ION     NA48747  11.452   4.721   1.380  0.1646 -0.3901 -0.0444
29894ION     NA48748  15.044   0.756   5.697  0.0896  0.0239 -0.1621
29895ION     NA48749  14.318   5.802   5.231 -0.0353 -0.1383 -0.0915
29896ION     NA48750   0.106   8.171  11.482 -0.4676 -0.0328  0.0468
29897ION     NA48751   2.628   1.437  14.337 -0.1072  0.1169 -0.0703
29898ION     NA48752  17.954   1.655   0.807  0.1376 -0.0040  0.0174
29899ION     NA48753   1.495   5.619  10.892  0.3907 -0.0707 -0.2194
29900ION     NA48754  16.732  14.699   3.026  0.0261  0.1897  0.1181
29901ION     NA48755   7.782   1.346   6.343 -0.0721 -0.2369  0.1701
29902ION     NA48756  14.809  14.732  11.022 -0.1436  0.1165  0.0911
29903ION     NA48757   1.629  11.448   5.387  0.0022 -0.3128  0.1057
29904ION     NA48758   5.799  13.542  14.125  0.0621 -0.0706  0.2611
29905ION     NA48759  13.272  16.008  13.830 -0.0537 -0.1007  0.0274
29906ION     NA48760  15.094  10.484   0.250  0.0899 -0.0274  0.2279
29907ION     NA48761   0.840   5.265  13.185 -0.1338 -0.2297  0.2069
29908ION     NA48762  14.362   4.187  13.829 -0.1269  0.3107 -0.2578
29909ION     NA48763   7.339  14.415   5.805 -0.0349  0.0536 -0.2355
29910ION     NA48764   9.456  14.843  15.228  0.3944 -0.3659 -0.2420
29911ION     NA48765   6.014  14.282  12.601  0.1510  0.0384  0.0047
29912ION     NA48766   5.984   9.674  10.469 -0.2408  0.1450 -0.0033
29913ION     NA48767  15.338   4.173   5.375 -0.3623 -0.2606 -0.0473
29914ION     NA48768  11.821   1.561  10.236  0.0172  0.0402  0.1333
29915ION     NA48769  17.993  13.745   3.399  0.1509 -0.1264 -0.0089
29916ION     NA48770   2.121  14.539   0.529  0.0620  0.0118 -0.0088
29917ION     NA48771  12.113   7.035   2.850  0.2444 -0.0608 -0.1829
29918ION     NA48772   6.651   5.808  10.901  0.0173 -0.0974 -0.0255
29919ION     NA48773  11.851  12.130  10.794 -0.0864 -0.1339  0.0285
29920ION     NA48774  17.994   8.116   1.644  0.1003  0.0501  0.1630
29921ION     NA48775   6.073  16.265   5.376 -0.1488  0.0667  0.0351
29922ION     NA48776   8.701   0.402  10.814  0.0440  0.0737 -0.1405
29923ION     NA48777   4.977   6.008  10.584  0.0876 -0.0399 -0.1922
29924ION     NA48778   4.138  10.081   2.590  0.1046 -0.0994 -0.1197
29925ION     NA48779  17.142  15.250  14.583 -0.1039  0.1783 -0.0020
29926ION     NA48780   2.608  10.589  11.905  0.2840 -0.0158  0.0217
29927ION     NA48781   5.576   0.630   4.022 -0.1524  0.0595 -0.0780
29928ION     NA48782   5.186   2.889   5.520  0.3457 -0.2244  0.1554
29929ION     NA48783   7.901  15.080  15.404  0.0883 -0.1590  0.2698
29930ION     NA48784   4.358   4.522   5.416  0.0540  0.1136 -0.0796
29931ION     NA48785   2.351  15.544  10.925  0.0412  0.0475  0.2439
29932ION     NA48786   0.399   2.525   1.019  0.1397  0.0163  0.0388
29933ION     NA48787   1.768   2.282  15.749  0.2428  0.1167  0.2927
29934ION     NA48788   5.330  15.072   0.777 -0.0155 -0.1923  0.5633
29935ION     NA48789   2.938  11.605   5.465 -0.0891  0.2184 -0.1544
29936ION     NA48790   5.499  10.626   3.366  0.2798 -0.1315 -0.0233
29937ION     NA48791   9.423   8.071   2.976  0.0032  0.2514  0.0195
29938ION     NA48792   7.595  15.520   5.949  0.0492  0.1432  0.1690
29939ION     NA48793  14.925   5.294   1.814  0.2954 -0.0470 -0.0285
29940ION     NA48794   2.476   6.985   5.215 -0.0493  0.1405 -0.1906
29941ION     NA48795   1.759  14.223  15.590  0.0230  0.2316 -0.1091
29942ION     NA48796   8.343   8.157   5.632  0.0854  0.0243  0.0564
29943ION     NA48797  15.121  10.601  10.731  0.1711  0.0518 -0.1240
29944ION     NA48798   8.564  15.323   5.920 -0.0360 -0.3441  0.0914
29945ION     NA48799   7.488  11.357   5.318 -0.0937 -0.1378 -0.3579
29946ION     NA48800  10.651  13.492   1.395 -0.0984 -0.1448 -0.0059
29947ION     NA48801   8.404   5.209  15.904 -0.1932 -0.1460 -0.2216
29948ION     NA48802   6.086  11.579  10.483 -0.1107 -0.0433  0.1257
29949ION     NA48803  17.113  14.764   5.839 -0.0232 -0.1078 -0.0281
29950ION     NA48804   4.435  14.368  12.175  0.0587  0.0804 -0.2292
29951ION     NA48805   7.812  16.994  14.424  0.0316  0.1181  0.2290
29952ION     NA48806   3.492   4.345  13.720 -0.1313  0.1952  0.0159
29953ION     NA48807  15.301   7.908   2.029  0.2402 -0.1735 -0.0382
29954ION     NA48808   4.088   5.088  12.520 -0.2406  0.1210 -0.1141
29955ION     NA48809   5.250   1.889  13.792  0.0054  0.0993  0.2675
29956ION     NA48810   7.583   0.033   4.740 -0.3433 -0.1536  0.3040
29957ION     NA48811  14.877   2.820   5.216 -0.1298 -0.1738  0.0452
29958ION     NA48812  16.093   4.088  14.499  0.2515  0.0162 -0.0827
29959ION     NA48813   9.957  12.343  16.169 -0.0796 -0.1379 -0.3397
29960ION     NA48814  14.767   7.181   0.643 -0.1088  0.0140 -0.0132
29961ION     NA48815  10.330   1.517   4.468 -0.2148 -0.1564  0.0308
29962ION     NA48816   6.154  14.370  10.955 -0.0172  0.0923 -0.0960
29963ION     NA48817  16.988  16.138   2.149  0.0651  0.0798 -0.1673
29964ION     NA48818  16.773  12.200  11.116 -0.2318  0.1820  0.1867
29965ION     NA48819   6.765  12.168   2.506  0.2328  0.0761  0.0155
29966ION     NA48820  17.349  10.023  10.794 -0.2572  0.0845 -0.2744
29967ION     NA48821  13.657   6.072   2.816 -0.5344 -0.0849  0.1973
29968ION     NA48822  12.209  10.611   1.072 -0.1996 -0.1576 -0.4185
29969ION     NA48823  12.925   3.749   5.396 -0.1304 -0.3145  0.0771
29970ION     NA48824   7.661   6.448  12.234 -0.2240  0.1267  0.2786
29971ION     NA48825  13.052   1.587   5.660  0.0172 -0.0074 -0.0572
29972ION     NA48826   6.235   4.459   5.521  0.1099 -0.0596  0.1686
29973ION     NA48827   3.126   1.795  15.399 -0.0384  0.0550 -0.2354
29974ION     NA48828   3.263  12.620   5.425  0.0224  0.0310  0.0336
29975ION     NA48829   8.409   3.224  11.304 -0.0135 -0.0721 -0.1490
29976ION     NA48830  11.222   6.016   5.386  0.1535 -0.0916 -0.0324
29977ION     NA48831   2.613   6.569  11.275  0.2728 -0.0144  0.0755
29978ION     NA48832  16.198   6.204  15.364 -0.0945 -0.2744  0.1588
29979ION     NA48833  15.821  17.489  10.931  0.2731 -0.1952  0.1410
29980ION     NA48834   9.172   1.137   4.872  0.3145 -0.1649 -0.1677
29981ION     NA48835   7.861  16.517   2.150  0.1434 -0.1381 -0.0639
29982ION     NA48836  16.721  17.629  11.214  0.0256 -0.0770  0.3670
29983ION     NA48837   8.290  11.583  11.379  0.0314 -0.1001 -0.1067
29984ION     NA48838   8.818  17.031   2.093 -0.0496  0.2088  0.1650
29985ION     NA48839  11.016   1.768   0.750  0.0965  0.2042 -0.2464
29986ION     NA48840   4.984   7.298  13.487  0.1140 -0.0429  0.1192
29987ION     NA48841  15.767  12.877   0.580 -0.3898 -0.0935 -0.1659
29988ION     NA48842  13.698   9.297   5.294  0.0833  0.1277 -0.1851
29989ION     NA48843   5.961  11.706   2.457 -0.1769  0.1141 -0.2039
29990ION     NA48844  10.000  10.797  12.024 -0.0561 -0.5573 -0.0249
29991ION     NA48845  17.359   9.120  15.766 -0.1777 -0.1524 -0.1487
29992ION     NA48846   0.556   9.321   0.572 -0.0911  0.1151 -0.0619
29993ION     NA48847  11.067   8.902  12.038  0.0482  0.0499 -0.2221
29994ION     NA48848  12.454  10.815   5.574  0.1169 -0.1948  0.0487
29995ION     NA48849   1.091   4.268  14.029 -0.1174 -0.0931  0.1604
29996ION     NA48850   9.894   8.425   5.267 -0.0441 -0.1100  0.0004
29997ION     NA48851  14.695   7.050   5.423 -0.0303 -0.2614  0.0224
29998ION     NA48852   3.083  14.023  13.615 -0.3400 -0.0771  0.0153
29999ION     NA48853  16.920   5.756  12.392 -0.2119  0.0510  0.0206
30000ION     NA48854  11.576  14.284   4.127  0.2454  0.1038 -0.2122
30001ION     NA48855  17.278  14.282   4.551  0.3602  0.2960  0.0218
30002ION     NA48856   7.231   2.330  10.950  0.1535 -0.2903 -0.0018
30003ION     NA48857  17.105   8.022   4.146  0.1893  0.2567  0.0227
30004ION     NA48858   5.581   6.853   3.889  0.2826  0.1815  0.1141
30005ION     NA48859  14.898  13.547  12.457 -0.1315 -0.2668 -0.0009
30006ION     NA48860  14.206   9.185  15.090  0.1359  0.0962 -0.1071
30007ION     NA48861   8.493   9.150   5.736 -0.1133 -0.1282  0.1830
30008ION     NA48862  14.716   4.729   3.694  0.1195 -0.1562 -0.0130
30009ION     NA48863  14.444  15.417   5.455  0.2420 -0.0507 -0.2905
30010ION     NA48864   2.524   1.727   1.618 -0.1368 -0.2423  0.1594
30011ION     NA48865  10.195  12.598  10.700  0.1971  0.0860  0.0122
30012ION     NA48866   5.249   8.177  11.793 -0.3324 -0.1532 -0.0920
30013ION     NA48867   1.565   2.765   1.820  0.2437 -0.1995 -0.1210
30014ION     NA48868   6.186   7.895   5.526 -0.0574 -0.1282  0.3890
30015ION     NA48869   5.227  12.603  11.515  0.2623 -0.1156  0.3829
30016ION     NA48870  14.812   3.841  14.686 -0.0001 -0.1235 -0.2469
30017ION     NA48871   0.809   7.899  13.984  0.1828 -0.3086 -0.2010
30018ION     NA48872  10.216   2.019  10.594  0.1380 -0.1796 -0.3216
30019ION     NA48873   2.835   1.650  11.155  0.3277  0.3653  0.2079
30020ION     NA48874   8.912  17.566  12.676  0.0379 -0.3579 -0.2082
30021ION     NA48875  11.611  10.949  12.277  0.3324 -0.0593 -0.0761
30022ION     NA48876  10.575  11.077  10.901 -0.0425 -0.0347  0.1343
30023ION     NA48877  16.941  15.807   3.844 -0.0252  0.0496  0.1079
30024ION     NA48878  17.094  17.115  13.797 -0.1199 -0.0255  0.1001
30025ION     NA48879   2.165   4.179  15.417 -0.0810  0.0074  0.0474
30026ION     NA48880  17.881  10.379  11.686 -0.1058  0.0915  0.2123
30027ION     NA48881   5.835   6.785  10.540 -0.1045  0.1415 -0.2386
30028ION     NA48882   0.665  12.658  10.848 -0.0289  0.4044 -0.2004
30029ION     NA48883  13.142  12.630   5.733 -0.2715  0.2927 -0.0201
30030ION     NA48884   5.418  12.576  10.542  0.0112 -0.0118  0.4059
30031ION     NA48885   1.994  16.038   0.402 -0.2036  0.1297 -0.1258
30032ION     NA48886   7.047   1.498   0.793 -0.3204 -0.3433 -0.0463
30033ION     NA48887  11.497   6.416  15.271  0.1111  0.2992 -0.0876
30034ION     NA48888   3.113   2.944   5.434 -0.0260 -0.3955 -0.1807
30035ION     NA48889   3.104  10.322   3.533  0.0312  0.2052 -0.0083
30036ION     NA48890   8.787   4.548  12.428 -0.1281 -0.0440 -0.0645
30037ION     NA48891  17.163  15.829  13.864  0.0115 -0.0296 -0.1491
30038ION     NA48892  16.458   9.995  10.247  0.0792 -0.0421  0.0183
30039ION     NA48893   0.731   7.143  10.212  0.1906  0.1448 -0.1934
30040ION     NA48894  16.883   0.156  15.613 -0.0337 -0.1667 -0.1197
30041ION     NA48895   8.497   2.713   0.363  0.0243  0.1273  0.0789
30042ION     NA48896   7.095  12.626   0.369 -0.0324 -0.1356  0.0171
30043ION     NA48897   1.829  16.672  11.025 -0.0453 -0.1584 -0.0814
30044ION     NA48898   8.208  11.771   0.971  0.0722 -0.2233 -0.1386
30045ION     NA48899  16.520  13.215   2.602 -0.1565 -0.0730 -0.3524
30046ION     NA48900   1.583  16.644   5.630  0.0141 -0.0749  0.1261
30047ION     NA48901  15.051  13.338  11.607  0.2080 -0.3097 -0.3170
30048ION     NA48902  14.554   1.027  10.837  0.2805  0.1158  0.1048
30049ION     NA48903   4.233   1.334   5.827  0.0750 -0.0623  0.2337
30050ION     NA48904  17.005  14.473  11.022  0.0922  0.0092 -0.0276
30051ION     NA48905   9.696  16.176  10.827 -0.3856  0.5559  0.2345
30052ION     NA48906   2.235   2.650   5.192 -0.1681  0.1978  0.1179
30053ION     NA48907  11.362   4.398  12.735  0.0249  0.1480 -0.0128
30054ION     NA48908   4.597   5.620   3.937  0.1213 -0.3192  0.2203
30055ION     NA48909  10.517   4.413  15.465  0.2144  0.0878 -0.0593
30056ION     NA48910   5.452   3.896   5.639 -0.1811 -0.0477  0.0234
30057ION     NA48911  17.740   4.016   5.246 -0.1546 -0.4044  0.2209
30058ION     NA48912  12.844   2.934  13.176 -0.3038 -0.1425 -0.0384
30059ION     NA48913   4.809   2.512   3.292  0.1597 -0.2364 -0.2545
30060ION     NA48914   4.790  11.178  10.709 -0.1726 -0.0103 -0.1896
30061ION     NA48915   7.386   7.353  10.744 -0.2619 -0.0476  0.1633
30062ION     NA48916  13.441  15.167   5.857  0.0960  0.0438  0.3224
30063ION     NA48917  13.322  12.434   2.096  0.1616  0.0637  0.1634
30064ION     NA48918  16.886   2.318   3.090  0.1667  0.1163  0.4461
30065ION     NA48919   5.808   3.440  10.739  0.1744  0.0628  0.0058
30066ION     NA48920   0.221   8.761  12.469 -0.0353  0.0042  0.1527
30067ION     NA48921  12.941   5.777   0.963 -0.0991 -0.0319 -0.2220
30068ION     NA48922  16.170   5.379  10.427 -0.0424  0.0972 -0.3460
30069ION     NA48923   0.696   5.032  12.191 -0.2774 -0.1775 -0.1889
30070ION     NA48924   8.841   1.244   5.872  0.0397  0.0054 -0.0271
30071ION     NA48925  16.442  16.917  10.816  0.2041  0.0486  0.0885
30072ION     NA48926  14.778  14.053   3.256 -0.2392 -0.0361 -0.0346
30073ION     NA48927  11.098   6.585   1.267 -0.2303  0.0121  0.0389
30074ION     NA48928   1.464   0.409  11.778 -0.0507  0.0210 -0.1329
30075ION     NA48929  13.404   3.747  15.261 -0.1005  0.1282  0.0499
30076ION     NA48930   4.750  16.065  14.334  0.1099  0.2586  0.1538
30077ION     NA48931   1.203  12.979   4.147  0.0721 -0.0168 -0.1280
30078ION     NA48932   4.812  15.019   3.086  0.3206  0.2308  0.0302
30079ION     NA48933   3.766  12.326  12.239  0.1241  0.1437 -0.0857
30080ION     NA48934  16.107  12.858  11.020  0.0381  0.0069  0.0783
30081ION     NA48935  10.093   1.223   5.329  0.3844 -0.2325  0.3097
30082ION     NA48936  17.922   0.440   0.407  0.2208 -0.2479  0.1414
30083ION     NA48937  11.976  17.747   2.031 -0.2387  0.1122 -0.3344
30084ION     NA48938   7.976   8.430  13.342  0.0898 -0.1760  0.1993
30085ION     NA48939  12.025  15.661   4.123  0.0145  0.0839  0.0170
30086ION     NA48940  17.078   5.010  14.566  0.2048  0.0470 -0.1090
30087ION     NA48941  13.492  13.771  13.364 -0.2406 -0.1223  0.2459
30088ION     NA48942   1.369   1.731  13.816  0.1476 -0.1377  0.1364
30089ION     NA48943   5.648   2.859  15.402 -0.0173  0.0730 -0.0321
30090ION     NA48944   0.728   1.641  15.033 -0.1564  0.5014 -0.0529
30091ION     NA48945  10.549  11.743   3.783 -0.1601 -0.3578 -0.1676
30092ION     NA48946   0.815  11.236   2.329  0.2161  0.4470 -0.1739
30093ION     NA48947  13.782  11.889  11.594 -0.0095 -0.3658 -0.0607
30094ION     NA48948  11.774   6.459  11.390  0.1279  0.2395 -0.2061
30095ION     NA48949   9.126   5.696   5.587  0.0839 -0.0561 -0.0946
30096ION     NA48950   8.488  13.591  12.155 -0.0715  0.1798  0.0061
30097ION     NA48951   3.308  10.271   1.330  0.2924  0.1000 -0.0313
30098ION     NA48952   8.890  13.728   6.132 -0.2566  0.0409  0.2563
30099ION     NA48953  15.717   4.708   1.201  0.0924  0.3054 -0.4575
30100ION     NA48954   5.295   4.391   5.596 -0.1443 -0.0730  0.0910
30101ION     NA48955  13.963   3.707  12.248 -0.0601 -0.0302 -0.1640
30102ION     NA48956   2.192   6.325  10.616 -0.1031 -0.0836 -0.1460
30103ION     NA48957   4.354  17.996  11.328  0.0920 -0.0853  0.0861
30104ION     NA48958   2.433  11.815   5.459  0.1528 -0.0470  0.0033
30105ION     NA48959   9.341   9.362   2.319 -0.1359 -0.1937  0.1931
30106ION     NA48960  16.504  10.951   5.809 -0.3392 -0.0848 -0.1182
30107ION     NA48961  15.272   4.238   4.094  0.0635  0.0641 -0.0714
30108ION     NA48962  15.599   0.641  12.814 -0.1199  0.0743  0.0142
30109ION     NA48963   7.539   6.942   5.572 -0.2458  0.0459 -0.1789
30110ION     NA48964  16.273  17.746   5.689  0.2017 -0.0648 -0.2511
30111ION     NA48965  12.242  14.379   5.777 -0.0218 -0.2187 -0.1192
30112ION     NA48966   7.446   2.124  13.044 -0.1712  0.0924 -0.0624
30113ION     NA48967  14.895   3.892  10.669  0.3042  0.1284 -0.0013
30114ION     NA48968   6.145   1.907   4.660  0.0201  0.2845  0.2843
30115ION     NA48969  15.054  14.709   5.949 -0.5642  0.0254 -0.1813
30116ION     NA48970   3.612   3.845   5.449 -0.1653  0.5076 -0.2793
30117ION     NA48971   0.492   1.899   4.612  0.2102  0.0699  0.0493
30118ION     NA48972  12.387   4.167  13.321 -0.1801 -0.0422  0.0782
30119ION     NA48973   8.841   6.105  14.947 -0.1110  0.1454 -0.1962
30120ION     NA48974   0.820   4.785   5.181  0.2703 -0.0847  0.1869
30121ION     NA48975   7.112   2.971  11.077 -0.0554  0.0924  0.2683
30122ION     NA48976  14.425   8.055   4.171 -0.1446 -0.1842 -0.1185
30123ION     NA48977   4.252   1.596  10.821 -0.1187 -0.1976  0.2800
30124ION     NA48978  12.793  11.831   2.255 -0.2273  0.1901  0.0065
30125ION     NA48979  14.780  10.958  13.769 -0.1028 -0.0981  0.5428
30126ION     NA48980  10.829   1.479  11.359 -0.1645  0.0385 -0.0491
30127ION     NA48981   4.648   0.782  10.907 -0.2773  0.1555  0.2857
30128ION     NA48982  13.547  11.027  16.099 -0.1502  0.5744  0.0056
30129ION     NA48983  17.948   6.745  10.140  0.2126 -0.0506 -0.0231
30130ION     NA48984   6.483  13.843  15.280 -0.0676  0.2094  0.0157
30131ION     NA48985  17.006   7.829   5.452  0.0291 -0.1151  0.2062
30132ION     NA48986   6.628   8.764   2.506 -0.0856  0.0509 -0.4008
30133ION     NA48987   1.313   6.350  10.139  0.0069 -0.1494 -0.3050
30134ION     NA48988   1.820   0.925  10.785  0.0845  0.1300 -0.0312
30135ION     NA48989   1.255  17.951  11.017 -0.0672  0.1534 -0.3020
30136ION     NA48990   0.115   6.530   4.786  0.0749 -0.1041  0.2289
30137ION     NA48991  15.599  15.448   0.684  0.2457 -0.2515 -0.1189
30138ION     NA48992  11.538   2.241   5.229  0.1797  0.0692 -0.0988
30139ION     NA48993  13.758  15.491   0.065 -0.1714  0.1996 -0.1239
30140ION     NA48994   4.175   4.852   5.157  0.4543 -0.0936 -0.0732
30141ION     NA48995  13.783  11.248  10.800 -0.0098 -0.3337 -0.2819
30142ION     NA48996  17.762   4.735   5.019  0.0105  0.0696  0.1737
30143ION     NA48997   2.121   3.078   5.395  0.0164 -0.0330  0.5349
30144ION     NA48998   1.526  13.697   0.456 -0.1702  0.4146 -0.0806
30145ION     NA48999   4.089  11.588  10.350  0.1544  0.0387 -0.0760
30146ION     NA49000   0.472  11.133   5.196 -0.1152  0.2174  0.0573
30147ION     NA49001   6.533   9.466   0.738  0.1944 -0.2658  0.1495
30148ION     NA49002  11.645   3.698   5.197 -0.0300  0.0123 -0.1982
30149ION     NA49003   2.702   9.155   0.582 -0.1152 -0.0417 -0.0246
30150ION     NA49004  13.941   0.223  14.053 -0.1556  0.0812  0.0888
30151ION     NA49005   0.686   8.361  13.066  0.2578  0.0309 -0.1449
30152ION     NA49006  11.841  14.378   0.528  0.0203 -0.1402  0.0927
30153ION     NA49007   7.662  17.923   6.026 -0.1084  0.2047  0.0936
30154ION     NA49008   3.401  14.346  11.146  0.0549 -0.2023 -0.1747
30155ION     NA49009   7.783   1.162  11.728  0.1400 -0.1266 -0.1756
30156ION     NA49010   9.428  14.246   5.924  0.0179 -0.2284 -0.2386
30157ION     NA49011   2.118  14.892  14.269  0.1515  0.0350  0.0073
30158ION     NA49012  16.633   1.933  10.790 -0.1677 -0.0460 -0.0503
30159ION     NA49013   0.194   4.967  14.794 -0.3284  0.2453  0.0107
30160ION     NA49014  16.883  11.964   6.001 -0.0695  0.0403  0.2923
30161ION     NA49015  13.063   5.986  14.918  0.1019  0.1600  0.0666
30162ION     NA49016   8.181  11.259  14.913 -0.1953 -0.1373 -0.0256
30163ION     NA49017   1.353  14.598  14.689 -0.0004  0.0922  0.0257
30164ION     NA49018  14.263   8.890   0.708 -0.0149  0.1768 -0.3024
30165ION     NA49019   3.489   7.863   0.171 -0.0411  0.2583 -0.0892
  18.04023  18.04023  16.22432
