INSANE! Membrane UpperLeaflet>loPI:POPI:DPPI:PYPI:ERGO=80.0:5.0:3.0:2.0:10.0 LowerLeaflet>loPI:POPI:DPPI:PYPI:ERGO=80.0:5.0:3.0:2.0:10.0
49019
    1loPI    C1    1   9.274  18.614  10.144 -0.0324  0.0755  0.1004
    1loPI    C2    2   9.174  18.386  10.457  0.0088  0.1819  0.1918
    1loPI    C3    3   9.521  18.324  10.267 -0.0430  0.0785  0.1296
    1loPI   PO4    4   9.067  18.695   9.974  0.1043 -0.1078 -0.4924
    1loPI   GL1    5   8.923  18.502   9.669 -0.1038  0.2017  0.0630
    1loPI   GL2    6   9.152  18.337   9.560 -0.0940  0.1346  0.2524
    1loPI   C1A    7   8.751  18.447   9.209  0.3454  0.1210  0.1526
    1loPI   C2A    8   8.838  18.639   8.830  0.2050  0.0223  0.0210
    1loPI   C3A    9   8.635  18.719   8.411  0.1784 -0.2540 -0.3069
    1loPI   C4A   10   8.285  18.662   8.102 -0.0717 -0.0125 -0.2559
    1loPI   C5A   11   7.966  18.578   7.760 -0.0571 -0.0456  0.1841
    1loPI   C6A   12   7.990  18.389   7.380  0.1762  0.3624  0.0462
    1loPI   C1B   13   9.237  18.447   9.180 -0.1540  0.3227 -0.0205
    1loPI   C2B   14   9.130  18.814   9.179  0.2634  0.2093  0.0289
    1loPI   C3B   15   8.729  18.999   9.187 -0.0414 -0.1377  0.0954
    1loPI   C4B   16   8.319  18.933   8.973  0.1062  0.2594 -0.0418
    2loPI    C1   17  16.793   2.887  10.033  0.0622  0.0579  0.2072
    2loPI    C2   18  16.781   3.004   9.650  0.2331 -0.0504  0.1677
    2loPI    C3   19  16.442   2.918   9.844  0.1479 -0.0208  0.0325
    2loPI   PO4   20  17.017   2.648  10.025 -0.1842  0.2078  0.0065
    2loPI   GL1   21  17.105   2.526   9.592 -0.0052 -0.1405 -0.1098
    2loPI   GL2   22  17.344   2.336   9.477  0.0469  0.0470 -0.3289
    2loPI   C1A   23  17.102   2.844   9.237  0.0375 -0.0130 -0.0480
    2loPI   C2A   24  17.121   2.576   8.692 -0.2505 -0.2082  0.0380
    2loPI   C3A   25  17.363   2.660   8.378 -0.1811 -0.1347 -0.2165
    2loPI   C4A   26  17.416   2.526   7.945 -0.2547 -0.1237 -0.0114
    2loPI   C5A   27  17.322   2.410   7.544  0.3094 -0.0244  0.0120
    2loPI   C6A   28  17.068   2.538   7.284  0.0868 -0.0611 -0.0115
    2loPI   C1B   29  17.432   2.350   9.110 -0.0993 -0.2068 -0.0917
    2loPI   C2B   30  17.341   2.135   8.608  0.1031  0.2938 -0.1440
    2loPI   C3B   31  17.167   2.231   8.262 -0.0852  0.2594 -0.1366
    2loPI   C4B   32  16.921   2.009   7.997  0.0200 -0.0276  0.1261
    3loPI    C1   33  10.718   3.856  10.429  0.1328 -0.0228 -0.0781
    3loPI    C2   34  10.374   3.767  10.245  0.1212  0.1613 -0.1480
    3loPI    C3   35  10.369   3.927  10.612  0.1376  0.0172 -0.0842
    3loPI   PO4   36  10.922   4.086  10.163 -0.1432  0.2314 -0.0811
    3loPI   GL1   37  10.940   4.127   9.730  0.0359 -0.1670 -0.2679
    3loPI   GL2   38  10.850   3.843   9.766  0.0858  0.3171  0.2610
    3loPI   C1A   39  11.115   3.852   9.322 -0.0058 -0.0568 -0.3885
    3loPI   C2A   40  11.257   3.807   8.921 -0.2500  0.2514  0.1960
    3loPI   C3A   41  11.070   3.969   8.571  0.3288 -0.0537 -0.3148
    3loPI   C4A   42  10.903   3.756   8.227  0.0597  0.0191 -0.2792
    3loPI   C5A   43  10.684   3.977   7.831 -0.0435 -0.3727 -0.0782
    3loPI   C6A   44  10.532   4.380   7.922  0.0148 -0.0505 -0.0765
    3loPI   C1B   45  10.573   3.855   9.399 -0.0763  0.1004  0.0374
    3loPI   C2B   46  10.211   3.727   9.149 -0.3752 -0.0172  0.0494
    3loPI   C3B   47   9.974   3.612   8.872  0.2582 -0.0836  0.2713
    3loPI   C4B   48   9.876   3.688   8.497  0.0542 -0.0407  0.0298
    4loPI    C1   49   2.108  13.986  10.140 -0.3902 -0.2685 -0.0602
    4loPI    C2   50   1.828  14.271  10.147  0.1060  0.2350  0.0338
    4loPI    C3   51   2.003  14.154  10.487 -0.0934 -0.1922 -0.0040
    4loPI   PO4   52   2.156  13.958   9.854  0.0391  0.2314  0.2441
    4loPI   GL1   53   2.416  14.038   9.578  0.0345  0.1497  0.2825
    4loPI   GL2   54   2.098  14.057   9.335 -0.0791 -0.2492  0.0087
    4loPI   C1A   55   2.588  14.142   9.143 -0.2337  0.0566  0.0737
    4loPI   C2A   56   2.515  14.444   8.774 -0.0669 -0.2364 -0.0220
    4loPI   C3A   57   2.393  14.639   8.377 -0.1388 -0.2382  0.1560
    4loPI   C4A   58   2.375  14.851   7.979 -0.2237  0.1656 -0.0998
    4loPI   C5A   59   2.560  15.042   7.560  0.1336  0.0259  0.2090
    4loPI   C6A   60   2.821  15.263   7.360  0.2921  0.2796  0.0968
    4loPI   C1B   61   2.147  14.218   8.976 -0.1458  0.1215 -0.1515
    4loPI   C2B   62   2.115  14.113   8.458  0.2574 -0.2748 -0.3785
    4loPI   C3B   63   1.946  13.979   8.095  0.1185  0.3121 -0.2300
    4loPI   C4B   64   1.532  13.733   8.009  0.2069  0.0853 -0.0460
    5loPI    C1   65  14.038  11.772  10.320 -0.0464 -0.2019  0.0875
    5loPI    C2   66  13.811  12.062  10.476 -0.1125 -0.1034 -0.1858
    5loPI    C3   67  13.942  11.764  10.708 -0.1861  0.0530  0.0604
    5loPI   PO4   68  13.929  11.720  10.087 -0.3016  0.0909  0.0329
    5loPI   GL1   69  14.029  11.588   9.727  0.2424 -0.0702 -0.0301
    5loPI   GL2   70  14.199  11.491   9.614 -0.1245 -0.3221  0.2985
    5loPI   C1A   71  13.804  11.687   9.353 -0.1589 -0.2123  0.0395
    5loPI   C2A   72  13.712  11.702   8.895 -0.1273 -0.0551 -0.0171
    5loPI   C3A   73  13.697  11.735   8.416  0.0257 -0.0975  0.3237
    5loPI   C4A   74  13.674  11.867   7.977 -0.1759 -0.2275  0.2074
    5loPI   C5A   75  13.561  11.882   7.549 -0.3044  0.3770  0.0215
    5loPI   C6A   76  13.431  11.954   7.137 -0.0282  0.0209 -0.0774
    5loPI   C1B   77  14.504  11.554   9.223 -0.0899  0.1449  0.0020
    5loPI   C2B   78  14.554  11.645   8.709  0.2923 -0.0555 -0.0349
    5loPI   C3B   79  14.442  11.422   8.308  0.1077  0.0231  0.0752
    5loPI   C4B   80  14.432  11.309   7.871  0.0011  0.1480  0.1006
    6loPI    C1   81  15.375   9.548  10.420 -0.1052  0.0091  0.2599
    6loPI    C2   82  15.203   9.362  10.730  0.0897 -0.2450  0.2189
    6loPI    C3   83  15.600   9.352  10.687  0.0602 -0.2576 -0.0681
    6loPI   PO4   84  15.248   9.707  10.253  0.2454  0.1928 -0.1360
    6loPI   GL1   85  15.231   9.464   9.697  0.3011 -0.0071 -0.0037
    6loPI   GL2   86  15.107   9.197   9.640 -0.1714 -0.0933 -0.2211
    6loPI   C1A   87  15.011   9.709   9.319  0.1446 -0.0317 -0.2070
    6loPI   C2A   88  15.136   9.754   8.917 -0.1976  0.0315 -0.3580
    6loPI   C3A   89  15.317   9.720   8.524 -0.1421  0.1002 -0.1186
    6loPI   C4A   90  15.195   9.662   8.083 -0.1059 -0.0529 -0.1403
    6loPI   C5A   91  14.962   9.332   7.817  0.0126 -0.0344  0.2805
    6loPI   C6A   92  14.883   9.023   7.398 -0.4046 -0.0016  0.3116
    6loPI   C1B   93  15.070   9.201   9.206 -0.2067  0.0629  0.0539
    6loPI   C2B   94  15.060   9.240   8.758  0.0355 -0.0489 -0.0652
    6loPI   C3B   95  14.960   9.187   8.336  0.3726  0.3073  0.2452
    6loPI   C4B   96  14.600   9.367   8.144  0.0672 -0.2328 -0.2266
    7loPI    C1   97   9.456  18.060   9.864 -0.0891  0.0786 -0.0318
    7loPI    C2   98   9.310  17.811  10.140 -0.0801 -0.2084 -0.2803
    7loPI    C3   99   9.096  18.128  10.023  0.0691  0.1278  0.3144
    7loPI   PO4  100   9.561  17.938   9.695  0.1169  0.2747 -0.3293
    7loPI   GL1  101   9.508  17.954   9.301  0.4976 -0.1400  0.2545
    7loPI   GL2  102   9.146  17.776   9.278 -0.1869 -0.0781 -0.0272
    7loPI   C1A  103   9.574  17.770   8.868 -0.1721 -0.2878 -0.0983
    7loPI   C2A  104   9.933  17.643   8.569 -0.2522  0.1315 -0.0151
    7loPI   C3A  105   9.841  17.536   8.167  0.0148  0.1100 -0.2108
    7loPI   C4A  106   9.936  17.360   7.768  0.0066 -0.0899  0.2245
    7loPI   C5A  107   9.902  17.684   7.359  0.1299 -0.1102 -0.0547
    7loPI   C6A  108  10.011  17.858   7.053 -0.1704  0.1773 -0.2347
    7loPI   C1B  109   8.935  18.067   8.934 -0.0326  0.0406 -0.1963
    7loPI   C2B  110   9.208  18.250   8.712  0.1065 -0.1564  0.1293
    7loPI   C3B  111   9.627  18.451   8.689  0.0376 -0.0732 -0.2057
    7loPI   C4B  112  10.006  18.511   8.657 -0.3036 -0.3435 -0.0442
    8loPI    C1  113  15.032   6.977   9.712 -0.0209  0.1024  0.1172
    8loPI    C2  114  15.037   7.229  10.023  0.1175  0.0888  0.1267
    8loPI    C3  115  15.019   7.372   9.649 -0.0346  0.1056  0.1395
    8loPI   PO4  116  15.215   6.820   9.814  0.3572  0.2528 -0.3174
    8loPI   GL1  117  15.365   6.682   9.394  0.0460 -0.1081  0.3466
    8loPI   GL2  118  15.599   6.468   9.416 -0.0628  0.2217 -0.2198
    8loPI   C1A  119  15.543   6.867   9.052  0.1088  0.2523 -0.0438
    8loPI   C2A  120  15.397   7.195   8.727  0.1353 -0.0778  0.0095
    8loPI   C3A  121  15.167   7.353   8.361  0.2414 -0.1664 -0.3058
    8loPI   C4A  122  14.965   7.345   8.034  0.0392 -0.2907  0.2766
    8loPI   C5A  123  14.586   7.213   7.862 -0.0393  0.1275 -0.2080
    8loPI   C6A  124  14.231   7.100   7.710 -0.1789  0.0932  0.2612
    8loPI   C1B  125  15.826   6.320   9.034  0.1637 -0.1819  0.2576
    8loPI   C2B  126  15.833   6.293   8.694 -0.0444  0.0482 -0.0771
    8loPI   C3B  127  15.769   6.332   8.339 -0.0538 -0.0242  0.1550
    8loPI   C4B  128  15.581   6.634   8.055  0.1982 -0.0223 -0.1475
    9loPI    C1  129   7.563   6.207  10.220 -0.1420  0.2520 -0.0097
    9loPI    C2  130   7.648   6.130  10.603 -0.1514 -0.1337 -0.0813
    9loPI    C3  131   7.273   6.219  10.495 -0.1629 -0.0966 -0.0115
    9loPI   PO4  132   7.674   6.377  10.135 -0.1732 -0.1421  0.1499
    9loPI   GL1  133   7.851   6.553   9.738  0.2686  0.1479 -0.2016
    9loPI   GL2  134   7.981   6.275   9.790 -0.0627 -0.0787  0.1407
    9loPI   C1A  135   7.646   6.377   9.405 -0.2228  0.2650 -0.4788
    9loPI   C2A  136   7.778   6.412   9.020  0.0718 -0.0866 -0.1573
    9loPI   C3A  137   7.669   6.662   8.578  0.3156  0.0738  0.0025
    9loPI   C4A  138   7.432   6.819   8.244 -0.1422 -0.2683 -0.0701
    9loPI   C5A  139   7.465   7.096   7.898  0.3358  0.0293 -0.2112
    9loPI   C6A  140   7.185   7.431   7.741 -0.3333 -0.0542 -0.1670
    9loPI   C1B  141   8.166   6.159   9.344  0.2580 -0.2888 -0.1913
    9loPI   C2B  142   8.201   6.164   8.816 -0.0949  0.1135  0.2344
    9loPI   C3B  143   8.122   6.453   8.461  0.0480  0.0802  0.0840
    9loPI   C4B  144   7.931   6.785   8.166 -0.0088 -0.0238 -0.2024
   10loPI    C1  145   0.162  15.618  10.469 -0.1101 -0.3087 -0.0409
   10loPI    C2  146   0.174  15.225  10.543 -0.1118 -0.3040 -0.0150
   10loPI    C3  147   0.127  15.484  10.844  0.1903 -0.2677  0.0042
   10loPI   PO4  148   0.003  15.664  10.273 -0.0592  0.1746 -0.1620
   10loPI   GL1  149  -0.110  15.697   9.905  0.3643 -0.2823 -0.1269
   10loPI   GL2  150  -0.408  15.588   9.810 -0.1464 -0.2271  0.0549
   10loPI   C1A  151  -0.086  16.008   9.564 -0.0177  0.0009  0.2837
   10loPI   C2A  152  -0.121  15.899   9.109  0.3620  0.1130  0.0489
   10loPI   C3A  153  -0.359  16.023   8.682 -0.3473  0.1769  0.2377
   10loPI   C4A  154  -0.230  15.922   8.235 -0.1532 -0.3113  0.0189
   10loPI   C5A  155  -0.284  15.935   7.798 -0.2931 -0.0284  0.0324
   10loPI   C6A  156  -0.427  15.860   7.387  0.0119  0.1084  0.2106
   10loPI   C1B  157  -0.357  15.546   9.363  0.0590 -0.0917 -0.0341
   10loPI   C2B  158  -0.408  15.464   8.941  0.1604 -0.0022  0.0855
   10loPI   C3B  159  -0.447  15.323   8.540  0.1713 -0.0584  0.1575
   10loPI   C4B  160  -0.580  15.138   8.126 -0.0369 -0.0691 -0.0049
   11loPI    C1  161   0.907  17.490  10.269  0.0347  0.0044 -0.1598
   11loPI    C2  162   0.820  17.790  10.020  0.2085  0.0332 -0.1873
   11loPI    C3  163   0.953  17.868  10.389 -0.0388 -0.0095 -0.0870
   11loPI   PO4  164   1.062  17.312  10.061 -0.0020  0.1183 -0.3210
   11loPI   GL1  165   1.189  17.052   9.766 -0.2479 -0.0946  0.2430
   11loPI   GL2  166   1.361  17.333   9.634 -0.0326 -0.0484 -0.2024
   11loPI   C1A  167   0.989  16.817   9.403 -0.0992 -0.0333  0.0781
   11loPI   C2A  168   0.850  16.743   9.094  0.0376 -0.1544 -0.4102
   11loPI   C3A  169   0.673  16.628   8.826 -0.0149 -0.2024  0.3663
   11loPI   C4A  170   0.512  16.506   8.324  0.0708 -0.2718 -0.0755
   11loPI   C5A  171   0.250  16.668   8.019 -0.1649 -0.3255 -0.0423
   11loPI   C6A  172   0.310  16.989   7.737 -0.0176 -0.0557 -0.0093
   11loPI   C1B  173   1.174  17.238   9.171  0.0142 -0.0323 -0.1832
   11loPI   C2B  174   1.025  16.980   8.725 -0.0086  0.1821  0.1326
   11loPI   C3B  175   0.963  16.700   8.418 -0.4122  0.1637  0.0882
   11loPI   C4B  176   0.945  16.237   8.375  0.1509  0.1429 -0.1520
   12loPI    C1  177  15.838  14.090  10.414  0.2203 -0.0879  0.0452
   12loPI    C2  178  15.591  13.778  10.371  0.2400 -0.0826 -0.1112
   12loPI    C3  179  15.901  13.754  10.623  0.0013 -0.0396  0.1923
   12loPI   PO4  180  15.751  14.205  10.113 -0.4859 -0.2405 -0.0345
   12loPI   GL1  181  15.577  14.377   9.853 -0.1672  0.2923 -0.1291
   12loPI   GL2  182  15.486  14.627   9.994 -0.0393 -0.0525  0.0083
   12loPI   C1A  183  15.801  14.555   9.425 -0.1025 -0.3059 -0.0673
   12loPI   C2A  184  15.978  14.441   9.057 -0.0304 -0.4384  0.0755
   12loPI   C3A  185  15.971  14.479   8.569 -0.2753 -0.2215  0.0376
   12loPI   C4A  186  16.227  14.807   8.305 -0.3269 -0.1797 -0.2192
   12loPI   C5A  187  16.610  14.798   8.085 -0.2695 -0.1216  0.0705
   12loPI   C6A  188  17.058  14.759   7.920 -0.1480  0.0266  0.0349
   12loPI   C1B  189  15.356  14.733   9.599  0.3110 -0.0616  0.2626
   12loPI   C2B  190  15.382  14.666   9.132 -0.1984 -0.0254 -0.3614
   12loPI   C3B  191  15.363  14.600   8.706 -0.1349  0.3005 -0.1808
   12loPI   C4B  192  15.268  14.591   8.331  0.0759 -0.2970 -0.3491
   13loPI    C1  193  15.553  12.005  10.147 -0.1330  0.0279 -0.1327
   13loPI    C2  194  15.567  11.661  10.352 -0.1336  0.1130  0.0112
   13loPI    C3  195  15.715  11.996  10.512 -0.1329  0.1804 -0.1287
   13loPI   PO4  196  15.379  11.983   9.977  0.2978  0.0501  0.3207
   13loPI   GL1  197  15.380  11.940   9.633 -0.1193 -0.0894 -0.4791
   13loPI   GL2  198  15.260  11.580   9.498 -0.0551  0.0390  0.1031
   13loPI   C1A  199  15.434  11.933   9.198 -0.0724 -0.2776  0.0210
   13loPI   C2A  200  15.544  12.106   8.849 -0.2361  0.2333 -0.0636
   13loPI   C3A  201  15.536  12.199   8.374 -0.1229  0.1732  0.3019
   13loPI   C4A  202  15.597  11.933   8.007  0.3950 -0.0382 -0.1226
   13loPI   C5A  203  15.915  11.831   7.733  0.2335 -0.2352  0.0874
   13loPI   C6A  204  16.367  11.735   7.752  0.1555 -0.1387 -0.3977
   13loPI   C1B  205  15.411  11.408   9.224  0.0206 -0.0908  0.1195
   13loPI   C2B  206  15.516  11.580   8.813  0.0167  0.3450  0.1150
   13loPI   C3B  207  15.602  11.701   8.442 -0.0299 -0.1216 -0.1504
   13loPI   C4B  208  15.734  11.485   8.103 -0.1528 -0.0488 -0.0545
   14loPI    C1  209  13.563   7.488   9.983 -0.2155  0.2161 -0.0114
   14loPI    C2  210  13.615   7.716  10.308 -0.0614 -0.1091  0.1975
   14loPI    C3  211  13.430   7.362  10.339  0.2294 -0.2841 -0.0088
   14loPI   PO4  212  13.432   7.684   9.789  0.3026  0.3876 -0.0404
   14loPI   GL1  213  13.377   7.857   9.440 -0.0586  0.1395  0.2551
   14loPI   GL2  214  13.364   8.132   9.521 -0.4548 -0.0356 -0.0321
   14loPI   C1A  215  13.144   7.977   9.074  0.3093  0.0457  0.3777
   14loPI   C2A  216  13.374   8.102   8.761  0.0352  0.1265  0.1729
   14loPI   C3A  217  13.199   8.104   8.331 -0.2242 -0.0762  0.1773
   14loPI   C4A  218  13.346   8.363   7.922 -0.3531 -0.2086 -0.0166
   14loPI   C5A  219  13.544   8.586   7.730  0.0954 -0.0911 -0.0053
   14loPI   C6A  220  13.922   8.435   7.639 -0.2626  0.0903 -0.0606
   14loPI   C1B  221  13.201   8.422   9.138 -0.0232 -0.3503  0.0829
   14loPI   C2B  222  13.023   8.445   8.739 -0.2313  0.2415 -0.1257
   14loPI   C3B  223  12.737   8.349   8.452 -0.3417  0.0611 -0.2151
   14loPI   C4B  224  12.365   8.352   8.234  0.1029  0.4218  0.0826
   15loPI    C1  225  10.664  16.783  10.009  0.1930 -0.0533  0.1291
   15loPI    C2  226  10.879  17.037  10.231  0.2816 -0.0596  0.0512
   15loPI    C3  227  10.479  17.042  10.251  0.2834  0.0703  0.0672
   15loPI   PO4  228  10.704  16.766   9.723 -0.0376  0.0685 -0.2602
   15loPI   GL1  229  11.000  16.661   9.432  0.3202  0.2099 -0.0035
   15loPI   GL2  230  10.707  16.459   9.321  0.2652  0.0955 -0.1757
   15loPI   C1A  231  11.093  16.755   9.049 -0.3366  0.1271 -0.2456
   15loPI   C2A  232  11.366  16.940   8.622  0.1132 -0.1310  0.1566
   15loPI   C3A  233  11.298  17.162   8.256  0.2285  0.1659 -0.1640
   15loPI   C4A  234  11.393  17.310   7.867 -0.0784  0.0256 -0.1672
   15loPI   C5A  235  11.198  17.704   7.662  0.0407  0.2647  0.0564
   15loPI   C6A  236  10.929  17.918   7.791  0.1246 -0.4814 -0.0016
   15loPI   C1B  237  10.642  16.498   8.909  0.1959  0.0866  0.3451
   15loPI   C2B  238  10.577  16.256   8.487 -0.0019 -0.0493  0.1245
   15loPI   C3B  239  10.552  16.183   8.046  0.1748  0.0433  0.0732
   15loPI   C4B  240  10.474  16.256   7.558 -0.1288  0.1743 -0.3071
   16loPI    C1  241   4.225  15.242   9.962  0.0500 -0.2117 -0.0059
   16loPI    C2  242   4.597  15.243  10.110  0.0955 -0.1176 -0.1191
   16loPI    C3  243   4.300  15.417  10.314  0.1569  0.0069 -0.1355
   16loPI   PO4  244   4.270  15.298   9.710 -0.1833  0.1107 -0.1157
   16loPI   GL1  245   4.424  15.359   9.377 -0.1265  0.1812  0.0058
   16loPI   GL2  246   4.710  15.236   9.183 -0.1154  0.2587 -0.1696
   16loPI   C1A  247   4.451  15.452   8.864  0.3482  0.2685  0.0703
   16loPI   C2A  248   4.581  15.588   8.458  0.2925 -0.0260 -0.1257
   16loPI   C3A  249   4.815  15.705   7.998  0.2775 -0.0011 -0.0562
   16loPI   C4A  250   4.788  15.573   7.484 -0.2052  0.0292 -0.2512
   16loPI   C5A  251   4.798  15.164   7.400  0.3096  0.1238  0.0420
   16loPI   C6A  252   4.668  14.779   7.222 -0.0005  0.0063 -0.0785
   16loPI   C1B  253   4.994  15.329   8.698 -0.0361 -0.2131  0.4227
   16loPI   C2B  254   5.171  15.470   8.301  0.0599  0.2801  0.1313
   16loPI   C3B  255   5.171  15.447   7.860 -0.0375 -0.0676 -0.0270
   16loPI   C4B  256   5.272  15.482   7.402 -0.1002  0.2723 -0.0809
   17loPI    C1  257  17.927   3.275  10.091 -0.0543 -0.1038  0.0948
   17loPI    C2  258  18.033   3.009  10.371  0.1173 -0.1173  0.0183
   17loPI    C3  259  18.262   3.330  10.304 -0.0499  0.0118  0.0588
   17loPI   PO4  260  17.854   3.076   9.907 -0.1505  0.0009  0.0326
   17loPI   GL1  261  17.845   2.926   9.543  0.1298  0.0589 -0.2225
   17loPI   GL2  262  17.519   2.915   9.509  0.2097  0.0438 -0.2244
   17loPI   C1A  263  18.202   2.741   9.307 -0.1352 -0.0982  0.1153
   17loPI   C2A  264  18.213   2.542   8.917  0.2312 -0.1936  0.0635
   17loPI   C3A  265  18.191   2.261   8.591 -0.1050  0.1101 -0.0605
   17loPI   C4A  266  18.238   2.145   8.154  0.2588  0.0348  0.0014
   17loPI   C5A  267  18.135   1.960   7.717 -0.0441 -0.0595 -0.0554
   17loPI   C6A  268  18.304   2.014   7.390  0.1234 -0.1206 -0.0086
   17loPI   C1B  269  17.505   3.141   9.121 -0.0714  0.1060 -0.0830
   17loPI   C2B  270  17.459   2.993   8.702  0.2128 -0.0286 -0.0544
   17loPI   C3B  271  17.803   2.961   8.438  0.0636 -0.2123  0.1346
   17loPI   C4B  272  18.192   2.912   8.583 -0.0238 -0.2102  0.0248
   18loPI    C1  273   7.616  14.696  10.406 -0.0383 -0.0122  0.1728
   18loPI    C2  274   7.262  14.865  10.328 -0.0652 -0.1231  0.0502
   18loPI    C3  275   7.358  14.765  10.704 -0.0594  0.1387  0.1203
   18loPI   PO4  276   7.612  14.481  10.136 -0.4235 -0.2145 -0.0051
   18loPI   GL1  277   7.810  14.425   9.702  0.0545 -0.1831 -0.0147
   18loPI   GL2  278   7.954  14.870   9.525 -0.2276 -0.1121  0.1426
   18loPI   C1A  279   7.611  14.306   9.305  0.1813 -0.0621  0.1371
   18loPI   C2A  280   7.683  14.345   8.912 -0.0268 -0.3629 -0.0350
   18loPI   C3A  281   7.980  14.160   8.577 -0.0067 -0.0060  0.3690
   18loPI   C4A  282   8.104  14.272   8.215  0.0427 -0.2111  0.2209
   18loPI   C5A  283   8.237  14.407   7.875 -0.3434  0.1385 -0.0958
   18loPI   C6A  284   8.250  14.402   7.368 -0.0827 -0.0087  0.0931
   18loPI   C1B  285   8.110  14.804   9.131  0.0323 -0.0186  0.1087
   18loPI   C2B  286   8.127  14.625   8.754  0.3867  0.1350  0.0847
   18loPI   C3B  287   7.802  14.586   8.466 -0.2751 -0.2384  0.2335
   18loPI   C4B  288   7.787  14.604   8.069 -0.0596 -0.2072  0.2491
   19loPI    C1  289   5.365  14.696  10.214  0.1865 -0.1983 -0.0018
   19loPI    C2  290   5.765  14.706  10.212  0.1884 -0.1345  0.2789
   19loPI    C3  291   5.558  15.006  10.377  0.0183 -0.0737 -0.0377
   19loPI   PO4  292   5.297  14.571   9.975 -0.0913 -0.2000  0.2238
   19loPI   GL1  293   5.139  14.805   9.621 -0.0372 -0.2891  0.0842
   19loPI   GL2  294   4.931  14.547   9.567 -0.2739 -0.1812 -0.1113
   19loPI   C1A  295   5.148  14.989   9.242 -0.2006 -0.0439 -0.1798
   19loPI   C2A  296   5.002  14.861   8.793  0.2105  0.0594  0.1089
   19loPI   C3A  297   4.815  14.531   8.453  0.1852 -0.2492 -0.1589
   19loPI   C4A  298   4.769  14.374   8.040  0.0047 -0.1887 -0.2193
   19loPI   C5A  299   4.698  14.389   7.521  0.1194  0.1572 -0.1440
   19loPI   C6A  300   4.989  14.336   7.208 -0.1244  0.2125 -0.4467
   19loPI   C1B  301   4.811  14.593   9.163  0.1428 -0.2981  0.2965
   19loPI   C2B  302   4.988  14.380   8.902 -0.1598  0.2467 -0.2071
   19loPI   C3B  303   5.294  14.479   8.548  0.1158 -0.1857  0.1113
   19loPI   C4B  304   5.241  14.516   8.117  0.1245 -0.1298  0.2098
   20loPI    C1  305   1.187   5.967  10.050 -0.1922  0.0823 -0.2987
   20loPI    C2  306   1.146   6.357   9.971  0.0094  0.1434 -0.1099
   20loPI    C3  307   1.099   6.222  10.345  0.1437  0.0176 -0.1374
   20loPI   PO4  308   1.362   5.856   9.946 -0.2068 -0.0677 -0.1645
   20loPI   GL1  309   1.553   5.595   9.514 -0.2149  0.3256  0.1027
   20loPI   GL2  310   1.408   5.291   9.417  0.2391  0.2717 -0.1120
   20loPI   C1A  311   1.582   5.646   9.086  0.1438 -0.1693 -0.1698
   20loPI   C2A  312   1.616   5.705   8.571 -0.1863 -0.1557  0.0799
   20loPI   C3A  313   1.598   5.779   8.163 -0.0206 -0.1321  0.0002
   20loPI   C4A  314   1.505   5.905   7.835 -0.0694 -0.0839  0.1501
   20loPI   C5A  315   1.372   6.206   7.544  0.2206  0.0317  0.3239
   20loPI   C6A  316   1.606   6.240   7.101 -0.0174  0.2082  0.0256
   20loPI   C1B  317   1.237   5.315   8.993  0.0869 -0.1561  0.2199
   20loPI   C2B  318   1.382   5.234   8.629 -0.3090  0.0892 -0.1599
   20loPI   C3B  319   1.656   5.225   8.264 -0.0497  0.1497  0.5789
   20loPI   C4B  320   2.055   5.167   8.054  0.1506  0.1059  0.0104
   21loPI    C1  321   5.704  10.996  10.123 -0.0073  0.0751 -0.2941
   21loPI    C2  322   5.571  11.347  10.260  0.2280  0.0279  0.0704
   21loPI    C3  323   5.832  11.134  10.475  0.0361 -0.4061 -0.1128
   21loPI   PO4  324   5.733  10.985   9.919 -0.0172 -0.0330 -0.1604
   21loPI   GL1  325   6.061  10.870   9.678  0.0122 -0.0587  0.0727
   21loPI   GL2  326   6.213  11.164   9.620  0.1575 -0.2249  0.0254
   21loPI   C1A  327   5.762  10.743   9.349  0.0845  0.0827  0.2911
   21loPI   C2A  328   5.728  10.929   8.951  0.1528  0.2118  0.1653
   21loPI   C3A  329   5.670  10.962   8.503 -0.1643 -0.0056  0.0633
   21loPI   C4A  330   5.704  11.104   8.121 -0.0502  0.0421 -0.1968
   21loPI   C5A  331   5.880  11.294   7.757  0.0536  0.2585  0.0664
   21loPI   C6A  332   6.089  11.289   7.315 -0.0656  0.5374  0.1981
   21loPI   C1B  333   6.159  10.978   9.189  0.0102  0.0970 -0.1139
   21loPI   C2B  334   6.219  10.979   8.701 -0.1690  0.0176  0.1553
   21loPI   C3B  335   6.237  11.149   8.256 -0.4052 -0.1109 -0.2997
   21loPI   C4B  336   6.536  11.210   7.983  0.0423  0.1042  0.0556
   22loPI    C1  337  16.204  17.982  10.434  0.0814 -0.1017 -0.0252
   22loPI    C2  338  16.236  18.378  10.475  0.0967 -0.1048 -0.0078
   22loPI    C3  339  16.088  18.157  10.774  0.1149 -0.1154 -0.0067
   22loPI   PO4  340  16.167  17.924  10.100 -0.0243  0.0064  0.1596
   22loPI   GL1  341  16.373  17.984   9.746  0.2893  0.0663  0.2703
   22loPI   GL2  342  16.270  18.297   9.537 -0.0548  0.1862 -0.0020
   22loPI   C1A  343  16.584  17.865   9.395 -0.3511  0.5183  0.0216
   22loPI   C2A  344  16.717  17.747   9.005  0.1113 -0.0716 -0.1059
   22loPI   C3A  345  16.667  17.679   8.541  0.3017  0.0727  0.1369
   22loPI   C4A  346  16.770  17.680   8.151 -0.1593 -0.1118  0.0388
   22loPI   C5A  347  16.817  17.490   7.715 -0.1372 -0.1281 -0.2571
   22loPI   C6A  348  16.612  17.560   7.424  0.3722 -0.2821 -0.0898
   22loPI   C1B  349  15.935  18.289   9.237  0.0736 -0.1485 -0.0232
   22loPI   C2B  350  15.893  18.333   8.818 -0.1692 -0.1052 -0.0075
   22loPI   C3B  351  15.896  18.077   8.498 -0.3671 -0.0017 -0.1537
   22loPI   C4B  352  15.940  17.932   8.053 -0.0140 -0.3944  0.1065
   23loPI    C1  353   2.993  11.043   9.916 -0.1447  0.0451 -0.0857
   23loPI    C2  354   2.935  10.906  10.287 -0.2889 -0.2232 -0.2041
   23loPI    C3  355   3.294  10.868  10.114 -0.2207 -0.0954 -0.0932
   23loPI   PO4  356   2.801  10.957   9.696  0.0292  0.0343 -0.0931
   23loPI   GL1  357   2.867  10.852   9.254  0.1264  0.2170  0.3060
   23loPI   GL2  358   3.040  11.174   9.314  0.0240  0.1885  0.0580
   23loPI   C1A  359   3.224  10.838   8.959 -0.0509  0.2003 -0.4035
   23loPI   C2A  360   3.270  10.860   8.556 -0.0174  0.1138 -0.2925
   23loPI   C3A  361   3.066  10.716   8.239  0.0631  0.2125  0.1513
   23loPI   C4A  362   3.017  10.518   7.794 -0.1573  0.0266 -0.0814
   23loPI   C5A  363   3.103  10.112   7.719 -0.0542 -0.0076  0.1223
   23loPI   C6A  364   2.933   9.776   7.770 -0.0267 -0.2030  0.0907
   23loPI   C1B  365   3.173  11.431   8.919 -0.3494 -0.2780 -0.1945
   23loPI   C2B  366   2.996  11.606   8.600 -0.1011 -0.2801 -0.2092
   23loPI   C3B  367   2.626  11.548   8.207 -0.2267 -0.1874  0.0116
   23loPI   C4B  368   2.415  11.182   8.167 -0.1103  0.1551  0.2653
   24loPI    C1  369   4.284   2.977  10.101  0.0491  0.0379 -0.0496
   24loPI    C2  370   3.941   2.827   9.961  0.0776  0.0983 -0.1856
   24loPI    C3  371   3.939   3.066  10.282  0.0182 -0.0868 -0.0467
   24loPI   PO4  372   4.405   3.082   9.926 -0.3440 -0.0328  0.2462
   24loPI   GL1  373   4.560   2.958   9.526  0.1906  0.1491  0.2594
   24loPI   GL2  374   4.816   2.704   9.657 -0.2281 -0.1279 -0.4515
   24loPI   C1A  375   4.512   2.761   9.197  0.3175  0.1645 -0.1683
   24loPI   C2A  376   4.580   2.746   8.878  0.3132 -0.0601  0.0912
   24loPI   C3A  377   4.328   2.812   8.481  0.0085  0.0339 -0.1988
   24loPI   C4A  378   4.215   3.025   8.111 -0.3612 -0.2664  0.0701
   24loPI   C5A  379   4.036   3.088   7.687 -0.0243 -0.2449  0.3962
   24loPI   C6A  380   3.804   2.992   7.330 -0.2664 -0.0971  0.3896
   24loPI   C1B  381   4.963   2.604   9.196 -0.1133  0.2737 -0.1887
   24loPI   C2B  382   4.996   2.585   8.749 -0.1104 -0.1500  0.1018
   24loPI   C3B  383   5.221   2.444   8.382 -0.1414  0.0543  0.1226
   24loPI   C4B  384   5.088   2.454   7.938  0.0179  0.1690  0.0305
   25loPI    C1  385  17.178   3.198  10.087 -0.1164  0.0058 -0.0650
   25loPI    C2  386  17.495   3.018  10.253 -0.0387  0.2243  0.0279
   25loPI    C3  387  17.128   2.954  10.399 -0.0229  0.0707  0.0014
   25loPI   PO4  388  17.196   3.115   9.854 -0.0971 -0.1156  0.5125
   25loPI   GL1  389  17.335   3.409   9.545  0.0155 -0.2960 -0.1013
   25loPI   GL2  390  17.743   3.397   9.542  0.3202  0.1537 -0.0171
   25loPI   C1A  391  17.017   3.410   9.146 -0.0554  0.2158  0.1148
   25loPI   C2A  392  16.857   3.188   8.818 -0.0887  0.1338  0.0767
   25loPI   C3A  393  17.024   3.116   8.413 -0.2392  0.0466  0.0363
   25loPI   C4A  394  16.963   3.019   7.916 -0.4975  0.1797 -0.0107
   25loPI   C5A  395  16.523   2.910   7.512  0.1456  0.2912 -0.2011
   25loPI   C6A  396  16.078   2.913   7.375 -0.2731 -0.0685  0.0512
   25loPI   C1B  397  17.973   3.229   9.179 -0.0459 -0.1213 -0.1158
   25loPI   C2B  398  18.013   3.355   8.791  0.0244 -0.1521  0.0877
   25loPI   C3B  399  17.916   3.606   8.393 -0.1968 -0.2378 -0.0614
   25loPI   C4B  400  17.684   3.687   8.007 -0.0605 -0.2494 -0.3020
   26loPI    C1  401  13.688   8.818  10.523  0.1302  0.0802 -0.1261
   26loPI    C2  402  13.965   8.551  10.633 -0.0612 -0.0529  0.0407
   26loPI    C3  403  13.866   8.850  10.880 -0.0539  0.0052 -0.0263
   26loPI   PO4  404  13.709   8.864  10.313 -0.0211  0.2779  0.1897
   26loPI   GL1  405  13.838   8.689   9.957  0.3047  0.2911 -0.0254
   26loPI   GL2  406  13.786   8.419   9.862 -0.0560 -0.3589 -0.2283
   26loPI   C1A  407  13.683   9.050   9.624 -0.2927 -0.0125  0.0006
   26loPI   C2A  408  13.592   9.049   9.237  0.0487  0.0915  0.2091
   26loPI   C3A  409  13.728   9.077   8.833  0.3318  0.3495 -0.0281
   26loPI   C4A  410  13.708   9.017   8.484 -0.1067  0.1665  0.4084
   26loPI   C5A  411  13.718   9.008   7.982  0.3007  0.4732  0.0016
   26loPI   C6A  412  13.563   9.117   7.596  0.1384 -0.4240  0.2328
   26loPI   C1B  413  13.855   8.245   9.435 -0.0102 -0.0583 -0.0633
   26loPI   C2B  414  13.700   8.069   9.116  0.2421 -0.1327 -0.0645
   26loPI   C3B  415  13.892   7.934   8.809  0.3376 -0.0173 -0.1689
   26loPI   C4B  416  14.132   7.758   8.780 -0.0824  0.1295  0.1615
   27loPI    C1  417   4.253  11.215  10.220  0.0863  0.1511 -0.1674
   27loPI    C2  418   3.857  11.234  10.165  0.0395  0.0972  0.1340
   27loPI    C3  419   4.005  11.162  10.530  0.3247 -0.0371 -0.0049
   27loPI   PO4  420   4.229  11.366   9.859  0.0225  0.3320  0.4693
   27loPI   GL1  421   4.131  11.756   9.519  0.0493  0.4513 -0.0792
   27loPI   GL2  422   3.977  11.601   9.402  0.0869  0.1144  0.1456
   27loPI   C1A  423   4.347  11.860   9.131  0.0016 -0.2675  0.0434
   27loPI   C2A  424   4.370  11.893   8.710  0.0336 -0.0587 -0.0169
   27loPI   C3A  425   4.230  11.874   8.318 -0.1338 -0.1830 -0.2002
   27loPI   C4A  426   4.317  11.798   7.961 -0.2656  0.0854  0.2761
   27loPI   C5A  427   4.614  11.644   7.656  0.2247 -0.1822  0.0192
   27loPI   C6A  428   4.927  11.754   7.455 -0.1467  0.1540  0.1942
   27loPI   C1B  429   3.909  11.677   9.072  0.1869  0.0753 -0.0986
   27loPI   C2B  430   3.900  11.668   8.647  0.2564 -0.3480 -0.0261
   27loPI   C3B  431   3.878  11.544   8.228 -0.1123  0.1848  0.2975
   27loPI   C4B  432   3.899  11.396   7.777 -0.0429 -0.1305 -0.1416
   28loPI    C1  433  10.311   3.461  10.825 -0.0117 -0.0073 -0.0538
   28loPI    C2  434  10.187   3.763  11.057  0.0043 -0.1510  0.1446
   28loPI    C3  435  10.336   3.431  11.223 -0.1346 -0.3218 -0.0672
   28loPI   PO4  436  10.166   3.437  10.595  0.1723  0.0091  0.0143
   28loPI   GL1  437  10.195   3.362  10.138 -0.0348  0.0961  0.0093
   28loPI   GL2  438  10.016   3.063  10.090  0.0989 -0.0709  0.0879
   28loPI   C1A  439  10.060   3.713   9.869 -0.0254  0.1211 -0.3226
   28loPI   C2A  440   9.841   3.796   9.534  0.1240  0.0361  0.0214
   28loPI   C3A  441   9.645   3.791   9.257 -0.2594 -0.3313 -0.0770
   28loPI   C4A  442   9.580   3.905   8.798 -0.0351 -0.0083 -0.0512
   28loPI   C5A  443   9.442   3.896   8.378 -0.1574  0.1600  0.0555
   28loPI   C6A  444   9.654   3.725   8.043  0.0204 -0.1273 -0.0040
   28loPI   C1B  445   9.790   3.286   9.911  0.0876  0.1154  0.2988
   28loPI   C2B  446   9.689   3.343   9.480 -0.1546  0.1769 -0.1540
   28loPI   C3B  447   9.592   3.318   8.999  0.1524 -0.0102  0.2988
   28loPI   C4B  448   9.514   3.325   8.549 -0.3990 -0.0087  0.2214
   29loPI    C1  449   3.035   6.511  10.202  0.2136 -0.1456 -0.0926
   29loPI    C2  450   2.861   6.668  10.527  0.0927 -0.0949 -0.1811
   29loPI    C3  451   2.636   6.537  10.223  0.1923 -0.4277 -0.1153
   29loPI   PO4  452   3.194   6.737  10.153  0.1893  0.0825 -0.3713
   29loPI   GL1  453   3.287   6.776   9.779 -0.1493 -0.0413  0.3510
   29loPI   GL2  454   3.447   6.388   9.919 -0.2067  0.0678  0.0641
   29loPI   C1A  455   3.508   6.809   9.436  0.0830 -0.0303 -0.1593
   29loPI   C2A  456   3.644   6.742   9.067 -0.2918  0.1103 -0.2365
   29loPI   C3A  457   3.624   6.746   8.627  0.1440  0.2872 -0.2824
   29loPI   C4A  458   3.684   6.542   8.282  0.1794  0.1151  0.1737
   29loPI   C5A  459   3.869   6.447   7.985 -0.0742 -0.2627 -0.0779
   29loPI   C6A  460   3.907   6.460   7.558 -0.0204 -0.2155 -0.1269
   29loPI   C1B  461   3.430   6.294   9.495 -0.1210 -0.0259  0.0674
   29loPI   C2B  462   3.600   6.222   9.119 -0.2398  0.3416 -0.1286
   29loPI   C3B  463   3.594   6.243   8.695  0.0144  0.0002 -0.1136
   29loPI   C4B  464   3.732   6.063   8.211  0.0598 -0.3221 -0.1972
   30loPI    C1  465  18.062   8.645  10.332  0.3123 -0.0536 -0.2691
   30loPI    C2  466  18.323   8.788  10.599  0.0491 -0.0314 -0.0182
   30loPI    C3  467  18.294   8.394  10.539  0.2889 -0.0229 -0.2056
   30loPI   PO4  468  18.087   8.865  10.175 -0.2142  0.3319  0.2214
   30loPI   GL1  469  18.292   9.035   9.813 -0.1094 -0.0831 -0.0119
   30loPI   GL2  470  18.454   9.205   9.708  0.0492 -0.0990  0.0318
   30loPI   C1A  471  18.056   9.129   9.396  0.1550  0.1881  0.1071
   30loPI   C2A  472  18.007   9.333   8.977 -0.1620 -0.1375  0.1192
   30loPI   C3A  473  18.063   9.377   8.556 -0.1555  0.5568 -0.0382
   30loPI   C4A  474  18.059   9.653   8.255 -0.2399  0.1403 -0.0442
   30loPI   C5A  475  17.816   9.777   7.958  0.2093 -0.2201 -0.1785
   30loPI   C6A  476  17.875  10.000   7.617  0.0241  0.1110  0.1886
   30loPI   C1B  477  18.471   9.402   9.304  0.2036  0.3192  0.1261
   30loPI   C2B  478  18.501   9.401   8.864  0.2516 -0.2037 -0.1003
   30loPI   C3B  479  18.537   9.546   8.414 -0.0182 -0.4006  0.0408
   30loPI   C4B  480  18.410   9.400   8.042  0.5272  0.1159 -0.0229
   31loPI    C1  481  14.253  17.938  10.547 -0.3937  0.1465  0.0242
   31loPI    C2  482  14.244  18.271  10.326 -0.1018  0.2724  0.1966
   31loPI    C3  483  14.440  18.268  10.675 -0.0207 -0.1079  0.1520
   31loPI   PO4  484  14.310  17.767  10.338 -0.2581  0.2361 -0.0060
   31loPI   GL1  485  14.532  17.660   9.928 -0.1433 -0.0243  0.0704
   31loPI   GL2  486  14.251  17.540   9.872 -0.2690  0.1692  0.0395
   31loPI   C1A  487  14.501  17.878   9.442 -0.1089  0.2034  0.1632
   31loPI   C2A  488  14.550  17.965   9.010  0.1429  0.0704 -0.0786
   31loPI   C3A  489  14.665  17.906   8.697 -0.0372  0.0265 -0.4198
   31loPI   C4A  490  14.661  17.817   8.351 -0.0138 -0.1901  0.1281
   31loPI   C5A  491  14.926  17.562   8.062 -0.2084  0.0630 -0.1378
   31loPI   C6A  492  15.239  17.734   7.820  0.0759 -0.3206 -0.1054
   31loPI   C1B  493  14.400  17.377   9.507  0.0740 -0.1511  0.0960
   31loPI   C2B  494  14.557  17.461   9.149  0.1626 -0.1930  0.2907
   31loPI   C3B  495  14.707  17.407   8.778 -0.0866 -0.0405  0.1842
   31loPI   C4B  496  14.600  17.319   8.378 -0.1499  0.4375  0.1107
   32loPI    C1  497   4.249   6.276  10.111 -0.1980  0.2124 -0.0289
   32loPI    C2  498   4.135   6.374  10.482 -0.1529 -0.1634  0.0887
   32loPI    C3  499   3.863   6.252  10.215 -0.1484 -0.1662  0.0854
   32loPI   PO4  500   4.395   6.550  10.022  0.1464 -0.1222  0.1310
   32loPI   GL1  501   4.412   6.654   9.573 -0.0965 -0.2617  0.3220
   32loPI   GL2  502   4.547   7.003   9.562  0.1656 -0.1414  0.0260
   32loPI   C1A  503   4.448   6.704   9.060 -0.4565  0.1131  0.1494
   32loPI   C2A  504   4.442   6.839   8.652  0.0591 -0.1083  0.3457
   32loPI   C3A  505   4.385   6.899   8.232  0.0877 -0.0579 -0.2689
   32loPI   C4A  506   4.641   6.883   7.916  0.1966 -0.1297  0.4345
   32loPI   C5A  507   4.936   6.581   7.868  0.0871  0.1979  0.1081
   32loPI   C6A  508   4.985   6.189   7.640 -0.0352 -0.1472  0.1435
   32loPI   C1B  509   4.605   7.197   9.175  0.0643  0.0581 -0.2556
   32loPI   C2B  510   4.551   7.313   8.833 -0.0164 -0.0936 -0.1338
   32loPI   C3B  511   4.323   7.352   8.439 -0.1281  0.0160 -0.0631
   32loPI   C4B  512   4.225   7.332   8.023  0.1031  0.1960 -0.1355
   33loPI    C1  513   2.550  12.543  10.120  0.0448  0.1087  0.1021
   33loPI    C2  514   2.790  12.255   9.981 -0.0618  0.1119 -0.0920
   33loPI    C3  515   2.618  12.216  10.340 -0.0529 -0.0528 -0.1050
   33loPI   PO4  516   2.549  12.691   9.812 -0.0046 -0.0290 -0.0220
   33loPI   GL1  517   2.848  12.446   9.524 -0.0106  0.2181 -0.1008
   33loPI   GL2  518   2.593  12.378   9.433  0.3185  0.0857 -0.1724
   33loPI   C1A  519   2.964  12.287   9.113 -0.1536 -0.3160 -0.1920
   33loPI   C2A  520   2.853  12.177   8.639 -0.3451 -0.0258 -0.1338
   33loPI   C3A  521   2.942  11.983   8.322  0.1551 -0.2004  0.0306
   33loPI   C4A  522   3.003  11.954   7.882  0.0642  0.1586  0.0362
   33loPI   C5A  523   2.965  11.658   7.557 -0.0574 -0.0444  0.4151
   33loPI   C6A  524   3.108  11.362   7.163 -0.1249 -0.0273  0.2722
   33loPI   C1B  525   2.536  12.411   8.940  0.0923 -0.2362 -0.0860
   33loPI   C2B  526   2.412  12.375   8.564 -0.0376 -0.3808  0.0844
   33loPI   C3B  527   2.314  12.479   8.213  0.2585 -0.0975  0.2339
   33loPI   C4B  528   2.544  12.426   7.829  0.1145  0.1795 -0.0127
   34loPI    C1  529  12.351  15.483  10.531 -0.0953  0.0576 -0.0070
   34loPI    C2  530  12.394  15.879  10.569  0.1086  0.0393 -0.0352
   34loPI    C3  531  12.058  15.701  10.695  0.0622  0.2061  0.0803
   34loPI   PO4  532  12.396  15.467  10.158 -0.0718 -0.0374  0.1267
   34loPI   GL1  533  12.746  15.330   9.838  0.1825 -0.2406  0.0480
   34loPI   GL2  534  12.502  15.136   9.801  0.1150 -0.2575 -0.2139
   34loPI   C1A  535  12.832  15.354   9.402  0.2060  0.0912  0.0621
   34loPI   C2A  536  13.054  15.250   9.038  0.4472 -0.1180 -0.0564
   34loPI   C3A  537  13.046  15.263   8.682 -0.1806  0.0255  0.0356
   34loPI   C4A  538  12.931  15.340   8.328 -0.4171  0.0770 -0.2459
   34loPI   C5A  539  12.614  15.291   8.083  0.1895 -0.1853  0.0754
   34loPI   C6A  540  12.402  15.348   7.633 -0.1392 -0.3639 -0.1430
   34loPI   C1B  541  12.508  14.758   9.442  0.1240  0.0458 -0.1791
   34loPI   C2B  542  12.376  14.752   9.066 -0.0472 -0.0400 -0.4837
   34loPI   C3B  543  12.234  14.701   8.618  0.1075  0.0851 -0.1576
   34loPI   C4B  544  12.078  14.703   8.236  0.1873 -0.2872  0.2827
   35loPI    C1  545   9.450   3.150  10.787 -0.2084  0.2429  0.0350
   35loPI    C2  546   9.644   3.496  10.841 -0.2311  0.2157  0.3045
   35loPI    C3  547   9.845   3.151  10.852 -0.2466  0.2058  0.2795
   35loPI   PO4  548   9.227   3.216  10.503 -0.0149  0.1950  0.1231
   35loPI   GL1  549   9.282   3.345  10.036  0.2630  0.2460  0.1722
   35loPI   GL2  550   9.092   3.237   9.754  0.0701  0.1022 -0.0076
   35loPI   C1A  551   9.374   3.688   9.771 -0.3312  0.1139  0.1379
   35loPI   C2A  552   9.194   3.993   9.516 -0.2038 -0.5108 -0.0216
   35loPI   C3A  553   9.186   3.950   9.093  0.2148  0.2553  0.1035
   35loPI   C4A  554   9.006   4.100   8.653 -0.1869 -0.3050  0.1414
   35loPI   C5A  555   8.969   3.984   8.283 -0.0518 -0.1015 -0.0868
   35loPI   C6A  556   8.718   4.011   7.847  0.1842 -0.3299  0.1801
   35loPI   C1B  557   9.222   3.462   9.307  0.1265  0.0986  0.0432
   35loPI   C2B  558   9.154   3.524   8.818  0.1668  0.2801 -0.0954
   35loPI   C3B  559   9.042   3.512   8.351 -0.0293 -0.1053 -0.2103
   35loPI   C4B  560   8.818   3.535   7.989 -0.0318 -0.0814  0.3134
   36loPI    C1  561  10.965   0.608  10.309 -0.0001 -0.0062  0.1400
   36loPI    C2  562  11.036   1.002  10.328  0.0646 -0.0065 -0.0763
   36loPI    C3  563  11.057   0.779  10.659 -0.2427  0.2163  0.0986
   36loPI   PO4  564  10.716   0.586  10.126 -0.1774 -0.2992 -0.0312
   36loPI   GL1  565  10.492   0.658   9.772 -0.1489  0.1221  0.0088
   36loPI   GL2  566  10.856   0.483   9.508  0.0264 -0.0259 -0.4027
   36loPI   C1A  567  10.182   0.759   9.472 -0.3729  0.2858 -0.1289
   36loPI   C2A  568  10.033   0.942   9.054 -0.4121  0.1041 -0.2095
   36loPI   C3A  569   9.871   0.662   8.621  0.1294 -0.2303  0.0992
   36loPI   C4A  570   9.895   0.414   8.192 -0.1701  0.2768 -0.0422
   36loPI   C5A  571   9.837   0.192   7.826  0.0568  0.0449  0.0193
   36loPI   C6A  572   9.804  -0.238   7.723  0.0779  0.1483 -0.1203
   36loPI   C1B  573  10.715   0.740   9.191 -0.1178 -0.3174  0.1882
   36loPI   C2B  574  10.738   0.723   8.788 -0.0579 -0.1244 -0.1172
   36loPI   C3B  575  10.884   0.670   8.474 -0.4202  0.1892  0.0285
   36loPI   C4B  576  10.747   0.844   8.077 -0.2205  0.3451 -0.0453
   37loPI    C1  577  16.056  15.548  10.367  0.0146  0.0498  0.0586
   37loPI    C2  578  16.124  15.166  10.466 -0.0971  0.0021 -0.0458
   37loPI    C3  579  16.273  15.461  10.692 -0.0725 -0.1032  0.0768
   37loPI   PO4  580  15.861  15.507  10.179  0.1986  0.0147 -0.1578
   37loPI   GL1  581  15.773  15.683   9.850  0.0478  0.1754 -0.0608
   37loPI   GL2  582  15.527  15.918   9.892 -0.0985  0.1456 -0.0437
   37loPI   C1A  583  15.711  15.641   9.391  0.2707  0.3121 -0.0293
   37loPI   C2A  584  15.574  15.447   8.990  0.0580 -0.0596 -0.0637
   37loPI   C3A  585  15.502  15.462   8.515 -0.0730 -0.1541  0.2089
   37loPI   C4A  586  15.358  15.554   8.094  0.0622 -0.1513 -0.3527
   37loPI   C5A  587  15.375  15.364   7.649  0.0861 -0.0021 -0.1999
   37loPI   C6A  588  15.155  14.983   7.395  0.0004  0.2939 -0.0268
   37loPI   C1B  589  15.457  16.042   9.521 -0.2266  0.0881 -0.0223
   37loPI   C2B  590  15.488  15.994   8.997 -0.0489  0.0899  0.1125
   37loPI   C3B  591  15.561  16.014   8.510 -0.2873  0.1882  0.0443
   37loPI   C4B  592  15.710  16.058   8.000  0.3193 -0.1336  0.0778
   38loPI    C1  593   9.395  12.699  10.620 -0.0900  0.0660 -0.0592
   38loPI    C2  594   9.452  12.904  10.959 -0.0227  0.0954 -0.0882
   38loPI    C3  595   9.435  12.505  10.968 -0.1778  0.1028 -0.0283
   38loPI   PO4  596   9.496  12.837  10.481 -0.0583  0.1118 -0.0435
   38loPI   GL1  597   9.494  12.721  10.129  0.0718  0.1729 -0.2648
   38loPI   GL2  598   9.252  12.452  10.010  0.3352 -0.1046  0.4775
   38loPI   C1A  599   9.651  12.827   9.751  0.0485 -0.0916  0.0637
   38loPI   C2A  600   9.705  12.874   9.242  0.1635  0.0987  0.0416
   38loPI   C3A  601   9.622  13.015   8.798 -0.3461  0.5056  0.1622
   38loPI   C4A  602   9.689  13.037   8.377  0.2936  0.0974  0.0665
   38loPI   C5A  603   9.813  13.223   7.975  0.1333  0.2994 -0.5773
   38loPI   C6A  604   9.969  13.102   7.613 -0.0712 -0.1390 -0.0316
   38loPI   C1B  605   9.233  12.282   9.605  0.1048  0.1624  0.3291
   38loPI   C2B  606   9.280  12.365   9.230 -0.1551 -0.0978 -0.1056
   38loPI   C3B  607   9.486  12.534   8.849  0.1033  0.1568 -0.0478
   38loPI   C4B  608   9.593  12.524   8.417 -0.3179 -0.0425  0.1053
   39loPI    C1  609   1.550   0.527  10.210  0.1053  0.3479  0.1142
   39loPI    C2  610   1.305   0.657   9.921 -0.2680  0.0231  0.2744
   39loPI    C3  611   1.259   0.787  10.297 -0.1137  0.0525  0.2840
   39loPI   PO4  612   1.532   0.258  10.195 -0.0976  0.2681 -0.1777
   39loPI   GL1  613   1.332   0.188   9.789 -0.4204 -0.0923  0.1304
   39loPI   GL2  614   1.503   0.035   9.745  0.2201 -0.0170  0.1272
   39loPI   C1A  615   1.249   0.573   9.449  0.0569 -0.2334  0.0652
   39loPI   C2A  616   1.030   0.531   9.111 -0.0443  0.0979  0.1313
   39loPI   C3A  617   1.040   0.777   8.689  0.1081  0.0185 -0.2279
   39loPI   C4A  618   1.192   0.949   8.341 -0.3969  0.1615  0.2876
   39loPI   C5A  619   1.282   0.798   7.907  0.3257 -0.0319  0.2383
   39loPI   C6A  620   1.269   0.652   7.521  0.0174 -0.0161 -0.1690
   39loPI   C1B  621   1.385   0.089   9.291 -0.0023  0.4913  0.1892
   39loPI   C2B  622   1.372   0.195   8.734  0.2396 -0.1897 -0.0537
   39loPI   C3B  623   1.288   0.486   8.369  0.2175 -0.0296 -0.1119
   39loPI   C4B  624   0.881   0.596   8.145 -0.1647 -0.1814  0.0010
   40loPI    C1  625  17.002  12.251   9.997  0.3179 -0.1294  0.0737
   40loPI    C2  626  17.203  12.379  10.318  0.1933 -0.0673  0.1276
   40loPI    C3  627  16.940  12.080  10.353  0.0300  0.0738  0.1252
   40loPI   PO4  628  17.183  12.137   9.790  0.0235 -0.0229  0.3422
   40loPI   GL1  629  17.285  12.422   9.456  0.2978  0.1300  0.2143
   40loPI   GL2  630  17.572  12.507   9.643 -0.3424 -0.0873  0.1408
   40loPI   C1A  631  17.102  12.471   9.049  0.0402 -0.2335 -0.2467
   40loPI   C2A  632  16.920  12.654   8.739 -0.3243 -0.2125  0.1048
   40loPI   C3A  633  16.780  12.701   8.345  0.1459 -0.1651  0.3708
   40loPI   C4A  634  16.658  12.873   7.888 -0.3065  0.0172 -0.0724
   40loPI   C5A  635  16.626  12.747   7.527 -0.0369 -0.3552  0.1912
   40loPI   C6A  636  16.726  13.051   7.154  0.1794 -0.1164 -0.3208
   40loPI   C1B  637  17.532  12.818   9.384 -0.1042  0.3613 -0.1620
   40loPI   C2B  638  17.543  12.830   8.869  0.0582  0.1716  0.1073
   40loPI   C3B  639  17.814  13.032   8.497  0.0457  0.1859  0.0369
   40loPI   C4B  640  17.843  13.071   8.061  0.0155  0.1217  0.2540
   41loPI    C1  641   5.429  13.284   9.953  0.1700  0.4740 -0.1372
   41loPI    C2  642   5.216  13.242  10.289  0.0938  0.1399 -0.2242
   41loPI    C3  643   5.313  13.607  10.159  0.1218  0.2728  0.1580
   41loPI   PO4  644   5.450  12.997   9.910 -0.1751 -0.0529  0.0609
   41loPI   GL1  645   5.612  12.639   9.619 -0.0315  0.0864 -0.1766
   41loPI   GL2  646   5.621  12.441   9.350  0.1916 -0.4637 -0.0989
   41loPI   C1A  647   5.470  12.868   9.242  0.2220 -0.3713 -0.0444
   41loPI   C2A  648   5.463  12.903   8.747  0.0232 -0.2411 -0.0149
   41loPI   C3A  649   5.350  12.825   8.360  0.2187 -0.0891 -0.1365
   41loPI   C4A  650   5.344  12.980   7.877  0.4942  0.0403  0.1785
   41loPI   C5A  651   5.138  13.271   7.625 -0.1482  0.0635  0.3008
   41loPI   C6A  652   4.795  13.527   7.616  0.0834 -0.0078  0.1087
   41loPI   C1B  653   5.721  12.156   9.009 -0.0069 -0.0827 -0.0091
   41loPI   C2B  654   5.698  11.918   8.626  0.0125  0.1173  0.1694
   41loPI   C3B  655   5.517  11.613   8.296 -0.0572  0.2693  0.0327
   41loPI   C4B  656   5.431  11.496   7.865  0.3007  0.0986  0.3662
   42loPI    C1  657  11.967   9.269  10.295  0.0614  0.0761  0.1538
   42loPI    C2  658  11.682   9.530  10.399  0.0026 -0.0575  0.3329
   42loPI    C3  659  11.785   9.235  10.650  0.2034 -0.0921  0.2122
   42loPI   PO4  660  11.964   9.114   9.993  0.0336  0.1949 -0.0014
   42loPI   GL1  661  12.019   9.128   9.527 -0.0463 -0.2096 -0.1120
   42loPI   GL2  662  12.259   9.111   9.591 -0.1178 -0.2333  0.1126
   42loPI   C1A  663  11.834   9.130   9.108  0.0132  0.0176  0.2390
   42loPI   C2A  664  11.827   9.141   8.597  0.1333  0.2509  0.2309
   42loPI   C3A  665  11.779   9.063   8.138 -0.2878 -0.2378 -0.3769
   42loPI   C4A  666  11.826   9.175   7.751  0.1990  0.1181  0.2461
   42loPI   C5A  667  11.729   9.201   7.322  0.0618  0.1345 -0.0872
   42loPI   C6A  668  11.848   9.115   6.905  0.0130 -0.0793 -0.2524
   42loPI   C1B  669  12.584   8.966   9.265  0.0537  0.0050  0.0281
   42loPI   C2B  670  12.664   8.878   8.849  0.2343  0.1386  0.0536
   42loPI   C3B  671  12.573   8.879   8.428  0.0272  0.2072  0.2516
   42loPI   C4B  672  12.926   8.746   8.189  0.1157 -0.2235 -0.2257
   43loPI    C1  673   9.917  13.655  10.532 -0.0920 -0.2236  0.2477
   43loPI    C2  674  10.221  13.412  10.624  0.0501 -0.0651  0.2047
   43loPI    C3  675  10.199  13.775  10.789 -0.0136 -0.0039  0.0634
   43loPI   PO4  676   9.931  13.610  10.224  0.0052 -0.2568 -0.1645
   43loPI   GL1  677   9.904  13.659   9.829  0.0183  0.2390 -0.0026
   43loPI   GL2  678  10.198  13.804   9.837 -0.2027  0.0203  0.1961
   43loPI   C1A  679   9.754  13.374   9.466 -0.1454 -0.2327 -0.1708
   43loPI   C2A  680   9.910  13.412   9.050 -0.1135  0.3156 -0.0550
   43loPI   C3A  681   9.975  13.305   8.606  0.2402 -0.1076  0.1464
   43loPI   C4A  682  10.267  13.325   8.240 -0.0945 -0.1938  0.1927
   43loPI   C5A  683  10.316  13.444   7.815  0.1693  0.1051 -0.0328
   43loPI   C6A  684  10.380  13.461   7.418 -0.0815 -0.2717 -0.1851
   43loPI   C1B  685  10.277  13.641   9.453  0.3146 -0.4581 -0.0020
   43loPI   C2B  686  10.509  13.364   9.100  0.3152 -0.1260 -0.0787
   43loPI   C3B  687  10.542  13.010   8.661  0.1216 -0.1143  0.2522
   43loPI   C4B  688  10.682  12.831   8.247  0.0048  0.2576 -0.2037
   44loPI    C1  689   1.687  11.859  10.012 -0.0480 -0.1879 -0.0670
   44loPI    C2  690   1.738  12.255  10.039  0.2239 -0.2247 -0.0101
   44loPI    C3  691   1.555  12.056  10.334  0.3922 -0.1881  0.1200
   44loPI   PO4  692   1.773  11.802   9.822  0.0129 -0.0855  0.1581
   44loPI   GL1  693   1.754  11.743   9.299  0.1341 -0.1838  0.0037
   44loPI   GL2  694   2.041  11.565   9.378  0.0361 -0.2398  0.3204
   44loPI   C1A  695   1.894  11.684   8.898 -0.0302  0.0394 -0.0641
   44loPI   C2A  696   2.084  11.662   8.471 -0.0166  0.0788  0.0740
   44loPI   C3A  697   2.179  11.551   7.991  0.0130  0.0293 -0.1225
   44loPI   C4A  698   2.072  11.129   7.798 -0.1740 -0.1757 -0.0564
   44loPI   C5A  699   2.041  10.782   7.616  0.0144 -0.1479 -0.0689
   44loPI   C6A  700   2.255  10.416   7.535 -0.1330 -0.0944 -0.2314
   44loPI   C1B  701   2.376  11.499   9.010  0.1905  0.2102 -0.1256
   44loPI   C2B  702   2.669  11.265   8.867 -0.1929  0.0150 -0.2513
   44loPI   C3B  703   2.910  11.173   8.386  0.0220  0.1836  0.0850
   44loPI   C4B  704   2.942  11.195   8.039 -0.2152 -0.1927 -0.2390
   45loPI    C1  705  18.711  16.138  10.339  0.1284  0.1804  0.0353
   45loPI    C2  706  18.752  16.290  10.707 -0.1490  0.0425  0.1261
   45loPI    C3  707  19.063  16.115  10.526 -0.0457 -0.0053  0.3475
   45loPI   PO4  708  18.468  16.209  10.236 -0.1119  0.3222 -0.1882
   45loPI   GL1  709  18.259  16.024   9.843 -0.0760  0.0281  0.1611
   45loPI   GL2  710  17.922  16.193   9.808  0.0901 -0.1449 -0.1076
   45loPI   C1A  711  18.343  16.170   9.482  0.0397 -0.2807  0.2326
   45loPI   C2A  712  18.245  16.282   9.125  0.1953  0.3449 -0.0187
   45loPI   C3A  713  18.210  16.448   8.728  0.1251 -0.1182 -0.0313
   45loPI   C4A  714  18.283  16.264   8.289 -0.2414  0.3510 -0.1029
   45loPI   C5A  715  18.179  16.343   7.845  0.1789 -0.1927 -0.0848
   45loPI   C6A  716  18.184  16.256   7.451  0.1489  0.1745  0.2601
   45loPI   C1B  717  17.795  16.186   9.440 -0.1929  0.1761  0.1582
   45loPI   C2B  718  17.788  16.163   8.963  0.0205 -0.0354 -0.2196
   45loPI   C3B  719  17.743  16.380   8.526  0.1979  0.1404 -0.0299
   45loPI   C4B  720  17.865  16.535   8.169 -0.0151 -0.0621 -0.0638
   46loPI    C1  721   5.847  13.391  10.178 -0.3012 -0.0034  0.0745
   46loPI    C2  722   6.101  13.346  10.483 -0.4770  0.1380  0.2442
   46loPI    C3  723   5.871  13.040  10.368  0.0206 -0.1046 -0.1444
   46loPI   PO4  724   5.915  13.506   9.911  0.0760  0.2211  0.0768
   46loPI   GL1  725   5.948  13.440   9.533  0.4287  0.3415  0.0815
   46loPI   GL2  726   5.682  13.230   9.452  0.1614 -0.2591 -0.0896
   46loPI   C1A  727   6.121  13.553   9.147  0.0242 -0.1062 -0.0747
   46loPI   C2A  728   6.057  13.557   8.771  0.0957 -0.0596  0.0802
   46loPI   C3A  729   5.736  13.624   8.533  0.0759 -0.1411 -0.1347
   46loPI   C4A  730   5.516  13.667   8.116 -0.0657  0.4696  0.1062
   46loPI   C5A  731   5.450  13.626   7.636  0.0312 -0.0264 -0.2792
   46loPI   C6A  732   5.149  13.546   7.218 -0.2345  0.3532  0.2476
   46loPI   C1B  733   5.739  13.233   8.980  0.2025 -0.1212  0.2128
   46loPI   C2B  734   5.905  13.079   8.605 -0.1708 -0.1030 -0.0409
   46loPI   C3B  735   5.667  13.211   8.230 -0.4668  0.0628  0.0872
   46loPI   C4B  736   5.847  13.314   7.859  0.0269  0.1694  0.2998
   47loPI    C1  737  10.527   2.484  10.758 -0.0933  0.0318  0.2542
   47loPI    C2  738  10.434   2.119  10.894 -0.0934 -0.0031  0.1611
   47loPI    C3  739  10.810   2.254  10.922 -0.1077  0.0168  0.2581
   47loPI   PO4  740  10.445   2.452  10.520  0.1798  0.2624 -0.3026
   47loPI   GL1  741  10.451   2.184  10.127 -0.0171  0.0425  0.1211
   47loPI   GL2  742  10.726   2.200  10.006 -0.0343 -0.3756 -0.1171
   47loPI   C1A  743  10.470   1.888   9.701  0.1902  0.1193  0.2028
   47loPI   C2A  744  10.506   1.823   9.324  0.2560 -0.1797  0.1223
   47loPI   C3A  745  10.417   1.644   8.838  0.0073  0.2354 -0.0090
   47loPI   C4A  746  10.332   1.588   8.411  0.0638  0.1402  0.0572
   47loPI   C5A  747  10.101   1.619   8.012  0.1210 -0.0238 -0.1673
   47loPI   C6A  748  10.219   1.349   7.628 -0.0470 -0.0535  0.2541
   47loPI   C1B  749  10.567   2.383   9.615 -0.1484 -0.1129  0.4271
   47loPI   C2B  750  10.583   2.444   9.140  0.0752  0.1005  0.0767
   47loPI   C3B  751  10.687   2.519   8.670  0.0420  0.0589  0.3255
   47loPI   C4B  752  10.583   2.769   8.292 -0.4288  0.1185  0.1943
   48loPI    C1  753   8.864   1.231  10.236 -0.2000  0.0878  0.0585
   48loPI    C2  754   8.634   0.906  10.268  0.1356 -0.1536  0.0755
   48loPI    C3  755   8.809   1.059  10.593 -0.0493  0.0683  0.0731
   48loPI   PO4  756   8.790   1.341   9.983  0.0688  0.1713 -0.2404
   48loPI   GL1  757   8.533   1.444   9.642  0.3108  0.1270  0.0455
   48loPI   GL2  758   8.726   1.261   9.447  0.0949  0.1392 -0.0460
   48loPI   C1A  759   8.610   1.805   9.434 -0.0237 -0.1112  0.0293
   48loPI   C2A  760   8.816   2.094   9.219  0.1998 -0.4852  0.2349
   48loPI   C3A  761   8.875   2.169   8.796  0.1484 -0.1340  0.2419
   48loPI   C4A  762   8.809   2.181   8.386  0.2353 -0.1827  0.2842
   48loPI   C5A  763   8.579   2.347   8.059  0.0452  0.1416  0.0987
   48loPI   C6A  764   8.860   2.482   7.781  0.1948  0.0220 -0.1613
   48loPI   C1B  765   8.657   1.410   9.103  0.1239  0.2596  0.3111
   48loPI   C2B  766   8.558   1.100   8.903 -0.0459 -0.2025  0.0032
   48loPI   C3B  767   8.240   1.081   8.594  0.0800  0.0480  0.0299
   48loPI   C4B  768   7.788   1.084   8.418 -0.2861  0.0057  0.0481
   49loPI    C1  769   9.523  15.391  10.364 -0.0465 -0.0671 -0.1433
   49loPI    C2  770   9.565  15.688  10.628 -0.0538 -0.1566 -0.0405
   49loPI    C3  771   9.454  15.325  10.752 -0.4123 -0.1109 -0.2121
   49loPI   PO4  772   9.405  15.518  10.134  0.1156  0.2056 -0.0834
   49loPI   GL1  773   9.256  15.554   9.714 -0.0150  0.1813  0.1400
   49loPI   GL2  774   9.325  15.391   9.403  0.3434 -0.1108 -0.1426
   49loPI   C1A  775   9.310  15.871   9.382  0.0136 -0.1673 -0.2359
   49loPI   C2A  776   9.308  15.718   8.964  0.2143  0.2286  0.1863
   49loPI   C3A  777   9.046  15.632   8.606  0.1004  0.0415 -0.0015
   49loPI   C4A  778   8.876  15.715   8.198 -0.4207 -0.0051  0.0015
   49loPI   C5A  779   8.746  15.720   7.847  0.1618 -0.0731  0.0328
   49loPI   C6A  780   8.390  15.744   7.562  0.2283 -0.0799 -0.0493
   49loPI   C1B  781   9.447  15.215   9.007  0.0781 -0.1253 -0.2191
   49loPI   C2B  782   9.541  15.148   8.549  0.3585 -0.1412  0.2063
   49loPI   C3B  783   9.512  14.962   8.086  0.1549 -0.1658 -0.2022
   49loPI   C4B  784   9.482  15.009   7.618 -0.1023  0.0188  0.1375
   50loPI    C1  785   8.045  14.189  10.088 -0.0383 -0.0172 -0.0199
   50loPI    C2  786   8.170  14.010  10.424  0.1567  0.0259 -0.0681
   50loPI    C3  787   8.042  14.389  10.435  0.1580  0.0256 -0.0414
   50loPI   PO4  788   7.981  13.990   9.955 -0.1568 -0.1129  0.2248
   50loPI   GL1  789   7.931  13.630   9.777  0.1130 -0.2286 -0.0472
   50loPI   GL2  790   8.144  13.748   9.551 -0.1504  0.0795 -0.0716
   50loPI   C1A  791   7.807  13.415   9.321 -0.3231 -0.0889  0.0155
   50loPI   C2A  792   7.714  13.364   8.950  0.1011 -0.2520 -0.0230
   50loPI   C3A  793   7.749  13.281   8.546 -0.3537 -0.1129  0.2349
   50loPI   C4A  794   7.668  13.258   8.194 -0.0570  0.0796  0.1191
   50loPI   C5A  795   7.387  13.252   7.974  0.2445 -0.1261  0.2979
   50loPI   C6A  796   7.279  13.490   7.598 -0.0387  0.3378  0.1058
   50loPI   C1B  797   8.282  13.365   9.203 -0.0540 -0.2312  0.0774
   50loPI   C2B  798   8.193  13.252   8.777  0.1203  0.0990 -0.0667
   50loPI   C3B  799   8.183  12.992   8.430  0.0490  0.1919  0.1258
   50loPI   C4B  800   8.113  13.023   8.062  0.0148 -0.1311 -0.2295
   51loPI    C1  801   0.519  14.843  10.172 -0.2821  0.2593  0.0843
   51loPI    C2  802   0.443  14.770  10.558  0.1635  0.2991  0.1853
   51loPI    C3  803   0.738  14.574  10.371 -0.2957 -0.0050 -0.2484
   51loPI   PO4  804   0.242  14.808  10.056 -0.1981 -0.1766  0.0669
   51loPI   GL1  805  -0.116  14.900   9.672 -0.0876 -0.0823  0.0063
   51loPI   GL2  806  -0.069  15.192   9.611 -0.1924  0.0201 -0.0929
   51loPI   C1A  807   0.005  14.702   9.292  0.0721 -0.1047 -0.2217
   51loPI   C2A  808  -0.222  14.698   8.823 -0.1337 -0.0531 -0.1320
   51loPI   C3A  809  -0.392  14.723   8.483  0.2086 -0.4748 -0.0777
   51loPI   C4A  810  -0.427  14.567   8.057 -0.1528 -0.0695  0.3807
   51loPI   C5A  811  -0.786  14.382   7.819  0.3756  0.2144  0.0207
   51loPI   C6A  812  -0.977  14.271   7.503 -0.1505  0.1442 -0.0670
   51loPI   C1B  813   0.320  15.110   9.335 -0.1122  0.2347  0.0434
   51loPI   C2B  814   0.761  15.233   9.296  0.0492  0.1803  0.2138
   51loPI   C3B  815   0.926  15.600   9.258  0.1312 -0.3562  0.3165
   51loPI   C4B  816   1.288  15.800   9.116 -0.1182  0.4093  0.1415
   52loPI    C1  817  17.684  18.533  10.534  0.0881  0.0912  0.0020
   52loPI    C2  818  18.055  18.519  10.385  0.1431  0.2428  0.1212
   52loPI    C3  819  17.999  18.564  10.779 -0.0020  0.1371  0.1137
   52loPI   PO4  820  17.641  18.325  10.236  0.0902 -0.2770  0.1227
   52loPI   GL1  821  17.661  18.452   9.713  0.0305  0.1333  0.1022
   52loPI   GL2  822  17.375  18.358   9.810 -0.2741  0.2146 -0.0001
   52loPI   C1A  823  17.721  18.559   9.352 -0.0328 -0.3693  0.0193
   52loPI   C2A  824  17.606  18.773   9.010  0.0063 -0.1920  0.0195
   52loPI   C3A  825  17.259  18.764   8.743 -0.0539 -0.1095  0.1339
   52loPI   C4A  826  17.175  18.570   8.337  0.4247 -0.2169  0.1589
   52loPI   C5A  827  17.068  18.523   7.871  0.0561  0.1925 -0.0537
   52loPI   C6A  828  16.825  18.748   7.650 -0.0126  0.1505 -0.2150
   52loPI   C1B  829  17.521  18.056   9.451  0.0417 -0.2037  0.2836
   52loPI   C2B  830  17.514  18.148   9.073  0.0043 -0.3813  0.4020
   52loPI   C3B  831  17.580  18.364   8.654  0.2069 -0.0362  0.0527
   52loPI   C4B  832  17.500  18.260   8.207 -0.2590 -0.1405 -0.0174
   53loPI    C1  833  12.072  11.298  10.031  0.1277 -0.0404 -0.0802
   53loPI    C2  834  12.368  11.207  10.284  0.1676  0.2234 -0.0288
   53loPI    C3  835  11.988  11.182  10.404  0.1682 -0.0626 -0.0778
   53loPI   PO4  836  12.127  11.173   9.807  0.0032 -0.0651  0.0596
   53loPI   GL1  837  12.316  10.995   9.429  0.1865 -0.3677  0.1396
   53loPI   GL2  838  12.456  11.232   9.369  0.0771  0.1677 -0.2737
   53loPI   C1A  839  12.347  10.535   9.196  0.0906  0.1601 -0.1351
   53loPI   C2A  840  12.255  10.303   8.785  0.3392 -0.0646  0.3895
   53loPI   C3A  841  12.338  10.294   8.333  0.0820  0.0320 -0.0870
   53loPI   C4A  842  12.459  10.410   7.835 -0.0250  0.0622  0.4252
   53loPI   C5A  843  12.667  10.683   7.507 -0.0435  0.1434  0.1786
   53loPI   C6A  844  12.871  10.693   7.099  0.2265  0.3606 -0.0575
   53loPI   C1B  845  12.409  11.297   8.955 -0.0262  0.2582  0.0073
   53loPI   C2B  846  12.182  11.553   8.604 -0.2940 -0.1729  0.0121
   53loPI   C3B  847  11.874  11.970   8.440  0.1564 -0.0484 -0.1690
   53loPI   C4B  848  11.931  12.317   8.130 -0.0195 -0.0891 -0.0300
   54loPI    C1  849  14.200   6.666  10.309  0.2852 -0.0190  0.1190
   54loPI    C2  850  14.401   6.386  10.107 -0.0670 -0.0337 -0.2237
   54loPI    C3  851  14.135   6.279  10.386  0.0518 -0.0268 -0.1064
   54loPI   PO4  852  14.170   6.832  10.165 -0.0002  0.1659 -0.2017
   54loPI   GL1  853  14.195   6.840   9.765 -0.0689 -0.1864  0.0001
   54loPI   GL2  854  14.059   7.075   9.531  0.1746 -0.1527 -0.2583
   54loPI   C1A  855  14.118   6.492   9.389  0.1273 -0.1755  0.1034
   54loPI   C2A  856  14.084   6.063   9.323  0.4295  0.2681 -0.0833
   54loPI   C3A  857  13.861   5.786   9.096 -0.4206 -0.1138  0.0632
   54loPI   C4A  858  13.765   5.656   8.653 -0.0470 -0.1286  0.0686
   54loPI   C5A  859  13.549   5.611   8.241  0.0035 -0.4794 -0.0535
   54loPI   C6A  860  13.534   5.638   7.858  0.2943 -0.0105 -0.2708
   54loPI   C1B  861  13.768   6.891   9.333  0.1690 -0.0632 -0.0030
   54loPI   C2B  862  13.831   6.649   8.933  0.0418 -0.3553 -0.0375
   54loPI   C3B  863  14.133   6.290   8.889  0.1424  0.0898 -0.0417
   54loPI   C4B  864  14.296   5.877   8.828 -0.4807 -0.0073  0.1280
   55loPI    C1  865   6.999   3.291  10.518 -0.0010 -0.0850 -0.1854
   55loPI    C2  866   7.281   3.046  10.662  0.0140 -0.0394 -0.1369
   55loPI    C3  867   6.997   3.188  10.905  0.1497  0.1899 -0.1093
   55loPI   PO4  868   7.013   3.320  10.252  0.2487 -0.0451 -0.0198
   55loPI   GL1  869   6.778   3.389   9.908  0.1091  0.4246  0.0928
   55loPI   GL2  870   6.904   3.713   9.802 -0.1122  0.1745 -0.0859
   55loPI   C1A  871   6.729   3.344   9.459 -0.0318 -0.1679 -0.0030
   55loPI   C2A  872   6.658   3.354   9.045 -0.0907 -0.1695 -0.0403
   55loPI   C3A  873   6.773   3.321   8.620  0.0651  0.0790  0.0056
   55loPI   C4A  874   6.630   3.164   8.310  0.2352 -0.2259 -0.1975
   55loPI   C5A  875   6.560   3.005   7.982 -0.0582  0.0528 -0.2475
   55loPI   C6A  876   6.925   3.026   7.790 -0.1437  0.1337 -0.1203
   55loPI   C1B  877   6.881   3.801   9.321  0.1922  0.0935 -0.1584
   55loPI   C2B  878   6.866   3.736   8.852 -0.2587  0.1397 -0.2465
   55loPI   C3B  879   6.759   3.821   8.451 -0.2392  0.3230  0.2992
   55loPI   C4B  880   6.458   3.640   8.030 -0.1722  0.1139 -0.1867
   56loPI    C1  881   9.114  11.238  10.660 -0.2304 -0.0309 -0.0668
   56loPI    C2  882   9.077  11.546  10.912 -0.0537  0.1050 -0.2039
   56loPI    C3  883   8.854  11.218  10.963 -0.1620  0.2095  0.0102
   56loPI   PO4  884   9.151  11.368  10.408  0.3278 -0.1034 -0.1386
   56loPI   GL1  885   9.087  11.373  10.081  0.2403 -0.0497 -0.2165
   56loPI   GL2  886   9.388  11.230   9.768  0.3261  0.0607  0.1124
   56loPI   C1A  887   8.854  11.329   9.674 -0.1339 -0.0719 -0.1425
   56loPI   C2A  888   8.677  11.472   9.244 -0.2420  0.1421 -0.1433
   56loPI   C3A  889   8.662  11.614   8.780 -0.2100  0.1519 -0.0614
   56loPI   C4A  890   8.663  11.780   8.400 -0.2621  0.0334  0.1008
   56loPI   C5A  891   8.799  11.914   7.914  0.0640  0.1423  0.2239
   56loPI   C6A  892   8.673  12.217   7.650  0.2556  0.0654 -0.0406
   56loPI   C1B  893   9.308  11.402   9.413  0.1522 -0.1617 -0.1235
   56loPI   C2B  894   9.156  11.542   9.000  0.0719 -0.1045 -0.4302
   56loPI   C3B  895   9.168  11.680   8.558  0.2389 -0.1229  0.1026
   56loPI   C4B  896   9.153  11.570   8.160  0.0574 -0.1201 -0.2345
   57loPI    C1  897   1.862   6.910  10.318  0.0078  0.0772 -0.0248
   57loPI    C2  898   1.787   7.230  10.546 -0.3183 -0.0295  0.0231
   57loPI    C3  899   1.709   6.862  10.685  0.0220 -0.1305 -0.0444
   57loPI   PO4  900   2.128   6.985  10.239  0.0461  0.0035 -0.2261
   57loPI   GL1  901   2.379   6.928   9.885 -0.2131 -0.0935 -0.0687
   57loPI   GL2  902   2.557   6.700   9.642 -0.3045 -0.2404  0.0338
   57loPI   C1A  903   2.368   7.273   9.540 -0.0155 -0.0890 -0.3689
   57loPI   C2A  904   2.582   7.192   9.062 -0.0876  0.0493 -0.1670
   57loPI   C3A  905   2.767   7.228   8.612 -0.0854  0.0404 -0.2706
   57loPI   C4A  906   2.939   7.117   8.180  0.0788  0.1504 -0.0518
   57loPI   C5A  907   3.116   7.106   7.821  0.1661 -0.2061 -0.1941
   57loPI   C6A  908   3.471   7.180   7.672 -0.0898  0.1737  0.1079
   57loPI   C1B  909   2.582   6.693   9.163 -0.0105  0.2123  0.0834
   57loPI   C2B  910   2.785   6.758   8.797 -0.1643  0.0135  0.1383
   57loPI   C3B  911   2.751   6.712   8.430 -0.0806  0.1519  0.1792
   57loPI   C4B  912   2.518   6.747   8.181  0.0598  0.3294  0.1751
   58loPI    C1  913  14.968  12.100  10.228  0.2846 -0.0331 -0.1834
   58loPI    C2  914  15.162  12.347  10.475  0.2163 -0.0711 -0.0913
   58loPI    C3  915  15.147  11.955  10.556  0.0112 -0.0541 -0.0406
   58loPI   PO4  916  14.674  12.291  10.190  0.0034  0.0543 -0.0094
   58loPI   GL1  917  14.722  12.487   9.875 -0.0520 -0.0082  0.1870
   58loPI   GL2  918  15.061  12.357   9.808 -0.1499 -0.0491 -0.2723
   58loPI   C1A  919  14.627  12.496   9.435 -0.0656 -0.3285  0.0339
   58loPI   C2A  920  14.723  12.378   9.054  0.2328  0.0792 -0.0407
   58loPI   C3A  921  14.573  12.102   8.736  0.0702  0.0008 -0.0422
   58loPI   C4A  922  14.518  12.141   8.256  0.0990 -0.0163 -0.0039
   58loPI   C5A  923  14.606  12.157   7.857 -0.0296  0.0437  0.2667
   58loPI   C6A  924  14.597  11.983   7.371 -0.3696  0.4087  0.0376
   58loPI   C1B  925  15.125  12.319   9.337  0.0531 -0.1363 -0.1885
   58loPI   C2B  926  15.176  12.426   8.919 -0.2450  0.0202  0.1763
   58loPI   C3B  927  14.788  12.523   8.615 -0.1821 -0.1920  0.1399
   58loPI   C4B  928  14.638  12.893   8.468 -0.2252 -0.0918  0.2584
   59loPI    C1  929   5.601  15.205   9.870 -0.2558  0.0184 -0.0562
   59loPI    C2  930   5.260  15.285   9.677 -0.0248  0.3922 -0.3211
   59loPI    C3  931   5.522  15.578   9.751 -0.0210  0.2241  0.4059
   59loPI   PO4  932   5.660  14.946   9.776 -0.1491  0.0243 -0.4709
   59loPI   GL1  933   5.583  14.718   9.360  0.0966 -0.1225  0.1334
   59loPI   GL2  934   5.436  14.517   9.242  0.0605  0.0344  0.3306
   59loPI   C1A  935   5.528  14.941   8.897 -0.0555 -0.0095 -0.0846
   59loPI   C2A  936   5.367  14.952   8.475  0.1825  0.0686 -0.0956
   59loPI   C3A  937   4.956  14.993   8.252 -0.1359  0.0750 -0.3108
   59loPI   C4A  938   4.622  15.061   7.916 -0.1082  0.0880  0.1304
   59loPI   C5A  939   4.393  14.693   7.701  0.3071  0.2060  0.0805
   59loPI   C6A  940   4.089  14.484   7.590 -0.1906  0.3352 -0.2178
   59loPI   C1B  941   5.719  14.478   8.929 -0.4672  0.0982 -0.1316
   59loPI   C2B  942   5.853  14.596   8.549  0.1149  0.0868 -0.1619
   59loPI   C3B  943   5.753  14.755   8.160 -0.0696  0.0033 -0.0738
   59loPI   C4B  944   5.441  15.004   7.994 -0.1042  0.1712  0.0292
   60loPI    C1  945   3.525  16.873   9.772 -0.0563  0.1141 -0.0045
   60loPI    C2  946   3.917  16.799   9.747 -0.0050  0.2430  0.3606
   60loPI    C3  947   3.669  16.515   9.879 -0.0686  0.0866 -0.0796
   60loPI   PO4  948   3.478  17.035   9.587 -0.1351  0.2639 -0.1108
   60loPI   GL1  949   3.710  17.384   9.570 -0.0925 -0.0126 -0.1281
   60loPI   GL2  950   3.501  17.705   9.635  0.2379  0.0048 -0.2853
   60loPI   C1A  951   3.785  17.426   9.193  0.2740  0.1505  0.1012
   60loPI   C2A  952   3.750  17.645   8.672  0.2058 -0.0411 -0.3339
   60loPI   C3A  953   3.938  17.579   8.267  0.3873  0.4520 -0.2649
   60loPI   C4A  954   3.887  17.485   7.803 -0.1253  0.1634 -0.0104
   60loPI   C5A  955   3.593  17.410   7.444 -0.2419  0.0153  0.2861
   60loPI   C6A  956   3.500  16.916   7.444 -0.3171 -0.0648  0.4376
   60loPI   C1B  957   3.517  17.825   9.214  0.5260  0.0490 -0.0578
   60loPI   C2B  958   3.410  18.005   8.808  0.1636 -0.2491  0.1572
   60loPI   C3B  959   3.152  17.931   8.416  0.2785 -0.0654 -0.0678
   60loPI   C4B  960   3.045  17.951   7.927 -0.1015 -0.0618  0.0218
   61loPI    C1  961  15.614   0.690   9.823  0.1199 -0.3682 -0.0577
   61loPI    C2  962  15.627   0.632  10.219 -0.1071 -0.0558 -0.0010
   61loPI    C3  963  15.328   0.475  10.003 -0.0802 -0.0783 -0.0221
   61loPI   PO4  964  15.609   0.941   9.754 -0.1557 -0.0185 -0.4663
   61loPI   GL1  965  15.802   1.236   9.497  0.0957 -0.2576 -0.0710
   61loPI   GL2  966  15.756   1.628   9.445  0.4144  0.0618 -0.2931
   61loPI   C1A  967  15.737   1.142   9.091 -0.2417  0.0874 -0.0499
   61loPI   C2A  968  15.626   1.105   8.681  0.0053  0.0419 -0.0912
   61loPI   C3A  969  15.726   1.189   8.248  0.1898 -0.0419 -0.0102
   61loPI   C4A  970  15.944   1.259   7.888  0.2483 -0.1847  0.1755
   61loPI   C5A  971  16.130   1.523   7.670 -0.0369 -0.2771  0.0117
   61loPI   C6A  972  16.431   1.848   7.817  0.2673 -0.2362  0.0245
   61loPI   C1B  973  15.841   1.667   9.076 -0.1696 -0.1164  0.0082
   61loPI   C2B  974  15.774   1.658   8.671  0.0605  0.1388  0.0747
   61loPI   C3B  975  16.104   1.273   8.587  0.0027 -0.1536 -0.0639
   61loPI   C4B  976  16.083   0.847   8.434 -0.0740  0.0550 -0.1239
   62loPI    C1  977  15.645   3.137  10.113 -0.0227 -0.0191 -0.1761
   62loPI    C2  978  15.964   3.176   9.875  0.0323  0.0568 -0.0907
   62loPI    C3  979  15.990   3.273  10.262 -0.0886  0.0429 -0.0786
   62loPI   PO4  980  15.577   2.870  10.033  0.1647 -0.0733 -0.1803
   62loPI   GL1  981  15.624   2.818   9.646 -0.0649  0.2932  0.3108
   62loPI   GL2  982  16.014   2.827   9.554 -0.1762  0.0327  0.0703
   62loPI   C1A  983  15.459   2.971   9.294 -0.2382  0.1469  0.1457
   62loPI   C2A  984  15.228   3.053   8.924 -0.0441 -0.1289 -0.1811
   62loPI   C3A  985  15.413   2.924   8.488  0.3792  0.2387 -0.0110
   62loPI   C4A  986  15.460   2.938   7.940  0.2146 -0.1924 -0.0142
   62loPI   C5A  987  15.630   2.763   7.717 -0.2005 -0.0626  0.0751
   62loPI   C6A  988  15.833   2.437   7.556 -0.4049 -0.1120  0.1029
   62loPI   C1B  989  15.952   3.181   9.314  0.0120  0.2993 -0.0834
   62loPI   C2B  990  15.634   3.489   9.293 -0.1166 -0.2118  0.2043
   62loPI   C3B  991  15.321   3.537   9.063  0.0229  0.1397 -0.2632
   62loPI   C4B  992  15.102   3.924   9.112  0.3462  0.2218 -0.3928
   63loPI    C1  993   0.640   5.173   9.940  0.3287  0.0359 -0.1933
   63loPI    C2  994   0.636   4.933  10.260 -0.0693  0.1474 -0.1084
   63loPI    C3  995   0.834   5.280  10.272  0.1579  0.0189 -0.0867
   63loPI   PO4  996   0.761   5.059   9.702  0.2497 -0.1652  0.1771
   63loPI   GL1  997   0.910   5.256   9.442 -0.1966 -0.1022  0.0380
   63loPI   GL2  998   0.757   5.496   9.367  0.2515  0.0128  0.1688
   63loPI   C1A  999   0.772   5.210   8.995  0.0388 -0.2867  0.0457
   63loPI   C2A 1000   0.658   5.431   8.707  0.2359  0.0141 -0.1827
   63loPI   C3A 1001   0.500   5.640   8.495  0.3374  0.1631 -0.1146
   63loPI   C4A 1002   0.722   6.006   8.319 -0.2573  0.0454  0.2557
   63loPI   C5A 1003   0.907   6.364   8.585 -0.4024 -0.0547  0.0280
   63loPI   C6A 1004   1.263   6.491   8.900  0.2376  0.1249 -0.0783
   63loPI   C1B 1005   1.100   5.734   9.171 -0.0421  0.1928  0.2013
   63loPI   C2B 1006   1.224   5.947   8.784 -0.1296  0.2208 -0.2174
   63loPI   C3B 1007   1.279   6.143   8.345  0.1705  0.2394  0.1613
   63loPI   C4B 1008   1.072   6.052   7.984 -0.0173  0.1877 -0.0762
   64loPI    C1 1009   7.605   3.383  10.766 -0.1217  0.4366  0.1366
   64loPI    C2 1010   7.733   3.023  10.885 -0.1274  0.3374 -0.1494
   64loPI    C3 1011   7.883   3.354  11.051  0.0886  0.2097 -0.0864
   64loPI   PO4 1012   7.633   3.397  10.500 -0.2504  0.2531  0.1567
   64loPI   GL1 1013   7.758   3.450  10.138 -0.2834 -0.0788  0.1218
   64loPI   GL2 1014   8.094   3.479  10.247  0.0258  0.0079 -0.3546
   64loPI   C1A 1015   7.789   3.507   9.733 -0.1613  0.1437  0.2425
   64loPI   C2A 1016   7.760   3.580   9.320  0.1194  0.1439 -0.3190
   64loPI   C3A 1017   7.777   3.702   8.890  0.0009 -0.0487 -0.2157
   64loPI   C4A 1018   7.881   3.595   8.433  0.1247  0.0956 -0.0168
   64loPI   C5A 1019   7.861   3.785   8.140  0.0985 -0.1300 -0.0764
   64loPI   C6A 1020   7.826   4.212   7.830 -0.1146 -0.0724  0.2630
   64loPI   C1B 1021   8.104   3.147   9.949 -0.0064  0.3376  0.1169
   64loPI   C2B 1022   7.910   3.036   9.554 -0.2428 -0.0024  0.0657
   64loPI   C3B 1023   7.884   3.149   9.116  0.0948  0.1670  0.1779
   64loPI   C4B 1024   7.747   3.248   8.721 -0.1805 -0.1558 -0.0526
   65loPI    C1 1025   2.835  15.485   9.845  0.1498 -0.0544 -0.0671
   65loPI    C2 1026   2.615  15.765  10.026 -0.0295  0.0418 -0.4250
   65loPI    C3 1027   2.943  15.623  10.205 -0.3258 -0.0376  0.0764
   65loPI   PO4 1028   2.614  15.567   9.579  0.1628 -0.1385  0.2465
   65loPI   GL1 1029   2.379  15.527   9.269  0.0064 -0.1294  0.0712
   65loPI   GL2 1030   2.074  15.578   9.299 -0.1154 -0.2362 -0.2449
   65loPI   C1A 1031   2.233  15.352   8.887  0.0142  0.1217  0.1527
   65loPI   C2A 1032   2.545  15.586   8.780  0.0722 -0.0107 -0.4241
   65loPI   C3A 1033   2.532  15.813   8.381  0.2332  0.2043 -0.1047
   65loPI   C4A 1034   2.387  15.912   7.979 -0.1151  0.2954 -0.4340
   65loPI   C5A 1035   1.896  15.867   7.855  0.0882  0.1592 -0.2841
   65loPI   C6A 1036   1.571  16.146   7.743  0.2057  0.0539 -0.1475
   65loPI   C1B 1037   1.766  15.630   8.970  0.2107 -0.2966  0.0484
   65loPI   C2B 1038   1.278  15.545   8.711 -0.1900 -0.0201 -0.1355
   65loPI   C3B 1039   1.170  15.536   8.266  0.1896  0.0882 -0.3155
   65loPI   C4B 1040   0.877  15.575   7.943  0.0544 -0.0336 -0.1465
   66loPI    C1 1041   0.609  18.777  10.158 -0.1895 -0.0077 -0.2066
   66loPI    C2 1042   0.472  19.144  10.079 -0.3393 -0.0124  0.0221
   66loPI    C3 1043   0.446  18.996  10.450  0.0505 -0.1158  0.0125
   66loPI   PO4 1044   0.823  18.790   9.999 -0.1602  0.0933  0.0037
   66loPI   GL1 1045   1.109  18.542   9.660 -0.2154  0.0474 -0.0388
   66loPI   GL2 1046   1.221  18.548   9.442 -0.1314  0.2925 -0.0842
   66loPI   C1A 1047   0.829  18.237   9.485  0.0867  0.0390  0.2117
   66loPI   C2A 1048   0.654  18.276   9.051 -0.1481 -0.0754  0.0879
   66loPI   C3A 1049   0.630  18.127   8.601  0.0405 -0.1411 -0.4506
   66loPI   C4A 1050   0.507  18.149   8.178 -0.0488 -0.3482 -0.1467
   66loPI   C5A 1051   0.543  17.943   7.875  0.0295 -0.0483  0.3073
   66loPI   C6A 1052   0.416  17.957   7.446  0.2211  0.2738  0.3131
   66loPI   C1B 1053   1.483  18.534   9.013 -0.3805 -0.0153  0.3710
   66loPI   C2B 1054   1.444  18.639   8.585  0.0665 -0.2077  0.2602
   66loPI   C3B 1055   1.545  18.915   8.282 -0.0992  0.1261 -0.0688
   66loPI   C4B 1056   1.518  19.176   7.964  0.4202  0.1181  0.0440
   67loPI    C1 1057   3.821  12.462  10.072 -0.2132  0.1641  0.2857
   67loPI    C2 1058   4.086  12.215   9.904 -0.3688  0.1668  0.0302
   67loPI    C3 1059   3.930  12.128  10.262 -0.1252  0.0987  0.1219
   67loPI   PO4 1060   3.755  12.623   9.852  0.1443  0.0240 -0.1876
   67loPI   GL1 1061   3.738  12.631   9.503  0.1059  0.4635  0.1058
   67loPI   GL2 1062   3.980  12.671   9.368 -0.0438  0.1021  0.1456
   67loPI   C1A 1063   3.492  12.457   9.108 -0.0656  0.0176 -0.1764
   67loPI   C2A 1064   3.453  12.398   8.759  0.1832 -0.0054  0.1836
   67loPI   C3A 1065   3.380  12.388   8.353  0.0977  0.1415  0.1632
   67loPI   C4A 1066   3.470  12.045   8.016 -0.2303 -0.1808 -0.2348
   67loPI   C5A 1067   3.529  12.108   7.564 -0.0541 -0.2213  0.1185
   67loPI   C6A 1068   3.307  11.950   7.250  0.1026 -0.3085  0.0569
   67loPI   C1B 1069   3.869  12.633   8.877  0.2586 -0.0006 -0.1198
   67loPI   C2B 1070   3.930  12.688   8.476 -0.0457  0.3546 -0.2427
   67loPI   C3B 1071   3.781  12.591   8.067 -0.2625  0.1083 -0.4033
   67loPI   C4B 1072   3.568  12.694   7.722  0.1712  0.1017  0.1733
   68loPI    C1 1073  13.563   3.429  10.413 -0.0593 -0.2145  0.3243
   68loPI    C2 1074  13.716   3.782  10.523 -0.1618 -0.0130 -0.1570
   68loPI    C3 1075  13.899   3.442  10.630  0.0697  0.1909  0.1088
   68loPI   PO4 1076  13.417   3.329  10.207  0.1490  0.3440 -0.0189
   68loPI   GL1 1077  13.075   3.407   9.920 -0.1407 -0.1019  0.1130
   68loPI   GL2 1078  12.902   3.046  10.010 -0.0736 -0.1848  0.2033
   68loPI   C1A 1079  13.064   3.343   9.438  0.1568  0.1558  0.1651
   68loPI   C2A 1080  13.062   3.306   8.995 -0.1875 -0.0669 -0.0100
   68loPI   C3A 1081  13.208   3.272   8.565 -0.1871 -0.1220  0.3223
   68loPI   C4A 1082  13.203   3.207   8.192  0.5365  0.1554  0.3225
   68loPI   C5A 1083  13.343   3.042   7.750 -0.0779 -0.0290 -0.1150
   68loPI   C6A 1084  13.450   2.702   7.388  0.0860 -0.0836  0.1911
   68loPI   C1B 1085  12.703   2.900   9.745  0.1896  0.0138  0.0272
   68loPI   C2B 1086  12.540   2.949   9.346  0.1302  0.2735 -0.1520
   68loPI   C3B 1087  12.541   2.892   8.875  0.3641  0.0717 -0.1474
   68loPI   C4B 1088  12.747   3.107   8.530 -0.1610 -0.0672 -0.0190
   69loPI    C1 1089   2.513   0.462  10.466 -0.3620  0.1370  0.0877
   69loPI    C2 1090   2.596   0.362  10.845 -0.0318 -0.1078 -0.0436
   69loPI    C3 1091   2.732   0.707  10.694  0.1382 -0.1733 -0.0419
   69loPI   PO4 1092   2.428   0.167  10.401  0.2754 -0.0422 -0.0730
   69loPI   GL1 1093   2.431   0.123  10.023  0.0603 -0.3160  0.0002
   69loPI   GL2 1094   2.364   0.383   9.960 -0.3450  0.0680  0.3281
   69loPI   C1A 1095   2.836   0.099   9.696  0.2114 -0.0626  0.1906
   69loPI   C2A 1096   3.053  -0.132   9.302 -0.0200  0.2113  0.0761
   69loPI   C3A 1097   3.269   0.149   8.970  0.1354  0.0226  0.0413
   69loPI   C4A 1098   3.245   0.306   8.652 -0.0317  0.0428  0.2212
   69loPI   C5A 1099   3.237   0.360   8.244  0.0596 -0.0438 -0.0792
   69loPI   C6A 1100   3.196   0.518   7.816  0.2631  0.2480 -0.0921
   69loPI   C1B 1101   2.291   0.589   9.621 -0.0495 -0.2180 -0.4221
   69loPI   C2B 1102   2.249   0.689   9.245 -0.1439  0.2574 -0.2514
   69loPI   C3B 1103   2.266   0.411   8.909 -0.0063 -0.3968  0.1311
   69loPI   C4B 1104   2.454   0.177   8.610 -0.0571 -0.0729  0.1862
   70loPI    C1 1105   5.425  17.644  10.645 -0.0702 -0.1306  0.2137
   70loPI    C2 1106   5.155  17.421  10.838 -0.1231 -0.2240  0.0340
   70loPI    C3 1107   5.437  17.245  10.615 -0.1480 -0.1128 -0.0865
   70loPI   PO4 1108   5.251  17.870  10.579  0.1838  0.2012  0.4944
   70loPI   GL1 1109   5.129  17.922  10.064 -0.1699  0.1269 -0.0660
   70loPI   GL2 1110   4.852  17.778   9.920  0.0490  0.0339  0.1863
   70loPI   C1A 1111   5.371  17.901   9.742  0.2958  0.2081  0.0267
   70loPI   C2A 1112   5.622  17.753   9.409 -0.0388  0.0055  0.1235
   70loPI   C3A 1113   5.737  17.998   9.064  0.0063 -0.0566 -0.1337
   70loPI   C4A 1114   5.891  17.920   8.657  0.1362  0.1505 -0.0741
   70loPI   C5A 1115   5.841  17.731   8.271 -0.0092 -0.0228 -0.1927
   70loPI   C6A 1116   5.706  17.691   7.854 -0.0228  0.3439  0.1246
   70loPI   C1B 1117   4.554  17.792   9.593  0.0582 -0.0338 -0.1135
   70loPI   C2B 1118   4.544  17.686   9.190  0.1688  0.0675  0.0035
   70loPI   C3B 1119   4.513  17.716   8.771 -0.1445 -0.1928 -0.1563
   70loPI   C4B 1120   4.550  17.594   8.369  0.0180  0.1275  0.2767
   71loPI    C1 1121   4.228   4.316  10.353  0.0354 -0.2425 -0.1099
   71loPI    C2 1122   4.021   4.516  10.631  0.1369  0.0696 -0.2545
   71loPI    C3 1123   3.928   4.136  10.547 -0.2599  0.1482 -0.1906
   71loPI   PO4 1124   4.229   4.480  10.174  0.0695  0.0909 -0.0826
   71loPI   GL1 1125   4.364   4.539   9.783 -0.1041 -0.0195 -0.0978
   71loPI   GL2 1126   3.986   4.522   9.651  0.0042 -0.3623  0.0924
   71loPI   C1A 1127   4.419   4.151   9.488  0.0248 -0.2081 -0.1924
   71loPI   C2A 1128   4.443   4.135   9.021 -0.0494  0.2812 -0.2560
   71loPI   C3A 1129   4.696   3.887   8.831  0.0945  0.1850  0.1366
   71loPI   C4A 1130   4.842   3.868   8.368  0.0126 -0.0176  0.1572
   71loPI   C5A 1131   4.760   3.840   7.883  0.1802 -0.0796  0.0761
   71loPI   C6A 1132   4.624   4.151   7.552  0.2174  0.1238 -0.1803
   71loPI   C1B 1133   4.067   4.471   9.155 -0.0466  0.1293  0.0656
   71loPI   C2B 1134   3.951   4.796   8.935  0.1052 -0.0339  0.1933
   71loPI   C3B 1135   4.064   4.966   8.523  0.4400 -0.1788 -0.1333
   71loPI   C4B 1136   4.370   5.142   8.164 -0.0035  0.2733  0.0028
   72loPI    C1 1137   8.431   0.315  10.481  0.0744 -0.0336  0.3649
   72loPI    C2 1138   8.160   0.510  10.702 -0.1404  0.2640 -0.1442
   72loPI    C3 1139   8.092   0.132  10.589 -0.0174  0.1007  0.3075
   72loPI   PO4 1140   8.444   0.394  10.270 -0.0393  0.0090 -0.0306
   72loPI   GL1 1141   8.217   0.388   9.930  0.2561 -0.1052  0.2921
   72loPI   GL2 1142   8.585   0.460   9.674  0.0733  0.3548 -0.0602
   72loPI   C1A 1143   7.917   0.565   9.635 -0.1957  0.2576  0.1730
   72loPI   C2A 1144   7.863   0.591   9.227  0.1102 -0.0495  0.0728
   72loPI   C3A 1145   7.915   0.360   8.870 -0.4206  0.1692  0.3716
   72loPI   C4A 1146   8.064   0.231   8.546  0.2553  0.2485  0.1559
   72loPI   C5A 1147   8.429   0.275   8.260 -0.1323  0.1517 -0.1938
   72loPI   C6A 1148   8.369   0.208   7.841 -0.4383 -0.2585  0.0778
   72loPI   C1B 1149   8.354   0.370   9.437  0.1374  0.2203  0.2126
   72loPI   C2B 1150   8.374   0.557   8.999  0.2667  0.0985  0.0775
   72loPI   C3B 1151   8.493   0.599   8.580  0.0187  0.0333 -0.2677
   72loPI   C4B 1152   8.954   0.733   8.450  0.2060 -0.0588  0.1668
   73loPI    C1 1153   7.037  18.446  10.400 -0.1674  0.1356 -0.0678
   73loPI    C2 1154   7.048  18.760  10.153 -0.0162  0.1038 -0.1023
   73loPI    C3 1155   7.353  18.691  10.403 -0.1864  0.1589  0.1234
   73loPI   PO4 1156   6.917  18.281  10.192 -0.0715  0.1485  0.1336
   73loPI   GL1 1157   7.141  18.362   9.777 -0.1175 -0.3014  0.0782
   73loPI   GL2 1158   7.272  18.137   9.563 -0.3813  0.3128 -0.1449
   73loPI   C1A 1159   6.849  18.475   9.438  0.2392 -0.4599 -0.4911
   73loPI   C2A 1160   6.928  18.765   9.051  0.1851  0.0596  0.2215
   73loPI   C3A 1161   6.988  18.937   8.660 -0.1682 -0.3196 -0.2119
   73loPI   C4A 1162   6.990  18.962   8.246 -0.1742 -0.1719 -0.0886
   73loPI   C5A 1163   6.991  18.764   7.972  0.0214  0.1246  0.0876
   73loPI   C6A 1164   6.995  18.789   7.539 -0.0562  0.3308  0.3205
   73loPI   C1B 1165   7.144  18.248   9.128  0.0517 -0.2737  0.3646
   73loPI   C2B 1166   7.183  18.272   8.698 -0.0689  0.1228 -0.2624
   73loPI   C3B 1167   7.192  18.240   8.059  0.0856  0.4112 -0.2682
   73loPI   C4B 1168   7.357  17.869   7.878 -0.1909  0.2537 -0.0068
   74loPI    C1 1169   0.085  12.402   9.482  0.0396  0.2045 -0.3769
   74loPI    C2 1170   0.445  12.563   9.419  0.0834  0.2253 -0.0901
   74loPI    C3 1171   0.178  12.755   9.646  0.0596 -0.0052  0.0793
   74loPI   PO4 1172   0.023  12.314   9.253 -0.1930 -0.0756  0.0874
   74loPI   GL1 1173   0.033  12.405   8.841  0.0153 -0.0316 -0.1165
   74loPI   GL2 1174   0.185  12.107   8.847 -0.1445 -0.1604  0.0061
   74loPI   C1A 1175  -0.371  12.378   8.580  0.3516 -0.1806  0.3785
   74loPI   C2A 1176  -0.256  12.331   8.181  0.3316 -0.3513  0.4973
   74loPI   C3A 1177  -0.279  12.666   7.917 -0.1549  0.3289 -0.1127
   74loPI   C4A 1178  -0.001  12.864   7.578 -0.1729 -0.1219  0.0109
   74loPI   C5A 1179   0.044  13.260   7.388 -0.1048 -0.1230 -0.0594
   74loPI   C6A 1180   0.280  13.684   7.400  0.1136  0.0787 -0.1960
   74loPI   C1B 1181   0.430  11.918   8.408  0.0104 -0.0171  0.0049
   74loPI   C2B 1182   0.450  11.830   8.098 -0.1045 -0.0980 -0.0284
   74loPI   C3B 1183   0.437  11.694   7.694 -0.1807 -0.2214 -0.0272
   74loPI   C4B 1184   0.749  11.568   7.364  0.2711 -0.0657  0.0763
   75loPI    C1 1185   2.759   9.068  10.179 -0.2482  0.0081  0.1711
   75loPI    C2 1186   2.886   8.782  10.428 -0.0136  0.0579  0.1108
   75loPI    C3 1187   2.508   8.779  10.297 -0.1144 -0.0188  0.3954
   75loPI   PO4 1188   3.010   9.124   9.929 -0.0586  0.1507 -0.0991
   75loPI   GL1 1189   3.086   9.018   9.438 -0.0496  0.1953  0.0387
   75loPI   GL2 1190   3.347   9.283   9.378 -0.0695  0.1130 -0.0248
   75loPI   C1A 1191   3.255   8.830   9.088 -0.2601 -0.0264 -0.1737
   75loPI   C2A 1192   3.428   8.955   8.655  0.3492 -0.0959  0.1694
   75loPI   C3A 1193   3.509   9.053   8.245 -0.1153  0.1400 -0.1484
   75loPI   C4A 1194   3.375   8.957   7.879  0.2027  0.0595 -0.0610
   75loPI   C5A 1195   3.269   9.023   7.522  0.0900  0.2873  0.1147
   75loPI   C6A 1196   3.323   9.176   7.096  0.0060  0.0997  0.0956
   75loPI   C1B 1197   3.342   9.514   9.002  0.3738  0.2885  0.0081
   75loPI   C2B 1198   3.569   9.478   8.602  0.0366  0.1747  0.2067
   75loPI   C3B 1199   3.626   9.530   8.164  0.0265  0.2009 -0.2906
   75loPI   C4B 1200   3.634   9.355   7.690  0.3729 -0.1498  0.1179
   76loPI    C1 1201   0.645  18.343  10.561 -0.0071  0.0344 -0.0751
   76loPI    C2 1202   0.515  18.642  10.793 -0.0081  0.0945 -0.1526
   76loPI    C3 1203   0.778  18.377  10.936 -0.1810 -0.0019 -0.0094
   76loPI   PO4 1204   0.681  18.362  10.368 -0.2005  0.1401 -0.1940
   76loPI   GL1 1205   0.509  18.324   9.898 -0.2644  0.1437  0.2562
   76loPI   GL2 1206   0.122  18.301   9.885  0.0300  0.1006  0.0369
   76loPI   C1A 1207   0.268  18.338   9.436 -0.0966 -0.1806 -0.2166
   76loPI   C2A 1208   0.062  18.285   9.001 -0.0181  0.0198 -0.4358
   76loPI   C3A 1209   0.087  18.431   8.564  0.0226  0.1704  0.0106
   76loPI   C4A 1210   0.069  18.599   8.167 -0.0125 -0.2136 -0.0146
   76loPI   C5A 1211   0.177  18.662   7.744 -0.0593  0.2872 -0.0708
   76loPI   C6A 1212   0.181  18.611   7.421  0.2637 -0.0038  0.4416
   76loPI   C1B 1213  -0.270  18.258   9.587 -0.1959  0.4149 -0.0448
   76loPI   C2B 1214  -0.361  18.181   9.191  0.3448  0.2140  0.1068
   76loPI   C3B 1215  -0.384  18.312   8.757 -0.1593  0.1388 -0.0674
   76loPI   C4B 1216  -0.388  18.491   8.396  0.2206  0.0868  0.0807
   77loPI    C1 1217   6.955   9.125  10.422  0.1945  0.1742 -0.0787
   77loPI    C2 1218   6.915   8.782  10.221 -0.0983  0.1056  0.0903
   77loPI    C3 1219   6.594   9.008  10.298  0.1011  0.4566 -0.0809
   77loPI   PO4 1220   7.161   9.268  10.244 -0.2521  0.1273  0.2963
   77loPI   GL1 1221   7.333   9.006   9.922  0.0600 -0.0134  0.0024
   77loPI   GL2 1222   7.348   9.353   9.770 -0.2664  0.0574  0.1244
   77loPI   C1A 1223   7.316   8.974   9.465  0.3158  0.1066  0.1336
   77loPI   C2A 1224   7.095   9.084   9.111 -0.3357 -0.1042 -0.2786
   77loPI   C3A 1225   7.111   9.144   8.666  0.1989 -0.1883 -0.3424
   77loPI   C4A 1226   7.366   8.943   8.281  0.0595 -0.1445 -0.3850
   77loPI   C5A 1227   7.582   8.611   7.910  0.2443 -0.0261 -0.0391
   77loPI   C6A 1228   7.516   8.195   7.968 -0.2508 -0.3506  0.0964
   77loPI   C1B 1229   7.341   9.443   9.360  0.1232 -0.0509  0.0212
   77loPI   C2B 1230   7.304   9.522   8.932 -0.1423 -0.0154  0.0075
   77loPI   C3B 1231   7.478   9.504   8.513 -0.1585  0.2542 -0.3378
   77loPI   C4B 1232   7.645   9.516   8.094 -0.2042 -0.0379  0.3500
   78loPI    C1 1233  13.517   9.844  10.535 -0.0134  0.3134  0.0085
   78loPI    C2 1234  13.241   9.725  10.799  0.0919  0.1851  0.0619
   78loPI    C3 1235  13.621   9.774  10.915  0.1753 -0.0507 -0.1052
   78loPI   PO4 1236  13.374   9.775  10.330 -0.1748 -0.1088 -0.1950
   78loPI   GL1 1237  13.253   9.692   9.970 -0.1972  0.1067  0.1056
   78loPI   GL2 1238  13.437   9.412   9.876  0.2729 -0.3719 -0.1687
   78loPI   C1A 1239  13.195   9.705   9.527  0.1365 -0.1260  0.0352
   78loPI   C2A 1240  13.255   9.487   9.121  0.0573  0.0960 -0.0645
   78loPI   C3A 1241  13.273   9.379   8.715 -0.2719 -0.3150  0.1056
   78loPI   C4A 1242  13.096   9.587   8.330 -0.1429 -0.4085  0.2863
   78loPI   C5A 1243  13.019   9.675   7.892 -0.1062 -0.0442  0.1543
   78loPI   C6A 1244  13.177   9.460   7.542  0.0894 -0.1602 -0.3230
   78loPI   C1B 1245  13.590   9.487   9.509 -0.1224 -0.0196 -0.0637
   78loPI   C2B 1246  13.787   9.576   9.089  0.3039  0.0751 -0.0722
   78loPI   C3B 1247  13.728   9.515   8.621  0.1928  0.3925  0.0527
   78loPI   C4B 1248  13.560   9.532   8.209 -0.1875 -0.1287 -0.2453
   79loPI    C1 1249   3.138  14.750   9.995  0.0126  0.0452  0.3011
   79loPI    C2 1250   3.244  14.955  10.321  0.0047 -0.0335  0.3533
   79loPI    C3 1251   2.902  15.042  10.133  0.0655  0.0889  0.2988
   79loPI   PO4 1252   3.413  14.782   9.779  0.1131 -0.1090 -0.2514
   79loPI   GL1 1253   3.592  14.833   9.433 -0.1881 -0.0040  0.3053
   79loPI   GL2 1254   3.456  15.148   9.419  0.2709 -0.0900  0.2689
   79loPI   C1A 1255   3.466  14.716   9.079 -0.0302  0.0773  0.0302
   79loPI   C2A 1256   3.356  14.571   8.712 -0.1272  0.1291 -0.2863
   79loPI   C3A 1257   3.328  14.712   8.283  0.2047  0.1543  0.0067
   79loPI   C4A 1258   3.391  14.760   7.798  0.0353  0.1937  0.1397
   79loPI   C5A 1259   3.127  14.804   7.480 -0.1280 -0.1177 -0.0730
   79loPI   C6A 1260   2.758  14.793   7.116 -0.1146 -0.0571 -0.3079
   79loPI   C1B 1261   3.309  15.221   9.031  0.0389 -0.2317 -0.0530
   79loPI   C2B 1262   3.361  15.148   8.649  0.0157  0.3320 -0.0037
   79loPI   C3B 1263   3.314  15.177   8.155 -0.0427 -0.0059 -0.0944
   79loPI   C4B 1264   3.034  15.210   7.815 -0.0228 -0.0278 -0.0045
   80loPI    C1 1265   1.617   7.763  10.135  0.1084 -0.0586 -0.2127
   80loPI    C2 1266   1.431   7.555  10.422 -0.3464  0.2610 -0.2646
   80loPI    C3 1267   1.743   7.788  10.514  0.0358 -0.2672 -0.1734
   80loPI   PO4 1268   1.538   7.622   9.923  0.3181 -0.0824  0.0606
   80loPI   GL1 1269   1.273   7.388   9.657  0.0334  0.2812  0.3111
   80loPI   GL2 1270   0.966   7.350   9.507 -0.2471  0.1179  0.1179
   80loPI   C1A 1271   1.380   7.139   9.254  0.0039 -0.0563 -0.0281
   80loPI   C2A 1272   1.337   6.970   8.924 -0.2137 -0.1210  0.2809
   80loPI   C3A 1273   1.193   6.931   8.445 -0.0992 -0.0813 -0.0358
   80loPI   C4A 1274   1.305   7.199   7.963 -0.0081  0.2478 -0.0527
   80loPI   C5A 1275   1.663   7.485   7.889 -0.3148  0.1958 -0.2555
   80loPI   C6A 1276   1.966   7.571   7.598  0.0155 -0.1475  0.1227
   80loPI   C1B 1277   0.915   7.301   9.104  0.1045 -0.0523 -0.0937
   80loPI   C2B 1278   0.893   7.294   8.602  0.0724  0.2713 -0.3907
   80loPI   C3B 1279   0.858   7.427   8.219 -0.3175 -0.0296  0.0044
   80loPI   C4B 1280   0.903   6.995   7.930  0.1087 -0.1186  0.2130
   81loPI    C1 1281  10.327  18.232  10.105 -0.0288 -0.1043 -0.0132
   81loPI    C2 1282   9.951  18.163   9.986 -0.0150 -0.0479 -0.0901
   81loPI    C3 1283  10.035  18.193  10.376 -0.1360  0.2004 -0.0808
   81loPI   PO4 1284  10.379  18.482   9.899  0.2292 -0.1217  0.0542
   81loPI   GL1 1285  10.386  18.815   9.703 -0.1058  0.3078  0.2513
   81loPI   GL2 1286  10.099  18.742   9.523  0.1462 -0.1703  0.1627
   81loPI   C1A 1287  10.638  18.664   9.319  0.2444 -0.0563 -0.0276
   81loPI   C2A 1288  10.953  18.492   8.914 -0.1016 -0.2024  0.2105
   81loPI   C3A 1289  11.042  18.302   8.448 -0.0757  0.1698  0.2854
   81loPI   C4A 1290  11.192  18.299   8.013  0.2617 -0.0122 -0.1572
   81loPI   C5A 1291  11.615  18.411   7.756  0.1012  0.1511  0.0645
   81loPI   C6A 1292  12.006  18.687   7.639 -0.1586  0.1039  0.2106
   81loPI   C1B 1293  10.169  18.808   9.074 -0.0203 -0.0764 -0.0700
   81loPI   C2B 1294  10.503  18.703   8.762 -0.0972  0.2297  0.0769
   81loPI   C3B 1295  10.451  18.463   8.443  0.1224  0.0279  0.2074
   81loPI   C4B 1296  10.505  18.097   8.230  0.1588  0.1255  0.0123
   82loPI    C1 1297  14.385   4.933  10.463 -0.0251  0.0661  0.0217
   82loPI    C2 1298  14.141   4.676  10.647 -0.2274  0.1225 -0.1632
   82loPI    C3 1299  14.533   4.675  10.731 -0.1841 -0.4063 -0.3326
   82loPI   PO4 1300  14.267   4.749  10.160 -0.0510  0.1886  0.0846
   82loPI   GL1 1301  14.121   4.474   9.783  0.1513 -0.3923  0.2631
   82loPI   GL2 1302  14.189   4.144   9.729 -0.0378 -0.3056 -0.0633
   82loPI   C1A 1303  14.090   4.447   9.376  0.0213 -0.1003  0.1203
   82loPI   C2A 1304  14.178   4.343   8.928  0.2602 -0.1346  0.1982
   82loPI   C3A 1305  14.114   4.363   8.552 -0.0100  0.1135 -0.2339
   82loPI   C4A 1306  13.991   4.522   8.221 -0.1021 -0.2071  0.3040
   82loPI   C5A 1307  14.058   4.580   7.820 -0.2370  0.1167 -0.2132
   82loPI   C6A 1308  14.453   4.661   7.641 -0.0968  0.0164 -0.3230
   82loPI   C1B 1309  14.291   3.897   9.313  0.3064 -0.0770 -0.0273
   82loPI   C2B 1310  14.172   3.847   8.916  0.0116  0.0037 -0.0124
   82loPI   C3B 1311  14.405   3.951   8.443 -0.3821  0.1032 -0.2503
   82loPI   C4B 1312  14.336   4.023   8.039 -0.1051 -0.2283  0.0646
   83loPI    C1 1313  11.332   3.059  10.595 -0.0377  0.1880  0.1836
   83loPI    C2 1314  11.160   3.181  10.935 -0.2365  0.1077  0.1133
   83loPI    C3 1315  11.334   2.821  10.916 -0.4071  0.0267  0.0712
   83loPI   PO4 1316  11.165   3.102  10.429 -0.0162  0.2963  0.1356
   83loPI   GL1 1317  10.872   3.448  10.152  0.3590 -0.2888  0.2125
   83loPI   GL2 1318  10.816   3.157   9.958  0.0299 -0.3463 -0.1690
   83loPI   C1A 1319  10.519   3.500   9.841  0.0801 -0.0199  0.1372
   83loPI   C2A 1320  10.208   3.269   9.581 -0.1683 -0.0169 -0.0315
   83loPI   C3A 1321  10.114   3.213   9.130  0.1646 -0.0102  0.1501
   83loPI   C4A 1322  10.022   3.166   8.620  0.2679  0.2217  0.1075
   83loPI   C5A 1323   9.864   3.300   8.141 -0.2203 -0.0909  0.1757
   83loPI   C6A 1324   9.398   3.309   8.053  0.2684  0.0260 -0.1806
   83loPI   C1B 1325  10.875   3.332   9.589 -0.3794 -0.2962  0.3022
   83loPI   C2B 1326  10.750   3.484   9.119  0.0949 -0.0800  0.1886
   83loPI   C3B 1327  10.708   3.855   8.844  0.0616  0.0021  0.2906
   83loPI   C4B 1328  10.372   4.068   8.791  0.3462 -0.0896  0.0081
   84loPI    C1 1329  14.874   5.800  10.346 -0.0818 -0.1463 -0.0067
   84loPI    C2 1330  14.952   5.911  10.723  0.3263 -0.0703 -0.1088
   84loPI    C3 1331  14.884   5.526  10.638 -0.1450 -0.0386  0.0974
   84loPI   PO4 1332  14.623   5.915  10.221 -0.1307  0.0840 -0.0231
   84loPI   GL1 1333  14.446   5.928   9.898  0.0043  0.0047 -0.0388
   84loPI   GL2 1334  14.421   5.587   9.806 -0.0021  0.2672  0.0039
   84loPI   C1A 1335  14.501   6.188   9.598 -0.1750 -0.2166 -0.0979
   84loPI   C2A 1336  14.533   6.198   9.235  0.0434  0.0172  0.1264
   84loPI   C3A 1337  14.535   6.532   8.784  0.0505  0.5306 -0.1724
   84loPI   C4A 1338  14.786   6.529   8.471  0.0575 -0.2553 -0.1404
   84loPI   C5A 1339  14.799   6.319   8.062  0.2506  0.0797  0.0572
   84loPI   C6A 1340  14.855   5.919   7.821  0.0622 -0.1244  0.3059
   84loPI   C1B 1341  14.242   5.136   9.650  0.0124  0.1412  0.0184
   84loPI   C2B 1342  14.220   4.962   9.246 -0.0840  0.1762 -0.3174
   84loPI   C3B 1343  14.282   4.947   8.772 -0.1517 -0.1695  0.2202
   84loPI   C4B 1344  14.049   4.905   8.473  0.0248  0.3626  0.0037
   85loPI    C1 1345  15.169   5.240  10.331 -0.0654  0.1872  0.0415
   85loPI    C2 1346  14.852   5.064  10.499 -0.1466  0.1633 -0.1344
   85loPI    C3 1347  15.181   5.133  10.716 -0.2645  0.1708  0.0442
   85loPI   PO4 1348  15.024   5.398  10.122 -0.2993  0.0034  0.0095
   85loPI   GL1 1349  14.906   5.543   9.758 -0.0645  0.0349 -0.1628
   85loPI   GL2 1350  14.954   5.853   9.840  0.0246  0.1021 -0.2347
   85loPI   C1A 1351  14.753   5.346   9.540  0.0344 -0.1274 -0.2388
   85loPI   C2A 1352  14.629   5.207   9.076  0.0130  0.3842  0.1351
   85loPI   C3A 1353  14.770   5.122   8.633  0.1917 -0.1027  0.1893
   85loPI   C4A 1354  14.548   4.938   8.345  0.1925  0.0941  0.0545
   85loPI   C5A 1355  14.280   4.995   8.010 -0.1953  0.2126  0.3995
   85loPI   C6A 1356  14.367   5.155   7.562 -0.0591 -0.1459  0.0142
   85loPI   C1B 1357  14.880   5.916   9.418 -0.0093 -0.2610  0.0845
   85loPI   C2B 1358  14.665   5.720   9.130 -0.0258 -0.1238 -0.0545
   85loPI   C3B 1359  14.676   5.637   8.669  0.1541  0.1975  0.1327
   85loPI   C4B 1360  14.903   5.759   8.351 -0.3197  0.0125  0.0277
   86loPI    C1 1361  13.693   0.810  10.312  0.2033  0.1525 -0.0355
   86loPI    C2 1362  13.447   1.121  10.260  0.0066 -0.0377 -0.2704
   86loPI    C3 1363  13.390   0.871  10.566  0.2333  0.2157 -0.0148
   86loPI   PO4 1364  13.777   0.705  10.074 -0.0278 -0.1426 -0.0155
   86loPI   GL1 1365  13.546   0.691   9.730 -0.2589 -0.1735  0.1656
   86loPI   GL2 1366  13.301   0.586   9.621 -0.0172 -0.1164 -0.0994
   86loPI   C1A 1367  13.763   0.866   9.376  0.0042 -0.1236 -0.0288
   86loPI   C2A 1368  14.076   0.973   9.137 -0.2767 -0.0526  0.1996
   86loPI   C3A 1369  14.185   1.011   8.631 -0.2423 -0.0761 -0.2358
   86loPI   C4A 1370  14.219   1.183   8.230 -0.0071 -0.2046 -0.1393
   86loPI   C5A 1371  14.192   1.256   7.850 -0.0503  0.1480  0.0935
   86loPI   C6A 1372  14.438   1.057   7.453  0.0848  0.1526 -0.0588
   86loPI   C1B 1373  13.535   0.402   9.241  0.3893 -0.2499  0.0656
   86loPI   C2B 1374  13.751   0.625   8.865  0.1528 -0.0168  0.1010
   86loPI   C3B 1375  13.857   0.666   8.419  0.1931 -0.0039  0.2338
   86loPI   C4B 1376  14.005   0.805   8.070 -0.1224  0.2270  0.1534
   87loPI    C1 1377  11.083  14.944  10.107  0.1557  0.0302  0.0788
   87loPI    C2 1378  10.774  14.701  10.031 -0.0097  0.2887 -0.0902
   87loPI    C3 1379  11.063  14.584  10.282 -0.1165 -0.0558 -0.1225
   87loPI   PO4 1380  11.261  14.987   9.864  0.0490  0.0085 -0.2705
   87loPI   GL1 1381  11.408  15.186   9.536 -0.1983 -0.0586  0.1002
   87loPI   GL2 1382  11.668  15.396   9.527  0.3645  0.3239  0.0233
   87loPI   C1A 1383  11.232  15.232   9.073 -0.0193  0.1736 -0.0051
   87loPI   C2A 1384  11.184  15.206   8.659  0.0567  0.0138  0.0627
   87loPI   C3A 1385  11.189  15.143   8.146 -0.1257  0.0769  0.1199
   87loPI   C4A 1386  11.263  15.075   7.776 -0.0992 -0.1093  0.2240
   87loPI   C5A 1387  11.435  15.379   7.527 -0.1682  0.0169  0.0501
   87loPI   C6A 1388  11.324  15.519   7.187  0.2647 -0.2312 -0.0311
   87loPI   C1B 1389  11.717  15.412   9.107 -0.1520 -0.0453 -0.0516
   87loPI   C2B 1390  11.624  15.549   8.677 -0.0361  0.0739 -0.2314
   87loPI   C3B 1391  11.703  15.543   8.244 -0.1654  0.0231 -0.2296
   87loPI   C4B 1392  11.824  15.507   7.855 -0.0593 -0.1022 -0.0040
   88loPI    C1 1393  13.262  15.073  10.526  0.2022  0.0361 -0.1729
   88loPI    C2 1394  12.951  14.991  10.764  0.0509  0.0554 -0.3617
   88loPI    C3 1395  13.250  14.728  10.728  0.0404  0.0216 -0.2058
   88loPI   PO4 1396  13.122  15.224  10.353  0.2054  0.5931 -0.1642
   88loPI   GL1 1397  13.248  15.291   9.867  0.1251  0.2075  0.3337
   88loPI   GL2 1398  13.347  14.976   9.760 -0.1294 -0.0229  0.0322
   88loPI   C1A 1399  13.450  15.608   9.719 -0.1494 -0.0517  0.1653
   88loPI   C2A 1400  13.538  15.789   9.328  0.2590  0.1618  0.1761
   88loPI   C3A 1401  13.798  15.803   8.877  0.0114  0.1458 -0.0808
   88loPI   C4A 1402  13.718  15.915   8.435 -0.1861  0.0624  0.0955
   88loPI   C5A 1403  13.808  16.070   8.023  0.1081 -0.0164  0.2810
   88loPI   C6A 1404  13.718  16.209   7.665  0.1734  0.3564 -0.0773
   88loPI   C1B 1405  13.396  15.268   9.354 -0.0684  0.1553  0.0290
   88loPI   C2B 1406  13.494  15.430   9.007 -0.2577  0.0632  0.3574
   88loPI   C3B 1407  13.517  15.445   8.532  0.1618  0.1414 -0.1259
   88loPI   C4B 1408  13.401  15.520   8.097 -0.1264  0.1441 -0.2928
   89loPI    C1 1409  18.676  18.172  10.517  0.1701  0.1024  0.0585
   89loPI    C2 1410  18.302  18.130  10.651  0.0053  0.0531 -0.3986
   89loPI    C3 1411  18.523  18.442  10.769 -0.1369  0.0225 -0.0385
   89loPI   PO4 1412  18.671  18.011  10.283 -0.2190  0.1296  0.0327
   89loPI   GL1 1413  18.536  17.923   9.907 -0.1264  0.1075  0.1157
   89loPI   GL2 1414  18.894  17.786   9.870 -0.0269  0.1044  0.1856
   89loPI   C1A 1415  18.350  17.734   9.637  0.2715 -0.0029  0.0120
   89loPI   C2A 1416  18.293  17.715   9.196 -0.0071  0.2934  0.2483
   89loPI   C3A 1417  18.347  17.759   8.734  0.3084 -0.3763  0.0445
   89loPI   C4A 1418  18.621  17.538   8.290 -0.0628 -0.0468 -0.2425
   89loPI   C5A 1419  18.591  17.211   8.116  0.0618 -0.3918  0.1991
   89loPI   C6A 1420  18.676  17.014   7.753 -0.0022  0.1404  0.1861
   89loPI   C1B 1421  18.826  17.831   9.420 -0.0964  0.2801  0.3759
   89loPI   C2B 1422  18.777  17.827   8.982 -0.0238 -0.5054 -0.3108
   89loPI   C3B 1423  18.841  17.897   8.584  0.0074 -0.3787 -0.0135
   89loPI   C4B 1424  18.960  17.908   8.139  0.3907 -0.4528  0.1346
   90loPI    C1 1425  13.592   5.418  10.523  0.4554  0.1796 -0.3204
   90loPI    C2 1426  13.759   5.066  10.435  0.1167 -0.0690 -0.0048
   90loPI    C3 1427  13.644   5.144  10.810  0.0676  0.3290 -0.0982
   90loPI   PO4 1428  13.698   5.535  10.333 -0.3161  0.1304 -0.0598
   90loPI   GL1 1429  13.622   5.310   9.986 -0.3286  0.1161 -0.1337
   90loPI   GL2 1430  13.321   5.383  10.044 -0.0819  0.1961  0.3314
   90loPI   C1A 1431  13.726   5.322   9.590 -0.0460  0.1512 -0.1216
   90loPI   C2A 1432  13.779   5.300   9.176 -0.0288  0.0465 -0.2270
   90loPI   C3A 1433  13.773   5.108   8.867 -0.2402 -0.0049 -0.0508
   90loPI   C4A 1434  13.758   4.646   8.797  0.1718 -0.1588 -0.1381
   90loPI   C5A 1435  13.606   4.503   8.515 -0.2856 -0.0916 -0.0250
   90loPI   C6A 1436  13.508   4.463   8.051  0.1319  0.1251 -0.1267
   90loPI   C1B 1437  13.218   5.338   9.611  0.1359  0.2081 -0.1765
   90loPI   C2B 1438  13.276   5.388   9.232 -0.0931  0.0071  0.3435
   90loPI   C3B 1439  13.319   5.341   8.788  0.0735 -0.0693 -0.3098
   90loPI   C4B 1440  13.069   5.249   8.423 -0.3590 -0.1881 -0.5354
   91loPI    C1 1441  14.404  15.424  10.572  0.2748  0.1668  0.0454
   91loPI    C2 1442  14.705  15.620  10.749  0.3185  0.0638  0.0865
   91loPI    C3 1443  14.357  15.572  10.941  0.3771 -0.0758  0.1586
   91loPI   PO4 1444  14.477  15.287  10.415  0.3234  0.0512  0.0361
   91loPI   GL1 1445  14.624  14.995  10.014  0.1630  0.0643 -0.1057
   91loPI   GL2 1446  14.643  15.316   9.895 -0.1380  0.1250  0.0349
   91loPI   C1A 1447  14.785  14.856   9.637 -0.0425  0.3964 -0.0735
   91loPI   C2A 1448  14.789  14.768   9.278  0.2234  0.2295 -0.0841
   91loPI   C3A 1449  14.884  14.683   8.908 -0.2206  0.1368 -0.2086
   91loPI   C4A 1450  14.815  14.547   8.561  0.1340  0.0239 -0.0399
   91loPI   C5A 1451  14.659  14.391   8.152  0.2489  0.2752  0.0181
   91loPI   C6A 1452  14.521  14.144   7.748  0.2713 -0.0207 -0.2872
   91loPI   C1B 1453  14.722  15.273   9.419  0.2267  0.0538 -0.1802
   91loPI   C2B 1454  14.779  15.233   8.940 -0.0530  0.1092  0.0981
   91loPI   C3B 1455  14.554  15.050   8.591 -0.2212  0.0468  0.1162
   91loPI   C4B 1456  14.509  14.999   8.143 -0.3341  0.2594  0.2221
   92loPI    C1 1457   4.206  17.051  10.104 -0.0944  0.0630 -0.0690
   92loPI    C2 1458   4.337  16.929  10.462  0.1286  0.0156 -0.1644
   92loPI    C3 1459   3.945  16.924  10.379  0.0625  0.1598  0.1269
   92loPI   PO4 1460   4.329  16.961   9.936  0.2272  0.1624  0.1509
   92loPI   GL1 1461   4.383  16.870   9.595 -0.1333  0.0904 -0.0009
   92loPI   GL2 1462   4.410  16.632   9.465 -0.0648  0.0736  0.0536
   92loPI   C1A 1463   4.072  16.904   9.233  0.2602  0.1982 -0.0041
   92loPI   C2A 1464   3.833  17.027   8.897 -0.0898  0.1460 -0.0291
   92loPI   C3A 1465   3.657  17.175   8.689 -0.2830 -0.2948 -0.0983
   92loPI   C4A 1466   3.455  17.333   8.351  0.3612 -0.1366 -0.1350
   92loPI   C5A 1467   3.460  17.695   8.018  0.1606  0.0450 -0.1577
   92loPI   C6A 1468   3.532  17.860   7.617 -0.0489  0.2911 -0.0617
   92loPI   C1B 1469   4.473  16.857   9.042  0.0644 -0.0193 -0.2125
   92loPI   C2B 1470   4.580  17.004   8.663  0.2100 -0.0559 -0.1066
   92loPI   C3B 1471   4.733  17.091   8.324  0.0302 -0.1357 -0.0255
   92loPI   C4B 1472   4.716  17.347   7.962  0.0069 -0.0375 -0.0004
   93loPI    C1 1473  12.233   6.370  10.097  0.2279 -0.0836  0.0614
   93loPI    C2 1474  12.117   6.554  10.433 -0.0566 -0.1305 -0.0083
   93loPI    C3 1475  12.268   6.767  10.130 -0.0350 -0.0578  0.0533
   93loPI   PO4 1476  12.062   6.267   9.974  0.0932  0.2730 -0.2005
   93loPI   GL1 1477  12.025   6.016   9.652 -0.0128 -0.1812 -0.0764
   93loPI   GL2 1478  12.172   5.807   9.705  0.2450  0.1803  0.0865
   93loPI   C1A 1479  11.739   6.142   9.462 -0.3656  0.0378  0.3174
   93loPI   C2A 1480  11.526   6.307   9.223  0.4593  0.0726  0.0376
   93loPI   C3A 1481  11.478   6.255   8.781 -0.0231  0.0006 -0.1031
   93loPI   C4A 1482  11.204   6.030   8.487  0.1173  0.1519 -0.2179
   93loPI   C5A 1483  11.068   5.898   8.084  0.0564 -0.1535  0.5046
   93loPI   C6A 1484  10.704   5.669   7.869 -0.1603 -0.0677 -0.1728
   93loPI   C1B 1485  12.345   5.686   9.426 -0.0928 -0.0119 -0.0664
   93loPI   C2B 1486  12.506   5.505   9.106  0.3739  0.0371  0.0275
   93loPI   C3B 1487  12.680   5.495   8.673  0.1295  0.1193 -0.1486
   93loPI   C4B 1488  12.799   5.709   8.490  0.1087  0.0933  0.3144
   94loPI    C1 1489  16.535   7.293  10.024  0.4749 -0.1333  0.4056
   94loPI    C2 1490  16.733   7.379  10.361  0.0536  0.1510  0.5893
   94loPI    C3 1491  16.435   7.113  10.367  0.1201  0.0706  0.4129
   94loPI   PO4 1492  16.535   7.550   9.948 -0.0271  0.0148  0.0407
   94loPI   GL1 1493  16.698   7.782   9.654  0.0140  0.0172  0.2853
   94loPI   GL2 1494  16.739   7.506   9.431  0.0801 -0.0712 -0.1905
   94loPI   C1A 1495  16.655   8.014   9.187 -0.2426 -0.1893  0.0999
   94loPI   C2A 1496  16.833   7.908   8.825  0.3779  0.0948 -0.0478
   94loPI   C3A 1497  16.971   8.020   8.376  0.2099  0.1345  0.1031
   94loPI   C4A 1498  16.698   7.946   8.029 -0.2982  0.0453  0.1616
   94loPI   C5A 1499  16.396   7.633   7.693  0.0600 -0.0253 -0.2942
   94loPI   C6A 1500  16.129   7.441   7.498  0.0098 -0.0052 -0.1740
   94loPI   C1B 1501  16.489   7.195   9.245  0.1855 -0.1795 -0.0060
   94loPI   C2B 1502  16.365   6.975   8.841 -0.4700 -0.1084 -0.0226
   94loPI   C3B 1503  16.355   7.038   8.489  0.0772 -0.2333  0.0733
   94loPI   C4B 1504  16.087   6.872   8.132 -0.0531 -0.1200  0.3844
   95loPI    C1 1505  18.603  17.056  10.413 -0.1289  0.1107  0.1478
   95loPI    C2 1506  18.439  16.695  10.465 -0.0233  0.0898  0.3416
   95loPI    C3 1507  18.239  17.023  10.576 -0.1541  0.0981  0.0893
   95loPI   PO4 1508  18.592  17.108  10.191  0.0578  0.0184  0.0544
   95loPI   GL1 1509  18.769  17.258   9.861  0.0549 -0.2267  0.2554
   95loPI   GL2 1510  18.603  16.969   9.685  0.0324  0.4165  0.1912
   95loPI   C1A 1511  19.015  17.374   9.517 -0.3250 -0.1104 -0.1283
   95loPI   C2A 1512  19.045  17.433   9.075  0.1766  0.1654  0.0998
   95loPI   C3A 1513  19.019  17.379   8.589  0.0401  0.0910 -0.2675
   95loPI   C4A 1514  19.051  17.362   8.145 -0.1307  0.0757 -0.1090
   95loPI   C5A 1515  18.983  17.529   7.823 -0.0496  0.0434  0.0824
   95loPI   C6A 1516  18.758  17.662   7.493 -0.0478  0.2928 -0.0677
   95loPI   C1B 1517  18.564  17.259   9.376  0.0490 -0.0026  0.0889
   95loPI   C2B 1518  18.563  17.229   8.942 -0.2989 -0.1627 -0.2319
   95loPI   C3B 1519  18.460  17.019   8.670  0.1609 -0.1558 -0.2323
   95loPI   C4B 1520  18.406  16.744   8.340 -0.0699  0.0718  0.0421
   96loPI    C1 1521  10.654   8.325  10.442 -0.0181  0.1475 -0.0234
   96loPI    C2 1522  10.934   8.087  10.601 -0.1144 -0.0188 -0.0999
   96loPI    C3 1523  10.933   8.478  10.684  0.3203  0.0380 -0.3357
   96loPI   PO4 1524  10.611   8.119  10.163  0.4590 -0.0218  0.0390
   96loPI   GL1 1525  10.726   8.084   9.776  0.0757  0.1582 -0.2957
   96loPI   GL2 1526  10.423   7.854   9.624 -0.0085  0.1062 -0.2478
   96loPI   C1A 1527  10.774   8.074   9.307  0.2774 -0.0789  0.0965
   96loPI   C2A 1528  10.605   8.022   8.841  0.0968  0.1281 -0.1639
   96loPI   C3A 1529  10.643   8.096   8.459 -0.1046  0.2891  0.1455
   96loPI   C4A 1530  10.632   8.058   7.994 -0.1784 -0.0101 -0.4225
   96loPI   C5A 1531  10.861   7.854   7.645 -0.2831 -0.0470 -0.0466
   96loPI   C6A 1532  11.257   7.901   7.499  0.2807  0.0243  0.1348
   96loPI   C1B 1533  10.734   7.565   9.412 -0.1045  0.1371 -0.2839
   96loPI   C2B 1534  10.841   7.527   9.034  0.0141  0.1153 -0.1549
   96loPI   C3B 1535  10.712   7.507   8.674  0.1122 -0.6005  0.1778
   96loPI   C4B 1536  10.503   7.597   8.324  0.0978 -0.0077 -0.1183
   97loPI    C1 1537   2.227  12.884  10.219 -0.0591 -0.2190  0.0323
   97loPI    C2 1538   2.087  12.796  10.584 -0.2174 -0.0571  0.0121
   97loPI    C3 1539   2.479  12.852  10.528 -0.1987 -0.0257  0.1691
   97loPI   PO4 1540   2.085  12.770  10.076 -0.1688  0.1782 -0.2099
   97loPI   GL1 1541   2.096  12.649   9.673 -0.1116 -0.3502 -0.0097
   97loPI   GL2 1542   2.092  12.975   9.599 -0.0726  0.0878 -0.0911
   97loPI   C1A 1543   2.079  12.481   9.234  0.1781 -0.0585 -0.1185
   97loPI   C2A 1544   2.054  12.661   8.870  0.1244 -0.1145  0.0798
   97loPI   C3A 1545   1.680  12.640   8.556  0.3792 -0.1362 -0.0370
   97loPI   C4A 1546   1.407  12.795   8.314  0.5314 -0.1583 -0.2229
   97loPI   C5A 1547   1.120  13.036   8.169  0.2580 -0.2260 -0.0066
   97loPI   C6A 1548   1.013  13.109   7.724 -0.0442 -0.2590 -0.2315
   97loPI   C1B 1549   2.151  13.123   9.161  0.0612 -0.1000 -0.1673
   97loPI   C2B 1550   2.255  13.356   8.757  0.0443 -0.2865  0.1613
   97loPI   C3B 1551   1.965  13.514   8.415  0.1175 -0.0444  0.2033
   97loPI   C4B 1552   1.986  13.520   7.869 -0.0589 -0.0411 -0.0498
   98loPI    C1 1553  16.645   4.847  10.321  0.0385  0.0084  0.0660
   98loPI    C2 1554  16.439   5.174  10.425 -0.0919 -0.1303  0.2485
   98loPI    C3 1555  16.751   5.055  10.645  0.1154  0.0146  0.0370
   98loPI   PO4 1556  16.634   4.882   9.978 -0.1378  0.0276 -0.0331
   98loPI   GL1 1557  16.716   4.643   9.634 -0.1665  0.0286  0.0370
   98loPI   GL2 1558  16.912   4.381   9.667 -0.1312 -0.0086 -0.0607
   98loPI   C1A 1559  16.709   4.629   9.165 -0.2983  0.2630 -0.2228
   98loPI   C2A 1560  16.617   4.915   8.796  0.0403 -0.2570 -0.2359
   98loPI   C3A 1561  16.604   4.975   8.379  0.0073  0.1320  0.1430
   98loPI   C4A 1562  16.476   4.829   7.968 -0.3234  0.2332 -0.0512
   98loPI   C5A 1563  16.858   4.653   7.714  0.0017 -0.0952 -0.2135
   98loPI   C6A 1564  16.973   4.704   7.379  0.0892 -0.2087  0.2788
   98loPI   C1B 1565  16.788   4.140   9.316 -0.0638  0.0393 -0.1977
   98loPI   C2B 1566  16.806   4.090   8.821 -0.2169  0.0629  0.0499
   98loPI   C3B 1567  16.679   4.083   8.506  0.0373 -0.1994  0.4316
   98loPI   C4B 1568  16.686   3.771   8.080 -0.2994  0.2708  0.1231
   99loPI    C1 1569   2.280   5.643  10.315 -0.0857 -0.0802 -0.2283
   99loPI    C2 1570   2.466   5.322  10.164  0.3438  0.0702 -0.0359
   99loPI    C3 1571   2.279   5.298  10.517  0.2603 -0.0007 -0.0844
   99loPI   PO4 1572   2.337   5.779   9.984  0.0997  0.0790  0.2087
   99loPI   GL1 1573   2.179   5.821   9.611 -0.0020  0.0176  0.0329
   99loPI   GL2 1574   2.007   5.768   9.324  0.1985 -0.2560  0.4843
   99loPI   C1A 1575   2.589   5.986   9.357  0.2517 -0.1334  0.0211
   99loPI   C2A 1576   2.724   6.164   8.998 -0.0478 -0.1063  0.0095
   99loPI   C3A 1577   2.697   6.179   8.536  0.2012 -0.1339 -0.3688
   99loPI   C4A 1578   2.760   5.834   8.189 -0.0020  0.1841 -0.3727
   99loPI   C5A 1579   3.000   5.687   7.821 -0.0386  0.0209  0.0411
   99loPI   C6A 1580   3.353   5.333   7.663 -0.0158 -0.1531 -0.1328
   99loPI   C1B 1581   2.103   5.743   8.908 -0.0416 -0.0587  0.1416
   99loPI   C2B 1582   2.527   5.717   8.730  0.1984 -0.0252  0.1459
   99loPI   C3B 1583   2.608   5.341   8.441 -0.0654  0.3217 -0.0122
   99loPI   C4B 1584   2.551   4.883   8.234  0.0373 -0.0757 -0.0013
  100loPI    C1 1585  14.691   2.157  10.215 -0.0594 -0.0349 -0.2320
  100loPI    C2 1586  14.539   2.267  10.568 -0.0883 -0.3783 -0.1339
  100loPI    C3 1587  14.661   2.545  10.308 -0.2748 -0.1164  0.0531
  100loPI   PO4 1588  14.605   1.905  10.070 -0.2676 -0.1003 -0.1949
  100loPI   GL1 1589  14.414   2.009   9.696  0.0799 -0.1518  0.2333
  100loPI   GL2 1590  14.479   1.639   9.479  0.1120 -0.0727 -0.0057
  100loPI   C1A 1591  14.255   2.043   9.333 -0.4143  0.0485 -0.2531
  100loPI   C2A 1592  14.473   1.934   8.972  0.3546  0.2120  0.2064
  100loPI   C3A 1593  14.428   1.985   8.578  0.2757 -0.0290 -0.1517
  100loPI   C4A 1594  14.364   2.219   8.123 -0.0216 -0.1002 -0.0130
  100loPI   C5A 1595  14.222   2.480   7.838 -0.0059  0.0003 -0.1206
  100loPI   C6A 1596  13.849   2.570   7.614 -0.1591  0.2446 -0.1180
  100loPI   C1B 1597  14.159   1.459   9.242  0.1259 -0.1206 -0.3695
  100loPI   C2B 1598  14.060   1.517   8.852 -0.2238 -0.0038  0.1352
  100loPI   C3B 1599  13.930   1.703   8.436  0.1308 -0.0890 -0.1923
  100loPI   C4B 1600  13.677   1.679   8.003  0.1028 -0.0255 -0.1741
  101loPI    C1 1601   4.484  14.744  10.063 -0.0286  0.1051 -0.0253
  101loPI    C2 1602   4.776  14.476  10.009  0.0738  0.2230 -0.0624
  101loPI    C3 1603   4.768  14.698  10.341 -0.1220  0.0371  0.0593
  101loPI   PO4 1604   4.533  14.841   9.836  0.1579  0.2004 -0.1413
  101loPI   GL1 1605   4.441  14.845   9.426 -0.2701 -0.0067  0.1650
  101loPI   GL2 1606   4.436  14.472   9.467 -0.2259  0.1537 -0.1874
  101loPI   C1A 1607   4.419  14.854   8.960  0.2939  0.1658  0.0071
  101loPI   C2A 1608   4.487  14.984   8.649  0.0454 -0.2579 -0.0964
  101loPI   C3A 1609   4.286  15.220   8.398 -0.1340 -0.0373 -0.3699
  101loPI   C4A 1610   4.265  15.636   8.094 -0.1388 -0.2415 -0.3048
  101loPI   C5A 1611   4.343  15.970   7.753  0.0489 -0.0846  0.2854
  101loPI   C6A 1612   4.637  16.066   7.467 -0.0357 -0.0802  0.0794
  101loPI   C1B 1613   4.050  14.590   9.304  0.0476 -0.0744  0.0098
  101loPI   C2B 1614   3.810  14.394   8.961 -0.0963 -0.0079  0.0252
  101loPI   C3B 1615   3.889  14.185   8.540 -0.1789 -0.0926 -0.1904
  101loPI   C4B 1616   3.713  14.041   8.104  0.1913  0.1685 -0.1993
  102loPI    C1 1617  16.328   0.248  10.015 -0.1271  0.0196  0.0819
  102loPI    C2 1618  16.466   0.621  10.054  0.0376 -0.0272 -0.0428
  102loPI    C3 1619  16.099   0.529  10.183  0.0010  0.1744 -0.0001
  102loPI   PO4 1620  16.335   0.181   9.737  0.3091  0.1090 -0.0086
  102loPI   GL1 1621  16.531   0.177   9.403  0.0684  0.2186 -0.0945
  102loPI   GL2 1622  16.534   0.542   9.444  0.0006 -0.1367 -0.1852
  102loPI   C1A 1623  16.154   0.409   9.171  0.1772 -0.3359  0.1001
  102loPI   C2A 1624  15.882   0.541   8.798 -0.1650 -0.3105  0.0542
  102loPI   C3A 1625  15.595   0.649   8.495 -0.1451  0.2400  0.2335
  102loPI   C4A 1626  15.450   0.576   8.167 -0.0609  0.0143 -0.1068
  102loPI   C5A 1627  15.408   0.633   7.718  0.2002  0.0299 -0.0690
  102loPI   C6A 1628  15.381   0.257   7.394  0.4816 -0.2555  0.0978
  102loPI   C1B 1629  16.738   0.440   9.011 -0.0584  0.0287  0.1212
  102loPI   C2B 1630  16.452   0.613   8.824 -0.1346  0.1023  0.1438
  102loPI   C3B 1631  16.159   0.917   8.976 -0.2256 -0.0420  0.4616
  102loPI   C4B 1632  16.229   1.316   9.074 -0.0374  0.0596 -0.1584
  103loPI    C1 1633   0.910   9.127   9.810 -0.0104  0.3411 -0.0885
  103loPI    C2 1634   0.530   9.241   9.862 -0.1136 -0.0153 -0.0332
  103loPI    C3 1635   0.714   9.023  10.142  0.0341 -0.0998 -0.1937
  103loPI   PO4 1636   0.929   9.059   9.529  0.0864  0.0297  0.0580
  103loPI   GL1 1637   0.945   8.730   9.335 -0.0681 -0.0563  0.2676
  103loPI   GL2 1638   1.214   8.689   9.259  0.0537  0.0685 -0.2789
  103loPI   C1A 1639   0.900   9.028   8.912 -0.0121 -0.0111  0.0066
  103loPI   C2A 1640   0.626   8.960   8.643  0.0992  0.0211  0.4350
  103loPI   C3A 1641   0.416   8.948   8.198  0.0009  0.1324  0.1611
  103loPI   C4A 1642   0.232   8.744   7.945  0.1972  0.2680 -0.2275
  103loPI   C5A 1643  -0.039   8.536   7.777 -0.0981  0.3767 -0.1163
  103loPI   C6A 1644  -0.197   8.137   7.852  0.4528  0.3643 -0.1389
  103loPI   C1B 1645   1.374   8.707   8.912 -0.2571 -0.0605 -0.2450
  103loPI   C2B 1646   1.116   8.865   8.511 -0.3161 -0.0091 -0.2878
  103loPI   C3B 1647   1.219   8.825   8.087  0.0621  0.0132 -0.0215
  103loPI   C4B 1648   1.370   8.833   7.605  0.1970  0.2452  0.3749
  104loPI    C1 1649   3.350  15.731   9.994 -0.0654  0.0752 -0.1327
  104loPI    C2 1650   3.302  15.335   9.974 -0.0799  0.0654  0.0702
  104loPI    C3 1651   3.412  15.505  10.319 -0.2360  0.2554  0.0279
  104loPI   PO4 1652   3.455  15.766   9.792 -0.0679 -0.0464  0.1245
  104loPI   GL1 1653   3.513  15.704   9.347  0.0195 -0.0170 -0.0754
  104loPI   GL2 1654   3.177  15.610   9.423  0.0386 -0.0373  0.2162
  104loPI   C1A 1655   3.557  15.660   8.946  0.0640 -0.2904  0.1331
  104loPI   C2A 1656   3.396  15.607   8.682  0.2818  0.1106  0.1365
  104loPI   C3A 1657   3.357  15.785   8.296  0.0759 -0.3824  0.0894
  104loPI   C4A 1658   3.347  15.656   7.801  0.0792  0.0713  0.0141
  104loPI   C5A 1659   3.346  15.871   7.379 -0.0847 -0.0476 -0.0725
  104loPI   C6A 1660   3.488  15.919   7.070  0.2060 -0.2511  0.0300
  104loPI   C1B 1661   2.940  15.701   9.023 -0.0009 -0.1751 -0.1956
  104loPI   C2B 1662   2.939  15.909   8.655 -0.3615 -0.1171 -0.3704
  104loPI   C3B 1663   2.914  16.190   8.298 -0.0659 -0.0030 -0.1376
  104loPI   C4B 1664   2.738  16.232   7.861 -0.0480 -0.0034 -0.1303
  105loPI    C1 1665  10.177   4.368  10.594 -0.1750 -0.2837  0.1423
  105loPI    C2 1666   9.920   4.198  10.849 -0.2280 -0.1000  0.2133
  105loPI    C3 1667   9.944   4.596  10.825 -0.3073 -0.1137 -0.1539
  105loPI   PO4 1668  10.122   4.226  10.292  0.0096 -0.0009  0.0620
  105loPI   GL1 1669   9.862   4.358   9.964 -0.2378  0.1570 -0.3039
  105loPI   GL2 1670   9.756   4.624   9.884  0.0881 -0.0360  0.2245
  105loPI   C1A 1671   9.675   4.233   9.588  0.0533  0.0331 -0.0600
  105loPI   C2A 1672   9.507   4.355   9.169 -0.1219 -0.0872  0.2254
  105loPI   C3A 1673   9.456   4.376   8.706  0.2863  0.3470 -0.0662
  105loPI   C4A 1674   9.443   4.412   8.299 -0.0013 -0.2455  0.0289
  105loPI   C5A 1675   9.222   4.245   7.859 -0.2948  0.1650 -0.0935
  105loPI   C6A 1676   9.095   4.070   7.529 -0.2136  0.0043  0.3639
  105loPI   C1B 1677   9.800   4.736   9.470 -0.0725 -0.0470  0.0221
  105loPI   C2B 1678   9.825   4.785   8.920  0.3168  0.1285 -0.0478
  105loPI   C3B 1679   9.808   4.700   8.503 -0.1155 -0.0164  0.0843
  105loPI   C4B 1680   9.635   4.902   8.182 -0.0732  0.1317  0.3193
  106loPI    C1 1681   3.608   7.871  10.473 -0.1064  0.0022  0.0411
  106loPI    C2 1682   3.619   7.471  10.496 -0.0016 -0.0091 -0.1818
  106loPI    C3 1683   3.768   7.693  10.794  0.0239 -0.1367 -0.0991
  106loPI   PO4 1684   3.637   7.873  10.217  0.2427  0.1036 -0.0650
  106loPI   GL1 1685   3.611   7.682   9.812 -0.0465 -0.0383  0.1787
  106loPI   GL2 1686   3.298   7.796   9.822  0.0541  0.0895 -0.1197
  106loPI   C1A 1687   3.597   7.791   9.336 -0.0331 -0.0797 -0.1479
  106loPI   C2A 1688   3.495   7.802   8.873  0.3724  0.0647  0.1060
  106loPI   C3A 1689   3.229   7.938   8.538 -0.2537 -0.0646  0.0787
  106loPI   C4A 1690   3.200   8.178   8.115 -0.0132  0.0990  0.1062
  106loPI   C5A 1691   3.131   8.541   7.776  0.0717 -0.1465  0.1762
  106loPI   C6A 1692   2.882   8.707   7.375  0.2898  0.2541 -0.0617
  106loPI   C1B 1693   3.158   8.031   9.424 -0.0983  0.1476 -0.0137
  106loPI   C2B 1694   2.991   8.172   9.050 -0.1061 -0.0806 -0.2386
  106loPI   C3B 1695   2.841   8.187   8.627  0.1417  0.1446 -0.2286
  106loPI   C4B 1696   2.751   8.455   8.284  0.2076  0.1714 -0.0655
  107loPI    C1 1697   2.927   4.932  10.186 -0.1641  0.1329  0.1070
  107loPI    C2 1698   3.310   4.820  10.218 -0.0743  0.3523 -0.1571
  107loPI    C3 1699   3.027   4.547  10.141  0.0161  0.1782  0.1132
  107loPI   PO4 1700   2.982   5.181  10.112  0.1508  0.2900  0.2833
  107loPI   GL1 1701   3.216   5.276   9.748  0.2112  0.1480  0.5111
  107loPI   GL2 1702   3.252   5.048   9.649 -0.0679  0.2578 -0.0432
  107loPI   C1A 1703   3.215   5.388   9.283 -0.1720 -0.0412 -0.0807
  107loPI   C2A 1704   3.517   5.566   8.937 -0.1178 -0.0082 -0.0026
  107loPI   C3A 1705   3.583   5.730   8.517  0.3006 -0.1430  0.0782
  107loPI   C4A 1706   3.598   5.627   8.019  0.0548 -0.0878  0.0735
  107loPI   C5A 1707   3.592   5.866   7.727  0.0405  0.2431  0.2003
  107loPI   C6A 1708   3.344   5.858   7.342 -0.1055 -0.0701  0.1770
  107loPI   C1B 1709   3.441   4.943   9.288  0.1149 -0.0183 -0.0973
  107loPI   C2B 1710   3.477   4.939   8.910  0.1349  0.0111 -0.1077
  107loPI   C3B 1711   3.565   5.178   8.564  0.2736 -0.2105 -0.0048
  107loPI   C4B 1712   3.575   5.076   8.129 -0.2126  0.3015  0.1174
  108loPI    C1 1713   5.526   3.006  10.446  0.0866 -0.1658 -0.0938
  108loPI    C2 1714   5.166   3.126  10.571  0.1044  0.0374 -0.2335
  108loPI    C3 1715   5.237   2.737  10.512 -0.0332 -0.0213 -0.0242
  108loPI   PO4 1716   5.578   3.148  10.247  0.0959  0.0080  0.1465
  108loPI   GL1 1717   5.690   3.184   9.834 -0.1890 -0.2475 -0.3210
  108loPI   GL2 1718   5.661   2.892   9.810  0.2236  0.0936 -0.2328
  108loPI   C1A 1719   5.499   3.128   9.417  0.0422 -0.1488  0.0781
  108loPI   C2A 1720   5.449   3.349   9.060 -0.1822 -0.2392 -0.0516
  108loPI   C3A 1721   5.491   3.665   8.778  0.2092 -0.2789  0.0551
  108loPI   C4A 1722   5.348   3.788   8.310 -0.4727 -0.1203 -0.3130
  108loPI   C5A 1723   5.407   4.116   8.082  0.1345 -0.0572 -0.3005
  108loPI   C6A 1724   5.215   4.238   7.735  0.1156 -0.0179 -0.0928
  108loPI   C1B 1725   5.995   2.708   9.580  0.1438 -0.2577  0.1981
  108loPI   C2B 1726   5.924   2.612   9.135  0.1989  0.0243  0.1961
  108loPI   C3B 1727   5.866   2.699   8.682 -0.0614  0.2201  0.0269
  108loPI   C4B 1728   5.807   2.456   8.353 -0.3337 -0.1268 -0.0107
  109loPI    C1 1729  17.633   4.982  10.385  0.1623  0.0885 -0.2586
  109loPI    C2 1730  17.882   4.670  10.401  0.1058  0.0557  0.0378
  109loPI    C3 1731  17.979   5.012  10.584 -0.1281 -0.0037  0.2796
  109loPI   PO4 1732  17.472   4.916  10.150 -0.1389  0.0144 -0.0228
  109loPI   GL1 1733  17.565   5.109   9.746  0.1795  0.1205  0.1016
  109loPI   GL2 1734  17.626   5.382   9.594  0.0087 -0.0059 -0.2475
  109loPI   C1A 1735  17.662   4.883   9.322 -0.0171 -0.1134  0.3186
  109loPI   C2A 1736  17.880   4.774   8.875  0.2058  0.1687  0.0736
  109loPI   C3A 1737  17.920   4.567   8.467 -0.2298  0.0034 -0.0822
  109loPI   C4A 1738  17.829   4.317   8.142  0.0176 -0.1454  0.2307
  109loPI   C5A 1739  17.938   4.111   7.706 -0.0022 -0.2160 -0.1856
  109loPI   C6A 1740  17.681   3.772   7.497 -0.4123  0.1583  0.0315
  109loPI   C1B 1741  17.309   5.380   9.277  0.1026  0.0454  0.0166
  109loPI   C2B 1742  17.538   5.187   8.903 -0.0869  0.2296 -0.3470
  109loPI   C3B 1743  17.615   5.093   8.516 -0.2262 -0.0961  0.3472
  109loPI   C4B 1744  17.502   5.129   8.128 -0.1807  0.6445 -0.2462
  110loPI    C1 1745   1.979   0.048  10.168  0.0137  0.1397  0.0955
  110loPI    C2 1746   1.783  -0.229  10.380 -0.0532  0.0713 -0.0542
  110loPI    C3 1747   1.926   0.097  10.562 -0.1744  0.0494  0.0828
  110loPI   PO4 1748   1.947  -0.082   9.973  0.1509 -0.0318  0.5825
  110loPI   GL1 1749   2.022   0.119   9.519  0.4043 -0.3367 -0.0432
  110loPI   GL2 1750   2.288  -0.080   9.576  0.2047 -0.3211 -0.1089
  110loPI   C1A 1751   1.871   0.056   9.024  0.0420 -0.2281 -0.0388
  110loPI   C2A 1752   1.964   0.106   8.617  0.0211  0.1910 -0.0605
  110loPI   C3A 1753   2.025   0.098   8.197 -0.1078  0.1020 -0.1536
  110loPI   C4A 1754   2.296  -0.023   7.871  0.4172 -0.0267  0.1877
  110loPI   C5A 1755   2.386  -0.103   7.426 -0.1581 -0.2108 -0.1148
  110loPI   C6A 1756   2.373  -0.299   6.980  0.0461 -0.1521 -0.0773
  110loPI   C1B 1757   2.531   0.123   9.229  0.0237  0.0510 -0.1908
  110loPI   C2B 1758   2.837  -0.006   8.830 -0.0221 -0.0376 -0.1262
  110loPI   C3B 1759   2.793  -0.101   8.439  0.5189  0.0840 -0.3176
  110loPI   C4B 1760   2.760  -0.058   8.019  0.1302  0.0702  0.1451
  111loPI    C1 1761  15.808   7.022  10.214  0.0854 -0.1535 -0.1216
  111loPI    C2 1762  15.845   7.190  10.576  0.3164  0.0240 -0.2245
  111loPI    C3 1763  15.482   7.105  10.430  0.2246 -0.1194  0.0789
  111loPI   PO4 1764  16.061   7.019  10.005 -0.1149 -0.0889 -0.0059
  111loPI   GL1 1765  16.003   6.940   9.569  0.0534  0.0034 -0.3382
  111loPI   GL2 1766  15.954   7.277   9.407 -0.2134  0.1262  0.0326
  111loPI   C1A 1767  16.038   6.802   9.227 -0.1849 -0.1006  0.2909
  111loPI   C2A 1768  15.903   6.794   8.801 -0.1776  0.1771  0.1242
  111loPI   C3A 1769  15.644   6.748   8.555  0.0827 -0.1361 -0.3293
  111loPI   C4A 1770  15.189   6.796   8.379  0.3681 -0.1423 -0.0683
  111loPI   C5A 1771  14.857   6.839   8.074 -0.1967 -0.2094  0.1541
  111loPI   C6A 1772  14.628   6.648   7.683 -0.1921  0.1740  0.3259
  111loPI   C1B 1773  15.973   7.238   8.985  0.0588  0.2870  0.0647
  111loPI   C2B 1774  15.819   7.253   8.556 -0.1881 -0.0485 -0.0587
  111loPI   C3B 1775  15.545   7.105   8.215  0.2103  0.1497 -0.2688
  111loPI   C4B 1776  15.364   7.203   7.802 -0.2526  0.0807 -0.0776
  112loPI    C1 1777   0.038   0.356  10.523  0.0669 -0.0364  0.2539
  112loPI    C2 1778  -0.275   0.446  10.755 -0.1728 -0.0027 -0.0763
  112loPI    C3 1779  -0.162   0.698  10.465  0.0827 -0.0742 -0.0405
  112loPI   PO4 1780  -0.083   0.073  10.322 -0.1030 -0.1083 -0.0928
  112loPI   GL1 1781   0.063  -0.059   9.923 -0.0165  0.1313  0.0837
  112loPI   GL2 1782  -0.215  -0.063   9.791  0.0561  0.1901  0.1509
  112loPI   C1A 1783   0.185   0.109   9.577 -0.0390 -0.1857  0.3375
  112loPI   C2A 1784   0.358  -0.091   9.233  0.1320 -0.0304 -0.1191
  112loPI   C3A 1785   0.428  -0.195   8.836 -0.1155 -0.1034  0.1366
  112loPI   C4A 1786   0.494  -0.198   8.460 -0.1685 -0.1100  0.0109
  112loPI   C5A 1787   0.665  -0.039   8.049  0.2239  0.0421  0.0958
  112loPI   C6A 1788   1.043   0.144   7.928 -0.1634  0.3851 -0.0360
  112loPI   C1B 1789  -0.188  -0.182   9.299  0.1821 -0.0990  0.1928
  112loPI   C2B 1790  -0.100  -0.095   8.925 -0.0269 -0.0035 -0.3389
  112loPI   C3B 1791   0.000   0.094   8.544 -0.1154 -0.1927  0.2533
  112loPI   C4B 1792  -0.028   0.180   8.028  0.0081 -0.2578 -0.0620
  113loPI    C1 1793  14.436   1.088  10.317  0.0469  0.0325  0.0786
  113loPI    C2 1794  14.061   1.110  10.178  0.0150 -0.1219  0.1378
  113loPI    C3 1795  14.161   1.295  10.519  0.0242  0.0238  0.0567
  113loPI   PO4 1796  14.544   1.006  10.069  0.0915 -0.0999 -0.1725
  113loPI   GL1 1797  14.644   0.894   9.650 -0.1181 -0.0289 -0.0122
  113loPI   GL2 1798  14.510   0.688   9.455 -0.3175 -0.1183 -0.1548
  113loPI   C1A 1799  14.968   0.719   9.254  0.1053 -0.0239 -0.1485
  113loPI   C2A 1800  14.955   0.415   8.850 -0.0843  0.2405 -0.1098
  113loPI   C3A 1801  14.840   0.379   8.410 -0.0103  0.0118 -0.3551
  113loPI   C4A 1802  14.973   0.577   7.985  0.1111  0.0282  0.0870
  113loPI   C5A 1803  14.933   0.786   7.564 -0.0738  0.0636 -0.3105
  113loPI   C6A 1804  15.339   0.917   7.298 -0.0391 -0.1973  0.1555
  113loPI   C1B 1805  14.521   0.890   9.024 -0.1746 -0.0626 -0.0947
  113loPI   C2B 1806  14.680   0.830   8.664  0.3786 -0.0172  0.0026
  113loPI   C3B 1807  14.684   0.967   8.266  0.0388  0.0177 -0.0522
  113loPI   C4B 1808  14.486   0.798   7.916 -0.1669  0.2580 -0.0872
  114loPI    C1 1809   8.803   9.174  10.179 -0.0041 -0.1941  0.2930
  114loPI    C2 1810   8.599   9.135  10.521 -0.3092 -0.0324  0.1330
  114loPI    C3 1811   8.449   8.987  10.181 -0.0548 -0.1041  0.0499
  114loPI   PO4 1812   8.972   8.996  10.113 -0.1418 -0.0342  0.1947
  114loPI   GL1 1813   9.253   9.047   9.956 -0.1916  0.5735  0.1027
  114loPI   GL2 1814   9.279   8.768   9.747  0.0378 -0.0733  0.1069
  114loPI   C1A 1815   9.295   9.191   9.512  0.1642 -0.0539 -0.0779
  114loPI   C2A 1816   9.366   9.367   9.095 -0.1829 -0.1708  0.3653
  114loPI   C3A 1817   9.644   9.625   8.825 -0.1105 -0.1628 -0.0117
  114loPI   C4A 1818   9.905   9.866   8.533  0.0489  0.2781  0.1730
  114loPI   C5A 1819  10.063  10.103   8.177 -0.0518 -0.0861 -0.3190
  114loPI   C6A 1820  10.319  10.223   7.787  0.0512 -0.0608  0.1261
  114loPI   C1B 1821   9.328   8.748   9.303  0.0747  0.0129  0.2688
  114loPI   C2B 1822   9.538   8.611   8.956 -0.3256  0.1978  0.2813
  114loPI   C3B 1823   9.468   8.697   8.448 -0.0945  0.1628 -0.1385
  114loPI   C4B 1824   9.263   8.553   8.092 -0.0015  0.2906 -0.0510
  115loPI    C1 1825   4.913  18.230  10.399 -0.0601  0.3065  0.1508
  115loPI    C2 1826   4.782  17.854  10.435  0.1412  0.1851 -0.3134
  115loPI    C3 1827   4.807  18.088  10.758  0.0536 -0.2104 -0.0112
  115loPI   PO4 1828   4.745  18.321  10.150 -0.0447 -0.0110 -0.0564
  115loPI   GL1 1829   4.804  18.200   9.703  0.3678 -0.1720 -0.2230
  115loPI   GL2 1830   4.630  18.545   9.743  0.0133 -0.0200 -0.0160
  115loPI   C1A 1831   4.845  18.070   9.263 -0.2146  0.0763  0.1672
  115loPI   C2A 1832   5.007  18.300   8.966  0.0579 -0.4016  0.1330
  115loPI   C3A 1833   5.095  18.498   8.616 -0.1305  0.0942  0.0008
  115loPI   C4A 1834   5.138  18.519   8.206 -0.0341 -0.2383  0.0857
  115loPI   C5A 1835   5.348  18.777   7.899  0.2045 -0.1903 -0.0845
  115loPI   C6A 1836   5.276  19.109   7.698  0.1569  0.1640  0.0784
  115loPI   C1B 1837   4.760  18.571   9.277  0.2223 -0.1786 -0.6632
  115loPI   C2B 1838   4.680  18.745   8.830  0.0952  0.0675  0.1627
  115loPI   C3B 1839   4.926  19.020   8.567 -0.0198  0.1071 -0.2364
  115loPI   C4B 1840   5.249  19.039   8.287 -0.0155 -0.3270 -0.4030
  116loPI    C1 1841   4.496  13.286  10.132 -0.0704 -0.0610  0.1493
  116loPI    C2 1842   4.460  12.935  10.320  0.0071 -0.1683 -0.0334
  116loPI    C3 1843   4.701  13.218  10.469  0.0434 -0.2403  0.0454
  116loPI   PO4 1844   4.494  13.222   9.841  0.0125 -0.3343  0.0414
  116loPI   GL1 1845   4.638  13.033   9.508 -0.0165  0.0275 -0.2024
  116loPI   GL2 1846   4.416  12.813   9.359  0.1907 -0.2402 -0.3252
  116loPI   C1A 1847   4.863  12.936   9.161  0.0256  0.2171 -0.0353
  116loPI   C2A 1848   4.954  12.917   8.715  0.1735  0.3021  0.1774
  116loPI   C3A 1849   4.882  13.054   8.231 -0.0052 -0.1528 -0.2783
  116loPI   C4A 1850   4.847  12.955   7.812 -0.0527 -0.0172 -0.1087
  116loPI   C5A 1851   4.439  13.020   7.580 -0.1812 -0.1204 -0.0869
  116loPI   C6A 1852   4.061  12.995   7.274 -0.2352  0.0883 -0.0706
  116loPI   C1B 1853   4.407  12.865   8.934  0.0549 -0.3236 -0.3240
  116loPI   C2B 1854   4.487  12.838   8.422  0.0641 -0.4593 -0.4260
  116loPI   C3B 1855   4.208  12.849   8.036  0.0159  0.1789  0.0972
  116loPI   C4B 1856   4.014  13.080   7.811 -0.0694 -0.2223 -0.1739
  117loPI    C1 1857  18.404  11.443   9.589 -0.1318  0.0397 -0.0033
  117loPI    C2 1858  18.154  11.361   9.890  0.0473 -0.1070  0.1075
  117loPI    C3 1859  18.135  11.149   9.552 -0.0287 -0.0670  0.0867
  117loPI   PO4 1860  18.383  11.691   9.504  0.2755  0.1285  0.3073
  117loPI   GL1 1861  18.203  11.720   9.126 -0.2379  0.1152 -0.0040
  117loPI   GL2 1862  18.079  12.013   9.218 -0.0378 -0.0026  0.0376
  117loPI   C1A 1863  17.967  11.607   8.736 -0.1340  0.3879 -0.0733
  117loPI   C2A 1864  17.969  11.477   8.321  0.2167  0.2221 -0.1405
  117loPI   C3A 1865  18.063  11.300   7.965  0.3095 -0.2942  0.1213
  117loPI   C4A 1866  18.103  11.467   7.594  0.0510 -0.2663 -0.0320
  117loPI   C5A 1867  18.387  11.648   7.340  0.0554 -0.3218 -0.1085
  117loPI   C6A 1868  18.717  11.939   7.302  0.2890 -0.1411  0.0681
  117loPI   C1B 1869  18.131  12.089   8.716  0.1930 -0.0419 -0.2656
  117loPI   C2B 1870  18.198  12.007   8.295  0.2355 -0.0153  0.0737
  117loPI   C3B 1871  17.931  11.868   7.863  0.3083 -0.2399 -0.2695
  117loPI   C4B 1872  17.815  12.167   7.612 -0.1301  0.1995 -0.0418
  118loPI    C1 1873  12.603  18.704  10.203 -0.0831 -0.0160  0.1404
  118loPI    C2 1874  12.526  18.539  10.559 -0.0825 -0.0994  0.1023
  118loPI    C3 1875  12.836  18.410  10.342 -0.0398  0.0006  0.1034
  118loPI   PO4 1876  12.326  18.752  10.078 -0.0773  0.0110  0.3312
  118loPI   GL1 1877  12.134  18.852   9.592  0.3264 -0.0422  0.1068
  118loPI   GL2 1878  12.153  18.458   9.659 -0.1275 -0.1971  0.1883
  118loPI   C1A 1879  12.099  18.838   9.190 -0.0349 -0.1991 -0.0008
  118loPI   C2A 1880  12.168  18.799   8.788 -0.1201 -0.3443  0.0832
  118loPI   C3A 1881  12.451  18.750   8.355 -0.0787 -0.2630 -0.1587
  118loPI   C4A 1882  12.431  18.699   7.924  0.1196 -0.3792 -0.0399
  118loPI   C5A 1883  12.382  18.973   7.552 -0.1841 -0.3167  0.0526
  118loPI   C6A 1884  12.147  19.274   7.435 -0.0890 -0.1370 -0.0515
  118loPI   C1B 1885  11.832  18.428   9.308  0.0577 -0.3521  0.2023
  118loPI   C2B 1886  11.683  18.401   8.824 -0.2288 -0.0107  0.0909
  118loPI   C3B 1887  11.813  18.628   8.491 -0.0641 -0.0088  0.0076
  118loPI   C4B 1888  11.955  18.812   8.150 -0.0018  0.2394  0.0004
  119loPI    C1 1889   9.985  18.818  10.033 -0.0979 -0.0241  0.0273
  119loPI    C2 1890   9.830  18.740  10.393 -0.3172 -0.4856 -0.1585
  119loPI    C3 1891  10.220  18.681  10.326 -0.1984 -0.0410  0.1004
  119loPI   PO4 1892   9.774  18.611   9.874  0.2967  0.4420  0.2330
  119loPI   GL1 1893   9.679  18.365   9.525 -0.1962 -0.2441 -0.0481
  119loPI   GL2 1894   9.991  18.239   9.502 -0.0635  0.0594 -0.0447
  119loPI   C1A 1895   9.649  18.702   9.114  0.2871 -0.2769 -0.2006
  119loPI   C2A 1896   9.330  18.834   8.713 -0.1594  0.0607 -0.1569
  119loPI   C3A 1897   9.164  18.885   8.405 -0.2698 -0.2822  0.4029
  119loPI   C4A 1898   8.870  18.701   8.029  0.1326  0.0159 -0.1499
  119loPI   C5A 1899   8.647  18.339   7.987 -0.1963 -0.4037  0.1738
  119loPI   C6A 1900   8.498  17.982   7.814  0.0745  0.4136 -0.1892
  119loPI   C1B 1901  10.287  18.342   9.115  0.1854  0.1322  0.1521
  119loPI   C2B 1902  10.599  18.145   8.859  0.1344 -0.1662  0.2391
  119loPI   C3B 1903  11.006  17.872   8.686  0.1473 -0.0169 -0.1689
  119loPI   C4B 1904  11.366  18.030   8.829 -0.2047  0.0205  0.0614
  120loPI    C1 1905   6.087   3.847  10.710  0.0004 -0.0829 -0.0749
  120loPI    C2 1906   5.805   4.118  10.625  0.0659  0.0502  0.1249
  120loPI    C3 1907   5.793   3.919  10.972  0.2001  0.0334  0.1205
  120loPI   PO4 1908   6.142   3.767  10.508 -0.0748 -0.0274  0.0264
  120loPI   GL1 1909   6.183   4.012  10.155  0.2638 -0.1987  0.3496
  120loPI   GL2 1910   6.443   4.022   9.875 -0.0512  0.0965  0.0485
  120loPI   C1A 1911   6.045   4.188   9.690 -0.2581  0.0945  0.0913
  120loPI   C2A 1912   6.032   4.143   9.192  0.0439  0.1931  0.0862
  120loPI   C3A 1913   5.968   3.935   8.826 -0.4343 -0.2391 -0.0371
  120loPI   C4A 1914   5.786   3.980   8.479  0.0754 -0.1536 -0.0305
  120loPI   C5A 1915   5.877   3.905   8.026 -0.0641  0.0818  0.0999
  120loPI   C6A 1916   5.727   4.034   7.695  0.4445 -0.1114 -0.0699
  120loPI   C1B 1917   6.351   3.758   9.613  0.1266  0.1150  0.0754
  120loPI   C2B 1918   6.396   3.672   9.226  0.3009  0.2017 -0.4367
  120loPI   C3B 1919   6.280   3.561   8.821  0.0690 -0.1401 -0.1234
  120loPI   C4B 1920   6.234   3.787   8.429 -0.1458  0.3024  0.1589
  121loPI    C1 1921   6.781   6.328  10.566 -0.0922  0.1130  0.0683
  121loPI    C2 1922   6.849   5.935  10.541 -0.3933  0.0623  0.0038
  121loPI    C3 1923   6.609   6.078  10.827 -0.3006  0.1977  0.0147
  121loPI   PO4 1924   6.727   6.394  10.394 -0.0001 -0.3546 -0.4321
  121loPI   GL1 1925   6.609   6.469   9.954  0.0793  0.2336 -0.3806
  121loPI   GL2 1926   6.359   6.278   9.880 -0.0963 -0.1422 -0.0352
  121loPI   C1A 1927   6.796   6.406   9.582  0.2116 -0.0872  0.0327
  121loPI   C2A 1928   6.852   6.240   9.217  0.2162  0.1530 -0.0424
  121loPI   C3A 1929   6.671   6.213   8.737  0.0100 -0.1492 -0.3140
  121loPI   C4A 1930   6.755   6.368   8.386  0.0493  0.0326  0.1186
  121loPI   C5A 1931   7.090   6.472   8.143  0.0332  0.1146  0.0833
  121loPI   C6A 1932   7.369   6.443   7.787 -0.2849 -0.3893 -0.1107
  121loPI   C1B 1933   6.259   6.193   9.474  0.0894  0.0895 -0.0233
  121loPI   C2B 1934   6.227   6.145   9.126  0.0423  0.1525 -0.0980
  121loPI   C3B 1935   6.139   6.218   8.679 -0.1967  0.0718  0.0629
  121loPI   C4B 1936   5.743   6.087   8.354 -0.0878  0.1250 -0.1971
  122loPI    C1 1937   8.703   8.520  10.197 -0.2625 -0.2031  0.1671
  122loPI    C2 1938   9.036   8.368  10.358 -0.0169 -0.0021 -0.1380
  122loPI    C3 1939   8.893   8.718  10.487 -0.0417 -0.0292 -0.0916
  122loPI   PO4 1940   8.663   8.581   9.949  0.4318  0.1057  0.4271
  122loPI   GL1 1941   8.809   8.891   9.598  0.2628 -0.0987 -0.0103
  122loPI   GL2 1942   8.633   9.157   9.688 -0.1053  0.2544 -0.1724
  122loPI   C1A 1943   8.869   9.086   9.188 -0.0846  0.2218  0.0102
  122loPI   C2A 1944   9.136   8.997   8.874  0.1437 -0.2569  0.2060
  122loPI   C3A 1945   8.955   9.214   8.563 -0.3093  0.0076 -0.0330
  122loPI   C4A 1946   8.906   9.138   8.173  0.0742 -0.0254  0.1138
  122loPI   C5A 1947   9.110   8.919   7.812  0.0951 -0.0267  0.1587
  122loPI   C6A 1948   9.241   9.086   7.443 -0.1028  0.0148 -0.2416
  122loPI   C1B 1949   8.405   8.903   9.299  0.0384  0.2063 -0.0593
  122loPI   C2B 1950   8.465   8.913   8.837 -0.1363  0.0420  0.1237
  122loPI   C3B 1951   8.472   8.974   8.383 -0.0484  0.0449 -0.2133
  122loPI   C4B 1952   8.425   9.025   7.867  0.0620  0.1647  0.0518
  123loPI    C1 1953   2.179  11.925  10.156 -0.1348 -0.1740  0.0369
  123loPI    C2 1954   2.242  11.623   9.901  0.3391 -0.1203  0.0806
  123loPI    C3 1955   2.213  11.551  10.293 -0.3247 -0.1948  0.0301
  123loPI   PO4 1956   2.272  12.132   9.944  0.0386 -0.0063 -0.0353
  123loPI   GL1 1957   2.143  12.119   9.583 -0.1660  0.1229 -0.2295
  123loPI   GL2 1958   1.876  12.191   9.556 -0.0166  0.0014  0.0317
  123loPI   C1A 1959   2.249  12.030   9.168  0.3241  0.1959  0.4400
  123loPI   C2A 1960   2.076  12.146   8.803  0.1089  0.1005  0.1411
  123loPI   C3A 1961   1.906  12.196   8.304 -0.1289 -0.2316 -0.1598
  123loPI   C4A 1962   1.881  12.243   7.897  0.0630 -0.1664 -0.0042
  123loPI   C5A 1963   2.086  12.556   7.596  0.0255  0.2542 -0.0118
  123loPI   C6A 1964   2.265  12.797   7.168  0.0533 -0.4212 -0.2578
  123loPI   C1B 1965   1.671  12.213   9.053 -0.4092  0.2118 -0.0702
  123loPI   C2B 1966   1.452  12.220   8.529  0.2611  0.1969  0.2075
  123loPI   C3B 1967   1.414  12.342   8.059  0.5686 -0.2126 -0.1018
  123loPI   C4B 1968   1.477  12.802   7.804 -0.0029 -0.1737  0.0029
  124loPI    C1 1969  11.342  17.433  10.281 -0.1429  0.2512  0.0059
  124loPI    C2 1970  11.246  17.170  10.567  0.0859  0.1044 -0.0495
  124loPI    C3 1971  11.591  17.371  10.588  0.0036  0.2540 -0.1118
  124loPI   PO4 1972  11.327  17.322  10.062  0.0402  0.1278  0.0243
  124loPI   GL1 1973  11.630  17.265   9.807 -0.0325  0.0217  0.0312
  124loPI   GL2 1974  11.825  17.482   9.746  0.0338 -0.2728 -0.1205
  124loPI   C1A 1975  11.871  17.010   9.530 -0.1361 -0.0701  0.0297
  124loPI   C2A 1976  12.145  16.852   9.179  0.0173  0.0255  0.2070
  124loPI   C3A 1977  12.361  17.042   8.837  0.1825  0.0105 -0.1320
  124loPI   C4A 1978  12.391  17.148   8.438 -0.2804  0.0228  0.0432
  124loPI   C5A 1979  12.545  17.398   8.051 -0.1362  0.0164  0.1830
  124loPI   C6A 1980  12.835  17.592   7.727  0.1551 -0.4115  0.0848
  124loPI   C1B 1981  11.632  17.603   9.349 -0.1281 -0.0097  0.2848
  124loPI   C2B 1982  11.618  17.541   8.905  0.1385  0.2779 -0.2991
  124loPI   C3B 1983  11.430  17.652   8.568  0.1395  0.2758 -0.0295
  124loPI   C4B 1984  11.201  17.799   8.227  0.1527  0.0203 -0.0956
  125loPI    C1 1985   3.824   1.922  10.425 -0.2437 -0.0910 -0.0720
  125loPI    C2 1986   3.993   2.163  10.696 -0.0047 -0.0727 -0.2341
  125loPI    C3 1987   3.793   1.838  10.815  0.0373 -0.0265 -0.0334
  125loPI   PO4 1988   3.990   1.954  10.211  0.3036  0.1365  0.0707
  125loPI   GL1 1989   4.119   1.859   9.782  0.1319  0.2963 -0.0966
  125loPI   GL2 1990   4.309   1.759   9.659 -0.0697 -0.2136  0.0211
  125loPI   C1A 1991   4.141   2.156   9.404 -0.1740 -0.3035  0.0724
  125loPI   C2A 1992   4.090   2.505   9.057  0.1648 -0.2940  0.0598
  125loPI   C3A 1993   4.058   2.429   8.556  0.1064 -0.1573 -0.3113
  125loPI   C4A 1994   4.255   2.482   8.112 -0.1021 -0.0652 -0.1014
  125loPI   C5A 1995   4.505   2.556   7.740 -0.1358  0.1126 -0.3349
  125loPI   C6A 1996   4.859   2.644   7.413 -0.1060  0.1134  0.1962
  125loPI   C1B 1997   4.466   1.732   9.231 -0.0768 -0.0417  0.2261
  125loPI   C2B 1998   4.609   1.703   8.728  0.1861 -0.0577  0.2017
  125loPI   C3B 1999   4.814   1.433   8.527  0.1852  0.0846 -0.0315
  125loPI   C4B 2000   4.866   1.061   8.318 -0.1839  0.0124  0.2128
  126loPI    C1 2001  15.401   3.789   9.967 -0.1293 -0.2720 -0.0486
  126loPI    C2 2002  15.557   3.483   9.763  0.1302 -0.0013 -0.2648
  126loPI    C3 2003  15.763   3.649  10.062  0.0077 -0.0108 -0.1745
  126loPI   PO4 2004  15.186   3.758   9.997 -0.2446 -0.2708  0.1590
  126loPI   GL1 2005  14.918   3.566   9.669  0.1467 -0.1332  0.1223
  126loPI   GL2 2006  15.158   3.655   9.523  0.0612 -0.2413  0.0749
  126loPI   C1A 2007  14.622   3.532   9.398 -0.2138  0.0716 -0.1606
  126loPI   C2A 2008  14.436   3.149   9.270 -0.0427  0.3649  0.0141
  126loPI   C3A 2009  14.503   2.948   8.910 -0.2345  0.3791  0.1607
  126loPI   C4A 2010  14.381   2.974   8.415 -0.1257 -0.0950 -0.1038
  126loPI   C5A 2011  14.391   2.973   8.002 -0.0944 -0.1227  0.1965
  126loPI   C6A 2012  14.296   2.890   7.587  0.1425  0.1293 -0.1002
  126loPI   C1B 2013  15.428   3.990   9.508 -0.2566  0.1318 -0.4031
  126loPI   C2B 2014  15.497   4.265   9.251  0.1439 -0.3924  0.0106
  126loPI   C3B 2015  15.507   4.402   8.787  0.2325 -0.0266  0.1014
  126loPI   C4B 2016  15.666   4.531   8.345 -0.1530  0.3241 -0.0872
  127loPI    C1 2017  17.040   4.075  10.474 -0.1132  0.1839  0.1126
  127loPI    C2 2018  16.901   4.442  10.554 -0.2282  0.0995  0.3100
  127loPI    C3 2019  16.947   4.177  10.850  0.0935  0.0345  0.2063
  127loPI   PO4 2020  17.047   4.141  10.167 -0.1208 -0.0124  0.1336
  127loPI   GL1 2021  17.389   4.198   9.865 -0.0253 -0.0364  0.2909
  127loPI   GL2 2022  17.502   4.527   9.847 -0.1541  0.1965 -0.2540
  127loPI   C1A 2023  17.314   4.251   9.424 -0.3483  0.0016 -0.0647
  127loPI   C2A 2024  17.156   4.425   9.014 -0.2291 -0.1989  0.3515
  127loPI   C3A 2025  16.875   4.545   8.681 -0.2212 -0.1661 -0.1301
  127loPI   C4A 2026  16.831   4.539   8.212 -0.2756 -0.1170  0.1223
  127loPI   C5A 2027  17.014   4.229   7.893 -0.2055 -0.0127  0.0918
  127loPI   C6A 2028  17.426   4.142   7.908 -0.1011  0.1503  0.2084
  127loPI   C1B 2029  17.221   4.750   9.450 -0.0688  0.1169 -0.2573
  127loPI   C2B 2030  17.082   4.931   8.994  0.0431 -0.0256 -0.1032
  127loPI   C3B 2031  17.157   4.887   8.469  0.1341  0.0633 -0.2784
  127loPI   C4B 2032  17.044   4.977   8.071 -0.0660 -0.2213 -0.0137
  128loPI    C1 2033   8.546  14.468  10.307  0.0072  0.0802  0.2199
  128loPI    C2 2034   8.698  14.292  10.633 -0.1718 -0.1882  0.1619
  128loPI    C3 2035   8.407  14.563  10.670 -0.0795 -0.0981  0.2346
  128loPI   PO4 2036   8.625  14.226  10.154  0.1608 -0.1563  0.3097
  128loPI   GL1 2037   8.421  14.108   9.796 -0.1058  0.0383 -0.0266
  128loPI   GL2 2038   8.267  14.245   9.605 -0.0425  0.1590 -0.2551
  128loPI   C1A 2039   8.571  14.003   9.302 -0.0742  0.0404 -0.0599
  128loPI   C2A 2040   8.454  13.758   8.918 -0.2173 -0.4100  0.3062
  128loPI   C3A 2041   8.520  13.548   8.539 -0.0706  0.1571  0.1437
  128loPI   C4A 2042   8.631  13.424   8.078  0.0558 -0.1062 -0.2866
  128loPI   C5A 2043   8.941  13.226   7.687  0.0818  0.0706  0.1206
  128loPI   C6A 2044   8.951  13.392   7.284  0.1003 -0.1993 -0.0252
  128loPI   C1B 2045   8.060  14.152   9.219 -0.2002  0.0245  0.1230
  128loPI   C2B 2046   7.996  13.812   8.951  0.5031 -0.0857 -0.0287
  128loPI   C3B 2047   8.057  13.682   8.558  0.1566 -0.0284 -0.0520
  128loPI   C4B 2048   8.084  13.494   8.237 -0.0915  0.0759 -0.1928
  129loPI    C1 2049   5.768  11.785  10.224 -0.1274  0.0639  0.0168
  129loPI    C2 2050   5.654  12.144  10.359 -0.1837 -0.0101  0.1693
  129loPI    C3 2051   5.947  11.945  10.545 -0.1975 -0.0721  0.1248
  129loPI   PO4 2052   5.844  11.799  10.002  0.0522 -0.0432 -0.1138
  129loPI   GL1 2053   5.729  11.542   9.778  0.0024  0.2085  0.2189
  129loPI   GL2 2054   5.548  11.569   9.622  0.1413 -0.1223 -0.2606
  129loPI   C1A 2055   5.840  11.335   9.297 -0.0299 -0.3246  0.0960
  129loPI   C2A 2056   6.248  11.418   9.031 -0.1238  0.2057  0.3141
  129loPI   C3A 2057   6.554  11.671   9.002 -0.0608 -0.2362 -0.1006
  129loPI   C4A 2058   6.741  11.841   8.686 -0.1628 -0.3238 -0.1386
  129loPI   C5A 2059   6.823  12.084   8.298  0.1767 -0.3041  0.1425
  129loPI   C6A 2060   6.832  12.204   7.940  0.1202  0.2678 -0.0677
  129loPI   C1B 2061   5.522  11.843   9.335 -0.0136 -0.2982 -0.1446
  129loPI   C2B 2062   5.275  11.887   8.956 -0.3074  0.2074 -0.2889
  129loPI   C3B 2063   5.112  11.728   8.600  0.0132 -0.1136 -0.2341
  129loPI   C4B 2064   5.152  11.349   8.406  0.0845 -0.1166 -0.0213
  130loPI    C1 2065  17.201  10.440  10.170  0.0977 -0.2025  0.0210
  130loPI    C2 2066  17.140  10.323  10.547  0.0433  0.2370  0.1546
  130loPI    C3 2067  17.513  10.361  10.407  0.0623 -0.0155  0.1319
  130loPI   PO4 2068  16.986  10.558  10.090 -0.0547 -0.0397 -0.1246
  130loPI   GL1 2069  16.802  10.626   9.698  0.2644  0.0884  0.1894
  130loPI   GL2 2070  16.939  10.718   9.437 -0.2085  0.0495 -0.0625
  130loPI   C1A 2071  16.475  10.495   9.404 -0.0660 -0.1362 -0.2072
  130loPI   C2A 2072  16.134  10.764   9.234  0.1668  0.0542  0.2091
  130loPI   C3A 2073  15.929  10.671   8.907 -0.0195  0.0024 -0.0523
  130loPI   C4A 2074  15.904  10.428   8.597 -0.0675  0.2309 -0.0663
  130loPI   C5A 2075  15.836  10.644   8.210 -0.4044 -0.0094 -0.1696
  130loPI   C6A 2076  15.903  10.867   7.806 -0.0993 -0.1978  0.1771
  130loPI   C1B 2077  16.885  10.563   9.031  0.2623  0.0924  0.1725
  130loPI   C2B 2078  16.787  10.565   8.580 -0.3009 -0.3387  0.1256
  130loPI   C3B 2079  16.645  10.821   8.264  0.0476  0.1685  0.1545
  130loPI   C4B 2080  16.681  10.913   7.936  0.1542  0.1471  0.0497
  131loPI    C1 2081   7.712  10.851  10.255  0.2797  0.1483  0.2249
  131loPI    C2 2082   7.338  10.980  10.312  0.0528 -0.3645 -0.0427
  131loPI    C3 2083   7.631  11.106  10.553 -0.2606  0.1532  0.0844
  131loPI   PO4 2084   7.647  10.631  10.156 -0.2343 -0.0032 -0.0400
  131loPI   GL1 2085   7.587  10.508   9.716 -0.1189 -0.0707  0.1174
  131loPI   GL2 2086   7.766  10.170   9.617  0.1251  0.0773 -0.0114
  131loPI   C1A 2087   7.616  10.559   9.278 -0.0113  0.1550  0.1737
  131loPI   C2A 2088   7.639  10.544   8.928  0.0009 -0.0931 -0.0668
  131loPI   C3A 2089   7.564  10.530   8.444 -0.1259 -0.2022  0.0764
  131loPI   C4A 2090   7.283  10.569   8.234  0.3040  0.1450  0.0738
  131loPI   C5A 2091   7.186  10.533   7.704 -0.4556 -0.2599  0.1105
  131loPI   C6A 2092   6.986  10.620   7.348 -0.0061  0.2446 -0.0020
  131loPI   C1B 2093   7.997  10.260   9.207  0.1967  0.1509 -0.1277
  131loPI   C2B 2094   7.923  10.177   8.710  0.1785 -0.2538  0.1802
  131loPI   C3B 2095   7.967  10.251   8.273  0.1152  0.2089 -0.2959
  131loPI   C4B 2096   8.094  10.440   7.927  0.0932  0.3047  0.1195
  132loPI    C1 2097  13.878  11.226  10.092 -0.0637 -0.1897  0.1968
  132loPI    C2 2098  14.271  11.281  10.138 -0.0796 -0.0324  0.1503
  132loPI    C3 2099  14.029  11.290  10.456 -0.0353 -0.2219  0.1907
  132loPI   PO4 2100  13.733  11.042   9.868 -0.1626  0.1087 -0.0083
  132loPI   GL1 2101  13.499  11.105   9.469 -0.1481  0.1840 -0.3558
  132loPI   GL2 2102  13.319  11.177   9.214  0.2674 -0.2442 -0.3581
  132loPI   C1A 2103  13.810  10.904   9.193  0.2965  0.0961  0.2289
  132loPI   C2A 2104  13.877  10.881   8.842  0.0846 -0.1698  0.0062
  132loPI   C3A 2105  13.731  10.879   8.537  0.0186 -0.0884 -0.0662
  132loPI   C4A 2106  13.520  10.993   8.190 -0.2583 -0.1000 -0.3349
  132loPI   C5A 2107  13.548  10.971   7.778  0.3094  0.0786 -0.2552
  132loPI   C6A 2108  13.484  11.251   7.482  0.0969  0.1431 -0.0305
  132loPI   C1B 2109  13.525  11.271   9.028 -0.2129 -0.3243  0.1627
  132loPI   C2B 2110  13.431  11.318   8.639 -0.3616 -0.1769 -0.0609
  132loPI   C3B 2111  13.090  11.178   8.315  0.0994  0.0761  0.2264
  132loPI   C4B 2112  12.826  11.238   8.005  0.0229  0.1332 -0.2388
  133loPI    C1 2113   7.658   5.007  10.866 -0.0866 -0.0752  0.0733
  133loPI    C2 2114   7.274   5.117  10.844 -0.0339  0.1906  0.4009
  133loPI    C3 2115   7.394   4.867  11.132  0.0741  0.2663  0.4220
  133loPI   PO4 2116   7.758   4.954  10.650 -0.1313 -0.1898  0.2654
  133loPI   GL1 2117   7.576   4.910  10.186  0.0332 -0.0758 -0.0995
  133loPI   GL2 2118   7.682   5.138   9.932  0.1035 -0.1207  0.1136
  133loPI   C1A 2119   7.350   4.584   9.926  0.3109  0.0782 -0.0085
  133loPI   C2A 2120   7.403   4.420   9.546 -0.0352 -0.0066 -0.1069
  133loPI   C3A 2121   7.463   4.471   9.226 -0.2913 -0.0606 -0.1213
  133loPI   C4A 2122   7.527   4.529   8.778  0.1347 -0.1719 -0.1182
  133loPI   C5A 2123   7.180   4.691   8.481  0.0249  0.2188  0.0771
  133loPI   C6A 2124   7.047   4.578   8.051  0.1941 -0.2036  0.0685
  133loPI   C1B 2125   7.609   4.910   9.572 -0.0741  0.2303  0.4258
  133loPI   C2B 2126   7.477   4.999   9.072  0.0011  0.0632  0.0384
  133loPI   C3B 2127   7.456   5.122   8.643  0.2754 -0.3589 -0.1248
  133loPI   C4B 2128   7.495   5.108   8.182 -0.1655 -0.0416 -0.3492
  134loPI    C1 2129   7.060  12.531  10.284 -0.0556 -0.0387 -0.1631
  134loPI    C2 2130   6.969  12.909  10.377 -0.1520 -0.0344 -0.2728
  134loPI    C3 2131   7.330  12.762  10.468 -0.2257 -0.0154  0.0621
  134loPI   PO4 2132   7.027  12.571   9.989 -0.0287 -0.0186  0.0063
  134loPI   GL1 2133   6.833  12.630   9.592  0.1523 -0.1589  0.1156
  134loPI   GL2 2134   6.655  12.459   9.433 -0.2232  0.2001  0.1052
  134loPI   C1A 2135   7.058  12.733   9.264  0.1652  0.2133  0.2776
  134loPI   C2A 2136   7.340  12.881   8.903  0.0106  0.2933  0.0310
  134loPI   C3A 2137   7.400  12.889   8.496  0.0401  0.3080 -0.0964
  134loPI   C4A 2138   7.518  12.771   8.045  0.0940 -0.2024 -0.1460
  134loPI   C5A 2139   7.874  12.642   7.776  0.1317 -0.0877  0.0016
  134loPI   C6A 2140   8.292  12.584   7.693  0.0153 -0.0081 -0.0504
  134loPI   C1B 2141   6.526  12.743   9.114 -0.1473  0.1566  0.1027
  134loPI   C2B 2142   6.302  12.773   8.789  0.0541  0.1461 -0.0209
  134loPI   C3B 2143   6.132  12.684   8.499  0.1382  0.4496  0.2749
  134loPI   C4B 2144   6.103  12.557   8.007  0.0230 -0.0166  0.1623
  135loPI    C1 2145  11.232  16.427  10.100 -0.1700 -0.0500  0.0590
  135loPI    C2 2146  11.073  16.653  10.389 -0.2575  0.0179 -0.0413
  135loPI    C3 2147  11.208  16.286  10.474 -0.2104  0.0672  0.1011
  135loPI   PO4 2148  11.056  16.401   9.825  0.4039 -0.1272 -0.1861
  135loPI   GL1 2149  11.181  16.156   9.495 -0.1030  0.3752 -0.1515
  135loPI   GL2 2150  11.520  16.100   9.589  0.0592  0.1069 -0.0917
  135loPI   C1A 2151  11.098  16.237   9.146 -0.2600  0.0007 -0.1319
  135loPI   C2A 2152  11.167  16.144   8.680 -0.1289 -0.0681 -0.0129
  135loPI   C3A 2153  11.382  16.004   8.384 -0.1513 -0.2020 -0.1382
  135loPI   C4A 2154  11.567  16.122   8.037 -0.3839 -0.0672  0.1077
  135loPI   C5A 2155  11.915  16.474   7.937 -0.3134  0.1908  0.1351
  135loPI   C6A 2156  12.124  16.827   7.620  0.2898  0.0698 -0.0605
  135loPI   C1B 2157  11.592  16.017   9.107  0.1372 -0.1479 -0.1479
  135loPI   C2B 2158  11.764  16.072   8.708  0.0180 -0.2482 -0.1354
  135loPI   C3B 2159  12.025  16.224   8.330  0.1885 -0.1117 -0.1853
  135loPI   C4B 2160  12.370  16.209   8.193 -0.3103 -0.0087 -0.1390
  136loPI    C1 2161  15.715   0.152  10.209  0.2726  0.0835 -0.0379
  136loPI    C2 2162  16.057   0.021  10.371  0.0603 -0.0720  0.2961
  136loPI    C3 2163  15.828   0.282  10.570 -0.0615 -0.0387  0.1155
  136loPI   PO4 2164  15.757   0.230   9.968  0.4060  0.1460  0.0319
  136loPI   GL1 2165  15.743   0.217   9.560  0.0439 -0.3951  0.0775
  136loPI   GL2 2166  15.981  -0.089   9.532  0.3391  0.0216 -0.0857
  136loPI   C1A 2167  15.684   0.588   9.251 -0.0388  0.0328 -0.0939
  136loPI   C2A 2168  15.366   0.710   8.925 -0.1033  0.0478 -0.1020
  136loPI   C3A 2169  15.123   0.802   8.520  0.0007  0.0484  0.0771
  136loPI   C4A 2170  15.181   1.065   8.109  0.0978  0.2478 -0.0755
  136loPI   C5A 2171  15.454   1.123   7.779 -0.0977 -0.2170  0.0008
  136loPI   C6A 2172  15.785   0.944   7.521 -0.0480  0.4929 -0.0821
  136loPI   C1B 2173  15.854  -0.013   9.126 -0.2018  0.1303  0.0133
  136loPI   C2B 2174  15.817  -0.055   8.729  0.0908 -0.0174 -0.0647
  136loPI   C3B 2175  15.812  -0.186   8.357  0.2855  0.0381 -0.0065
  136loPI   C4B 2176  15.938  -0.403   7.953  0.1133  0.1289  0.0159
  137loPI    C1 2177   0.460  13.195   9.920 -0.1837  0.0451 -0.1623
  137loPI    C2 2178   0.453  13.332  10.296  0.0200  0.2282 -0.2236
  137loPI    C3 2179   0.679  13.016  10.202  0.0080  0.2133 -0.2023
  137loPI   PO4 2180   0.403  13.502   9.754 -0.1933  0.3352 -0.0125
  137loPI   GL1 2181   0.409  13.647   9.328  0.2541  0.0655 -0.2635
  137loPI   GL2 2182   0.696  13.799   9.196  0.0967 -0.1866 -0.0516
  137loPI   C1A 2183   0.114  13.751   8.978  0.1279  0.1808  0.0795
  137loPI   C2A 2184   0.275  13.805   8.633  0.3186 -0.0754 -0.0105
  137loPI   C3A 2185   0.224  13.808   8.211  0.1428  0.0751  0.3053
  137loPI   C4A 2186   0.126  14.097   7.847 -0.0255  0.2715  0.2770
  137loPI   C5A 2187  -0.173  14.364   7.646 -0.0321  0.0205 -0.1922
  137loPI   C6A 2188  -0.498  14.518   7.409  0.0821  0.0114 -0.2869
  137loPI   C1B 2189   0.827  14.204   8.989  0.0356 -0.4020  0.1009
  137loPI   C2B 2190   1.045  14.185   8.659  0.1635 -0.0899  0.0524
  137loPI   C3B 2191   0.975  14.232   8.255 -0.1007  0.1661 -0.0532
  137loPI   C4B 2192   0.508  14.283   8.223  0.2239  0.2155 -0.3394
  138loPI    C1 2193  15.754  18.503  10.449  0.1924  0.0159 -0.1971
  138loPI    C2 2194  15.568  18.402  10.788  0.2771 -0.1423 -0.1971
  138loPI    C3 2195  15.514  18.766  10.632  0.2253 -0.0739 -0.0225
  138loPI   PO4 2196  15.760  18.358  10.199 -0.0924 -0.5370 -0.0910
  138loPI   GL1 2197  15.595  18.587   9.843  0.0211  0.0453 -0.1386
  138loPI   GL2 2198  15.770  18.325   9.689  0.1158  0.0623 -0.1260
  138loPI   C1A 2199  15.485  18.664   9.432 -0.1640 -0.2016 -0.1008
  138loPI   C2A 2200  15.432  18.540   8.979 -0.0522  0.1224 -0.5401
  138loPI   C3A 2201  15.421  18.492   8.525 -0.0731 -0.1940  0.2260
  138loPI   C4A 2202  15.573  18.205   8.154  0.0908 -0.2084  0.1939
  138loPI   C5A 2203  15.580  18.073   7.708  0.0053 -0.2338  0.1380
  138loPI   C6A 2204  15.760  17.615   7.644  0.2133  0.1148  0.1395
  138loPI   C1B 2205  15.398  18.072   9.453 -0.0085  0.2261  0.1321
  138loPI   C2B 2206  15.540  18.039   9.071  0.0126  0.1146  0.0642
  138loPI   C3B 2207  15.441  18.024   8.699 -0.1695 -0.1520  0.0829
  138loPI   C4B 2208  15.257  17.845   8.314 -0.2790 -0.1516 -0.1034
  139loPI    C1 2209   2.087  10.166   9.822 -0.0411 -0.0037  0.0420
  139loPI    C2 2210   2.449  10.319   9.896 -0.1108  0.1450  0.0790
  139loPI    C3 2211   2.210  10.216  10.200 -0.1766  0.2315  0.0570
  139loPI   PO4 2212   2.038  10.344   9.586 -0.2299  0.2862 -0.2892
  139loPI   GL1 2213   2.260  10.176   9.270  0.3320  0.1337  0.0963
  139loPI   GL2 2214   2.336  10.410   9.081 -0.0800 -0.2615  0.1977
  139loPI   C1A 2215   2.302   9.897   8.928  0.0389  0.0033 -0.2230
  139loPI   C2A 2216   2.365   9.623   8.636  0.0056  0.0751 -0.0884
  139loPI   C3A 2217   2.511   9.328   8.277 -0.1485 -0.2228  0.0561
  139loPI   C4A 2218   2.833   9.076   7.938  0.0006  0.1614  0.1851
  139loPI   C5A 2219   2.814   9.253   7.569 -0.1942  0.3643 -0.0154
  139loPI   C6A 2220   2.479   9.237   7.215  0.0172 -0.3170  0.0971
  139loPI   C1B 2221   2.806  10.425   9.019  0.0917  0.0104  0.0952
  139loPI   C2B 2222   3.068  10.443   8.726 -0.1388  0.0890 -0.0076
  139loPI   C3B 2223   3.044  10.228   8.240 -0.2051 -0.4001 -0.0376
  139loPI   C4B 2224   2.664  10.284   7.999  0.3193 -0.0442  0.0137
  140loPI    C1 2225   1.037   3.972  10.013 -0.0354 -0.0569  0.1575
  140loPI    C2 2226   0.935   3.683  10.270 -0.0159 -0.0248  0.2016
  140loPI    C3 2227   1.056   4.039  10.407 -0.2426  0.0758  0.1465
  140loPI   PO4 2228   0.890   4.090   9.864 -0.1104  0.1532 -0.1380
  140loPI   GL1 2229   0.877   4.145   9.441  0.1189 -0.2560 -0.3940
  140loPI   GL2 2230   1.033   3.839   9.439 -0.0283 -0.1945 -0.0500
  140loPI   C1A 2231   0.869   4.329   9.004 -0.3550  0.0801 -0.2005
  140loPI   C2A 2232   0.871   4.395   8.648  0.1931  0.0286  0.2478
  140loPI   C3A 2233   0.991   4.508   8.232  0.1067  0.0697  0.0816
  140loPI   C4A 2234   1.232   4.561   7.819  0.3106 -0.0129 -0.1807
  140loPI   C5A 2235   1.264   4.334   7.458 -0.1111  0.0739 -0.3641
  140loPI   C6A 2236   1.184   4.171   7.074  0.0816  0.0602 -0.0753
  140loPI   C1B 2237   0.918   3.611   9.199  0.0816  0.0079  0.0941
  140loPI   C2B 2238   0.942   3.300   8.939  0.2128 -0.1206  0.3789
  140loPI   C3B 2239   0.608   3.226   8.607 -0.1728 -0.2430  0.2754
  140loPI   C4B 2240   0.577   3.005   8.263  0.2772  0.1787  0.1486
  141loPI    C1 2241   9.656   8.153  10.675 -0.0871  0.1273  0.2017
  141loPI    C2 2242   9.665   8.400  10.990 -0.1572  0.1171  0.2119
  141loPI    C3 2243   9.669   8.004  11.046  0.0771  0.1152  0.1918
  141loPI   PO4 2244   9.699   8.243  10.441 -0.0202 -0.0287 -0.0296
  141loPI   GL1 2245   9.498   8.219  10.042  0.3463  0.0400  0.0134
  141loPI   GL2 2246   9.748   8.431   9.952  0.0204  0.2974  0.1008
  141loPI   C1A 2247   9.359   8.333   9.645  0.2358 -0.2147 -0.1138
  141loPI   C2A 2248   9.440   8.227   9.277  0.0969  0.1986  0.5904
  141loPI   C3A 2249   9.769   8.087   8.970 -0.1285  0.1561  0.0337
  141loPI   C4A 2250  10.114   8.072   8.727 -0.1452  0.2659  0.0634
  141loPI   C5A 2251  10.001   7.906   8.446 -0.0705  0.0321 -0.2528
  141loPI   C6A 2252   9.934   7.932   8.012 -0.4283 -0.0322  0.2673
  141loPI   C1B 2253   9.803   8.550   9.430  0.0723  0.0265 -0.0037
  141loPI   C2B 2254  10.034   8.539   9.014 -0.0069 -0.0813  0.2704
  141loPI   C3B 2255   9.946   8.656   8.665 -0.0688 -0.0303 -0.1225
  141loPI   C4B 2256   9.965   8.914   8.329 -0.1718  0.1944  0.1129
  142loPI    C1 2257   1.429   7.162  10.120 -0.1649  0.2590  0.0147
  142loPI    C2 2258   1.175   6.855  10.152  0.0150  0.1103  0.0332
  142loPI    C3 2259   1.317   7.032  10.481 -0.2842  0.3796  0.0215
  142loPI   PO4 2260   1.562   7.100   9.997  0.1160 -0.1010  0.2818
  142loPI   GL1 2261   1.800   7.231   9.635 -0.2129 -0.2553  0.0687
  142loPI   GL2 2262   1.914   6.862   9.709 -0.0775  0.1784  0.1533
  142loPI   C1A 2263   1.810   7.332   9.144 -0.0837  0.1070 -0.3892
  142loPI   C2A 2264   1.763   7.182   8.731 -0.1252  0.4262 -0.1708
  142loPI   C3A 2265   1.676   7.091   8.348  0.2786  0.2608  0.0455
  142loPI   C4A 2266   1.739   6.951   7.949  0.2214  0.1286 -0.1757
  142loPI   C5A 2267   2.120   7.009   7.703  0.1411  0.0672 -0.2357
  142loPI   C6A 2268   2.468   6.764   7.683  0.0135  0.1555  0.1723
  142loPI   C1B 2269   2.132   6.851   9.359  0.0010 -0.1014 -0.0535
  142loPI   C2B 2270   2.152   6.988   8.988 -0.3468 -0.0257  0.1083
  142loPI   C3B 2271   2.350   6.905   8.631  0.1857  0.0869 -0.1889
  142loPI   C4B 2272   2.122   7.070   8.271 -0.1610  0.2632  0.0156
  143loPI    C1 2273   0.547   1.532  10.312  0.0694  0.5536  0.0038
  143loPI    C2 2274   0.516   1.647  10.694  0.3223  0.2974  0.1048
  143loPI    C3 2275   0.867   1.520  10.550  0.1248 -0.0522 -0.0846
  143loPI   PO4 2276   0.329   1.581  10.244 -0.1904  0.0724 -0.0294
  143loPI   GL1 2277   0.342   1.345   9.877  0.2319  0.2135  0.0588
  143loPI   GL2 2278   0.482   1.080   9.760 -0.2774  0.3514 -0.1658
  143loPI   C1A 2279   0.334   1.490   9.522 -0.3201  0.3694 -0.0379
  143loPI   C2A 2280   0.287   1.397   9.125 -0.0957 -0.1815 -0.0418
  143loPI   C3A 2281   0.262   1.224   8.669  0.0327  0.0059 -0.0838
  143loPI   C4A 2282   0.223   1.042   8.238 -0.1644 -0.1075 -0.1754
  143loPI   C5A 2283   0.424   0.673   8.015  0.0039 -0.0674 -0.3364
  143loPI   C6A 2284   0.481   0.305   7.796  0.5739  0.1398  0.4843
  143loPI   C1B 2285   0.560   0.994   9.357 -0.1407  0.0946 -0.3404
  143loPI   C2B 2286   0.711   1.257   9.075  0.0214  0.0236  0.2400
  143loPI   C3B 2287   0.798   1.217   8.625 -0.1190 -0.1068 -0.0685
  143loPI   C4B 2288   0.716   1.064   8.204  0.0742  0.2289 -0.1514
  144loPI    C1 2289  13.947  17.393  10.332  0.1616  0.1458  0.0337
  144loPI    C2 2290  13.916  17.627  10.656 -0.0798  0.0588  0.0755
  144loPI    C3 2291  13.875  17.231  10.691  0.2047  0.0191 -0.0146
  144loPI   PO4 2292  13.740  17.485  10.035  0.0715  0.1107 -0.0294
  144loPI   GL1 2293  13.583  17.308   9.649  0.3614 -0.1579  0.1574
  144loPI   GL2 2294  13.924  17.245   9.662  0.1237 -0.1381  0.2227
  144loPI   C1A 2295  13.613  17.341   9.320  0.1202 -0.2070  0.0072
  144loPI   C2A 2296  13.410  17.212   9.015  0.0091  0.1415 -0.3201
  144loPI   C3A 2297  13.200  17.354   8.635  0.1859 -0.0805 -0.0200
  144loPI   C4A 2298  13.063  17.175   8.234  0.1378  0.0429 -0.1474
  144loPI   C5A 2299  13.134  16.870   7.920  0.0012 -0.1486  0.1155
  144loPI   C6A 2300  13.256  16.433   7.734 -0.1149 -0.1912 -0.0651
  144loPI   C1B 2301  14.064  17.100   9.239  0.0382  0.4496  0.0670
  144loPI   C2B 2302  13.869  17.097   8.847  0.1826  0.1020 -0.0634
  144loPI   C3B 2303  13.695  17.309   8.601  0.1215  0.1045 -0.1716
  144loPI   C4B 2304  13.415  17.539   8.220  0.0908 -0.0712  0.2953
  145loPI    C1 2305   6.261  10.812  10.219  0.2866  0.0366 -0.1072
  145loPI    C2 2306   6.259  10.526   9.939 -0.0949 -0.1385  0.0656
  145loPI    C3 2307   6.339  10.433  10.320  0.0800  0.0404  0.0750
  145loPI   PO4 2308   6.405  10.977  10.027 -0.2306 -0.3127 -0.2416
  145loPI   GL1 2309   6.754  10.846   9.780 -0.0174  0.1913 -0.1185
  145loPI   GL2 2310   6.548  10.783   9.576  0.0056 -0.1151 -0.1049
  145loPI   C1A 2311   6.887  11.304   9.580 -0.0681 -0.0431 -0.1237
  145loPI   C2A 2312   6.987  11.462   9.176  0.1282  0.1926  0.1266
  145loPI   C3A 2313   7.099  11.468   8.770  0.0282  0.0503  0.2607
  145loPI   C4A 2314   7.523  11.444   8.663  0.0962  0.2264 -0.0195
  145loPI   C5A 2315   7.525  11.389   8.184  0.0766 -0.1764 -0.0050
  145loPI   C6A 2316   7.302  11.324   7.772 -0.1698  0.0416 -0.0170
  145loPI   C1B 2317   6.597  11.111   9.297 -0.1880 -0.0097  0.2097
  145loPI   C2B 2318   6.661  11.156   8.903 -0.2369 -0.0556 -0.0186
  145loPI   C3B 2319   6.518  11.434   8.560  0.0411 -0.0481  0.1012
  145loPI   C4B 2320   6.608  11.684   8.119  0.1636 -0.2390 -0.0573
  146loPI    C1 2321   7.623  10.121  10.120  0.2689  0.1207 -0.1247
  146loPI    C2 2322   7.676   9.736  10.024  0.0199  0.0447  0.0325
  146loPI    C3 2323   7.847   9.886  10.353 -0.0750  0.0078  0.0989
  146loPI   PO4 2324   7.375  10.137  10.008  0.0995  0.0682  0.1802
  146loPI   GL1 2325   7.201  10.156   9.620  0.0778  0.1944  0.0780
  146loPI   GL2 2326   7.327   9.879   9.616 -0.2305 -0.0001 -0.1442
  146loPI   C1A 2327   7.141  10.446   9.133 -0.2769 -0.0757 -0.1899
  146loPI   C2A 2328   7.090  10.493   8.697 -0.1477 -0.0309  0.0497
  146loPI   C3A 2329   6.829  10.443   8.420  0.0312 -0.1435  0.1934
  146loPI   C4A 2330   6.791  10.352   7.972  0.0944  0.4483 -0.1422
  146loPI   C5A 2331   6.535  10.323   7.635 -0.0072 -0.0386  0.1668
  146loPI   C6A 2332   6.086  10.429   7.591  0.0183  0.0959  0.2795
  146loPI   C1B 2333   7.482   9.926   9.275 -0.0333  0.2253  0.0865
  146loPI   C2B 2334   7.486   9.963   8.815 -0.0925 -0.0257 -0.1437
  146loPI   C3B 2335   7.439  10.046   8.389  0.0950  0.3017  0.1855
  146loPI   C4B 2336   7.275   9.894   8.040  0.1233 -0.0624  0.2379
  147loPI    C1 2337   4.325   4.945  10.411 -0.1193  0.0065 -0.1236
  147loPI    C2 2338   4.395   5.015  10.799  0.0014 -0.1231 -0.1212
  147loPI    C3 2339   4.532   4.680  10.628  0.2846  0.1129 -0.3688
  147loPI   PO4 2340   4.410   5.159  10.297  0.1758 -0.0591  0.3302
  147loPI   GL1 2341   4.469   5.111   9.863 -0.2767  0.0782 -0.0667
  147loPI   GL2 2342   4.670   4.904   9.640  0.1262  0.1406  0.0688
  147loPI   C1A 2343   4.501   5.322   9.443  0.2005 -0.2233  0.1309
  147loPI   C2A 2344   4.399   5.522   9.082 -0.1865 -0.1182 -0.1577
  147loPI   C3A 2345   4.383   5.727   8.720 -0.0756 -0.0403 -0.3154
  147loPI   C4A 2346   4.319   5.722   8.363 -0.0612 -0.0254  0.2409
  147loPI   C5A 2347   4.568   6.001   8.057 -0.2077  0.0852 -0.1991
  147loPI   C6A 2348   4.935   6.127   8.100 -0.1102  0.0317 -0.3050
  147loPI   C1B 2349   4.842   5.040   9.102  0.0257 -0.0468 -0.3108
  147loPI   C2B 2350   4.922   4.868   8.776 -0.2240  0.0589  0.0727
  147loPI   C3B 2351   4.778   4.935   8.396 -0.4555  0.2908 -0.0093
  147loPI   C4B 2352   4.870   5.052   7.966 -0.0441  0.0637  0.4285
  148loPI    C1 2353   3.832  18.035  10.449 -0.2404  0.1900  0.0053
  148loPI    C2 2354   3.544  17.800  10.597 -0.0706 -0.0039  0.0331
  148loPI    C3 2355   3.850  17.912  10.830  0.0994 -0.1546 -0.1146
  148loPI   PO4 2356   3.783  18.115  10.270  0.1386  0.4182 -0.3277
  148loPI   GL1 2357   3.906  18.266   9.935 -0.4282  0.0089 -0.1592
  148loPI   GL2 2358   4.255  18.213   9.796 -0.0675 -0.0509  0.1899
  148loPI   C1A 2359   3.770  18.231   9.483 -0.0086  0.4123 -0.1234
  148loPI   C2A 2360   3.829  18.275   9.004  0.2245  0.0656  0.2278
  148loPI   C3A 2361   3.710  18.393   8.590  0.1437  0.1962 -0.3083
  148loPI   C4A 2362   3.562  18.176   8.296 -0.0211 -0.0966 -0.4614
  148loPI   C5A 2363   3.721  18.190   7.952 -0.0941 -0.2763 -0.2096
  148loPI   C6A 2364   3.943  18.172   7.624 -0.3278  0.0802 -0.1015
  148loPI   C1B 2365   4.289  18.243   9.405 -0.2388  0.3664  0.2434
  148loPI   C2B 2366   4.464  18.295   9.022  0.0309 -0.2383 -0.0620
  148loPI   C3B 2367   4.562  18.323   8.680  0.2463  0.0541 -0.1973
  148loPI   C4B 2368   4.644  18.587   8.348 -0.2258  0.0706  0.0684
  149loPI    C1 2369  10.909   7.088  10.182 -0.2182 -0.0304  0.0728
  149loPI    C2 2370  10.877   7.276  10.534 -0.1970 -0.1133  0.1191
  149loPI    C3 2371  10.548   7.146  10.346 -0.2089 -0.0618  0.1043
  149loPI   PO4 2372  11.087   7.253  10.021  0.0949 -0.0956 -0.0421
  149loPI   GL1 2373  11.355   7.317   9.596  0.0047  0.1130  0.2579
  149loPI   GL2 2374  11.655   7.169   9.487  0.1254  0.0474 -0.3065
  149loPI   C1A 2375  11.185   7.679   9.404 -0.0446  0.1184 -0.0022
  149loPI   C2A 2376  11.257   7.848   9.011 -0.0389  0.1428  0.1354
  149loPI   C3A 2377  11.077   7.908   8.613  0.1576 -0.2547  0.0473
  149loPI   C4A 2378  11.054   7.852   8.152  0.1925 -0.0737 -0.0753
  149loPI   C5A 2379  11.298   7.721   7.945 -0.1702 -0.2153  0.1873
  149loPI   C6A 2380  11.685   7.521   7.721  0.2002  0.0968 -0.4010
  149loPI   C1B 2381  11.404   7.318   9.128 -0.0234 -0.0069 -0.2979
  149loPI   C2B 2382  11.321   7.375   8.770  0.0338  0.3050  0.0040
  149loPI   C3B 2383  11.202   7.460   8.352 -0.1821  0.3676 -0.1325
  149loPI   C4B 2384  10.886   7.386   7.935 -0.2292 -0.1196  0.0669
  150loPI    C1 2385  10.383  16.411  10.083  0.0123 -0.1689  0.0192
  150loPI    C2 2386  10.494  16.032  10.145  0.0963 -0.1630 -0.0913
  150loPI    C3 2387  10.752  16.329  10.216  0.0864 -0.1367 -0.1641
  150loPI   PO4 2388  10.317  16.375   9.746 -0.1840  0.2241 -0.1354
  150loPI   GL1 2389  10.349  16.102   9.295 -0.2061  0.0463  0.3870
  150loPI   GL2 2390  10.659  16.030   9.119  0.2288  0.0414 -0.0570
  150loPI   C1A 2391  10.208  16.219   8.919  0.1603  0.0099 -0.0342
  150loPI   C2A 2392  10.085  16.237   8.401  0.3128 -0.1135  0.3384
  150loPI   C3A 2393  10.080  16.349   7.919  0.0428 -0.1247 -0.1516
  150loPI   C4A 2394  10.231  16.713   7.705 -0.3938  0.2098 -0.2489
  150loPI   C5A 2395  10.610  16.815   7.468 -0.0448 -0.2118  0.1552
  150loPI   C6A 2396  10.975  16.450   7.423  0.1292  0.1968  0.4226
  150loPI   C1B 2397  10.679  15.867   8.742  0.0634 -0.0469  0.3110
  150loPI   C2B 2398  10.632  15.719   8.344 -0.2098  0.0305  0.2311
  150loPI   C3B 2399  10.885  15.870   7.901  0.2143 -0.0334 -0.3571
  150loPI   C4B 2400  11.113  16.203   7.833 -0.1835  0.0371 -0.0560
  151loPI    C1 2401  16.990  16.239  10.489 -0.0268 -0.1855 -0.0727
  151loPI    C2 2402  16.941  16.492  10.795  0.1246 -0.1219 -0.0999
  151loPI    C3 2403  16.677  16.197  10.735 -0.0702  0.0468 -0.0862
  151loPI   PO4 2404  17.054  16.433  10.244  0.0948  0.2156 -0.1863
  151loPI   GL1 2405  17.292  16.500   9.977  0.2984  0.0576 -0.0271
  151loPI   GL2 2406  17.545  16.770  10.012  0.1521 -0.2074  0.1893
  151loPI   C1A 2407  17.365  16.337   9.567 -0.1918  0.1281 -0.1827
  151loPI   C2A 2408  17.378  16.414   9.244  0.0927  0.1489  0.1256
  151loPI   C3A 2409  17.364  16.611   8.876 -0.0597  0.0839  0.3625
  151loPI   C4A 2410  17.417  16.744   8.397  0.1734  0.1946  0.0376
  151loPI   C5A 2411  17.235  16.621   7.976  0.0569 -0.1125 -0.1674
  151loPI   C6A 2412  17.361  16.766   7.539  0.1061 -0.2209 -0.2019
  151loPI   C1B 2413  17.865  16.718   9.734  0.1134  0.1587  0.0378
  151loPI   C2B 2414  18.135  16.697   9.377  0.0983  0.2457  0.0634
  151loPI   C3B 2415  18.475  16.770   9.221  0.2316  0.2810  0.0825
  151loPI   C4B 2416  18.694  16.451   9.233 -0.2088  0.0881  0.2720
  152loPI    C1 2417  16.479  16.140  10.254 -0.1132 -0.1469 -0.1807
  152loPI    C2 2418  16.546  15.767  10.381  0.1755 -0.0501 -0.0387
  152loPI    C3 2419  16.239  15.977  10.529  0.1222 -0.1657  0.0166
  152loPI   PO4 2420  16.602  16.173  10.100 -0.1325 -0.0343 -0.3233
  152loPI   GL1 2421  16.585  15.924   9.837  0.2874  0.2688 -0.1424
  152loPI   GL2 2422  16.312  15.765   9.930 -0.0141  0.1899  0.0134
  152loPI   C1A 2423  16.685  15.702   9.396  0.1280  0.3556  0.0002
  152loPI   C2A 2424  16.816  15.634   8.997 -0.4287 -0.1390 -0.1173
  152loPI   C3A 2425  16.990  15.669   8.629  0.0803 -0.0100  0.2174
  152loPI   C4A 2426  17.165  15.758   8.198  0.5142 -0.3577 -0.1545
  152loPI   C5A 2427  17.609  15.700   8.029  0.1526 -0.4567  0.3131
  152loPI   C6A 2428  18.044  15.827   7.864 -0.1275  0.0139  0.0022
  152loPI   C1B 2429  16.073  15.981   9.562 -0.0267  0.0690 -0.2321
  152loPI   C2B 2430  15.975  15.865   9.072  0.2629 -0.2199  0.1121
  152loPI   C3B 2431  15.944  15.676   8.677  0.1263  0.0159 -0.0686
  152loPI   C4B 2432  15.907  15.710   8.309 -0.0981 -0.0301 -0.0559
  153loPI    C1 2433  16.796  16.960  10.667  0.0226  0.0083 -0.0112
  153loPI    C2 2434  16.523  17.132  10.904  0.1401 -0.1257  0.2252
  153loPI    C3 2435  16.485  16.748  10.800  0.0126 -0.0300 -0.0952
  153loPI   PO4 2436  16.804  17.084  10.419 -0.3627 -0.0196  0.1006
  153loPI   GL1 2437  16.723  17.061   9.934 -0.1309 -0.1382  0.3141
  153loPI   GL2 2438  17.083  16.956   9.997 -0.0358 -0.1236  0.1805
  153loPI   C1A 2439  16.722  16.980   9.551  0.0492 -0.0838 -0.1247
  153loPI   C2A 2440  16.559  16.876   9.051  0.0002  0.1552 -0.1872
  153loPI   C3A 2441  16.394  16.651   8.715  0.1168  0.0477 -0.5084
  153loPI   C4A 2442  16.340  16.628   8.372 -0.3915 -0.2961 -0.4118
  153loPI   C5A 2443  16.447  16.305   8.059 -0.2899  0.0103  0.1061
  153loPI   C6A 2444  16.429  16.289   7.597  0.0449  0.2374  0.0545
  153loPI   C1B 2445  17.190  16.911   9.586  0.1493  0.0041 -0.1230
  153loPI   C2B 2446  17.046  16.853   9.168 -0.1910  0.1640 -0.0109
  153loPI   C3B 2447  16.949  16.776   8.690  0.1959  0.2531  0.0516
  153loPI   C4B 2448  16.863  16.591   8.327 -0.0071  0.3696 -0.1398
  154loPI    C1 2449  16.883  14.233  10.936  0.0849  0.0800  0.1766
  154loPI    C2 2450  17.048  14.581  11.041 -0.0469  0.1421  0.1801
  154loPI    C3 2451  16.914  14.330  11.323  0.0949  0.0648  0.1796
  154loPI   PO4 2452  16.798  14.327  10.680  0.0353  0.3522  0.0803
  154loPI   GL1 2453  16.773  14.217  10.216  0.0439 -0.0532  0.1289
  154loPI   GL2 2454  16.852  14.621  10.075  0.1549  0.3180 -0.3294
  154loPI   C1A 2455  16.678  14.070   9.856 -0.1871 -0.1109 -0.1036
  154loPI   C2A 2456  16.910  14.111   9.439  0.1457 -0.1641  0.0215
  154loPI   C3A 2457  17.006  14.327   9.034 -0.2295 -0.0104 -0.2465
  154loPI   C4A 2458  17.195  14.406   8.744  0.1035 -0.1607  0.0060
  154loPI   C5A 2459  17.064  14.373   8.295  0.2519 -0.4175 -0.1367
  154loPI   C6A 2460  16.829  14.247   7.936  0.2605 -0.3120 -0.1533
  154loPI   C1B 2461  16.735  14.665   9.728  0.0811 -0.0450  0.2691
  154loPI   C2B 2462  16.809  14.752   9.315 -0.2902  0.2539  0.0742
  154loPI   C3B 2463  16.810  14.740   8.832  0.0728  0.1836 -0.1032
  154loPI   C4B 2464  17.011  14.838   8.481 -0.0800 -0.0429  0.1224
  155loPI    C1 2465   0.603  12.592   9.889  0.0187 -0.0707  0.0671
  155loPI    C2 2466   0.807  12.269  10.004  0.0208 -0.1040 -0.0292
  155loPI    C3 2467   0.625  12.498  10.277  0.0618 -0.1577  0.0438
  155loPI   PO4 2468   0.691  12.776   9.816 -0.1479  0.5050 -0.1447
  155loPI   GL1 2469   0.694  13.060   9.453  0.0284 -0.0969 -0.0362
  155loPI   GL2 2470   0.393  13.173   9.273  0.1045  0.1258 -0.0215
  155loPI   C1A 2471   0.728  12.916   8.948 -0.0380 -0.0485 -0.2230
  155loPI   C2A 2472   0.625  12.956   8.620 -0.0120 -0.0652  0.0062
  155loPI   C3A 2473   0.592  12.827   8.170  0.0929  0.1180 -0.2969
  155loPI   C4A 2474   0.899  12.639   7.868 -0.1405  0.3723  0.1359
  155loPI   C5A 2475   1.149  12.607   7.459 -0.0706 -0.4402  0.1790
  155loPI   C6A 2476   1.233  13.064   7.284  0.0452 -0.0906 -0.5793
  155loPI   C1B 2477   0.317  13.349   8.846 -0.1759 -0.2650  0.4316
  155loPI   C2B 2478   0.354  13.374   8.376  0.0504  0.2757 -0.0462
  155loPI   C3B 2479   0.653  13.317   8.066 -0.0920 -0.1653 -0.0812
  155loPI   C4B 2480   1.091  13.497   7.999  0.1134 -0.3742 -0.0617
  156loPI    C1 2481   5.948   6.974  10.259 -0.0161  0.1439 -0.0680
  156loPI    C2 2482   5.615   7.044  10.470 -0.1337 -0.1789 -0.1413
  156loPI    C3 2483   5.946   7.257  10.542 -0.2838 -0.0238  0.1022
  156loPI   PO4 2484   5.826   6.895   9.969 -0.2193 -0.2389  0.0209
  156loPI   GL1 2485   6.039   6.972   9.636 -0.1206  0.0284 -0.0150
  156loPI   GL2 2486   6.239   6.773   9.823 -0.2865 -0.2128 -0.1827
  156loPI   C1A 2487   5.710   6.990   9.368  0.1819 -0.3561 -0.2910
  156loPI   C2A 2488   5.734   6.978   8.937 -0.0263 -0.0322  0.1662
  156loPI   C3A 2489   5.868   7.105   8.479 -0.2790  0.2887  0.0320
  156loPI   C4A 2490   6.087   7.280   8.151 -0.0062 -0.0332  0.2537
  156loPI   C5A 2491   6.298   7.521   7.850  0.1246 -0.3507  0.1714
  156loPI   C6A 2492   6.447   7.658   7.470 -0.2813 -0.0101  0.1629
  156loPI   C1B 2493   6.360   6.666   9.472 -0.4015  0.2215  0.1636
  156loPI   C2B 2494   6.567   6.641   9.080  0.1000  0.3782  0.0926
  156loPI   C3B 2495   6.722   6.709   8.681 -0.2237  0.0070  0.0179
  156loPI   C4B 2496   6.744   6.835   8.179  0.0511 -0.0390 -0.3506
  157loPI    C1 2497   6.477  17.907  10.130 -0.1263 -0.1424  0.2301
  157loPI    C2 2498   6.389  18.283  10.236  0.0067  0.0572 -0.3327
  157loPI    C3 2499   6.606  18.052  10.480 -0.2382  0.2755  0.1047
  157loPI   PO4 2500   6.215  17.832  10.010 -0.0572 -0.1269 -0.0588
  157loPI   GL1 2501   5.849  17.774   9.827  0.3767  0.0126 -0.0093
  157loPI   GL2 2502   6.113  17.717   9.552  0.0545 -0.2103 -0.0406
  157loPI   C1A 2503   5.763  18.169   9.578 -0.3950 -0.4759  0.2445
  157loPI   C2A 2504   5.974  18.397   9.202  0.1659  0.0592 -0.1396
  157loPI   C3A 2505   5.948  18.422   8.720  0.0082 -0.0285 -0.1782
  157loPI   C4A 2506   6.185  18.369   8.366 -0.0167  0.0104 -0.0936
  157loPI   C5A 2507   6.331  18.335   8.014 -0.3113  0.1082 -0.1130
  157loPI   C6A 2508   6.711  18.401   7.890  0.0895 -0.1179  0.1699
  157loPI   C1B 2509   6.368  18.120   9.429 -0.2116 -0.5337 -0.0521
  157loPI   C2B 2510   6.584  18.273   9.013  0.2422 -0.1208 -0.2757
  157loPI   C3B 2511   6.701  18.513   8.666  0.0632  0.0119  0.0267
  157loPI   C4B 2512   6.860  18.443   8.378 -0.2230  0.1518  0.0996
  158loPI    C1 2513  11.645  15.454  10.464  0.2057 -0.0417  0.0262
  158loPI    C2 2514  11.351  15.726  10.465  0.1578 -0.0925 -0.0867
  158loPI    C3 2515  11.276  15.351  10.348  0.2615 -0.1125 -0.0895
  158loPI   PO4 2516  11.823  15.599  10.251 -0.2895 -0.1992 -0.1586
  158loPI   GL1 2517  11.863  15.662   9.875  0.0607  0.0973 -0.3746
  158loPI   GL2 2518  12.072  15.413   9.785  0.3291 -0.0261  0.2721
  158loPI   C1A 2519  11.894  15.828   9.405  0.2588  0.1367 -0.0543
  158loPI   C2A 2520  12.133  15.927   9.030  0.3991  0.2676 -0.3832
  158loPI   C3A 2521  12.132  15.683   8.730  0.3446 -0.0503  0.0915
  158loPI   C4A 2522  12.222  15.571   8.247  0.1488 -0.3239 -0.0518
  158loPI   C5A 2523  12.241  15.800   7.836 -0.0174  0.2469 -0.1886
  158loPI   C6A 2524  12.570  15.886   7.583 -0.1384 -0.5092  0.1378
  158loPI   C1B 2525  12.190  15.193   9.415  0.1219  0.2312  0.0257
  158loPI   C2B 2526  12.135  15.216   8.941  0.1615  0.4043 -0.0999
  158loPI   C3B 2527  12.038  15.141   8.540 -0.0414  0.1669 -0.0721
  158loPI   C4B 2528  12.153  15.182   8.011 -0.0775 -0.0575 -0.0492
  159loPI    C1 2529   5.962  14.297  10.385 -0.0401 -0.2135 -0.1390
  159loPI    C2 2530   6.293  14.156  10.560  0.1037  0.0791 -0.1690
  159loPI    C3 2531   5.995  14.300  10.784 -0.0141 -0.2016 -0.1413
  159loPI   PO4 2532   6.009  14.301  10.103 -0.2902  0.1269 -0.0452
  159loPI   GL1 2533   6.154  14.256   9.604 -0.1376 -0.2359  0.0491
  159loPI   GL2 2534   6.054  14.467   9.348  0.0481  0.1302  0.1948
  159loPI   C1A 2535   6.451  14.151   9.198  0.0897 -0.1384 -0.0443
  159loPI   C2A 2536   6.439  13.904   8.811 -0.3229 -0.0745  0.0769
  159loPI   C3A 2537   6.368  13.760   8.388 -0.0007 -0.1450 -0.0875
  159loPI   C4A 2538   6.106  13.661   8.115 -0.0493  0.2655 -0.1305
  159loPI   C5A 2539   5.961  13.852   7.665  0.3273 -0.2754  0.0354
  159loPI   C6A 2540   5.895  14.191   7.517 -0.3686  0.1189 -0.1630
  159loPI   C1B 2541   6.174  14.582   8.945  0.0791 -0.2319  0.1071
  159loPI   C2B 2542   6.390  14.762   8.541 -0.1184  0.2355  0.1068
  159loPI   C3B 2543   6.412  14.738   8.161  0.3577 -0.1533  0.1353
  159loPI   C4B 2544   6.164  14.584   7.889  0.2780  0.1953 -0.2599
  160loPI    C1 2545  14.144  16.849  10.557 -0.1241 -0.0177 -0.0511
  160loPI    C2 2546  13.875  16.715  10.822 -0.1113 -0.0217 -0.0400
  160loPI    C3 2547  14.251  16.580  10.834 -0.1480 -0.1364 -0.1561
  160loPI   PO4 2548  14.006  16.879  10.309 -0.3065  0.2135 -0.3222
  160loPI   GL1 2549  13.898  16.602   9.981 -0.0894  0.2523 -0.2736
  160loPI   GL2 2550  14.246  16.530   9.942  0.1607  0.3530 -0.0171
  160loPI   C1A 2551  13.731  16.777   9.479 -0.1627 -0.2728  0.2579
  160loPI   C2A 2552  13.550  16.722   9.032 -0.3112  0.1208  0.2254
  160loPI   C3A 2553  13.466  16.858   8.654  0.3843  0.1967 -0.0967
  160loPI   C4A 2554  13.528  16.953   8.245  0.0339 -0.0521  0.2135
  160loPI   C5A 2555  13.525  17.220   7.854 -0.0560 -0.0929 -0.0112
  160loPI   C6A 2556  13.153  17.245   7.608  0.1816 -0.0769 -0.2829
  160loPI   C1B 2557  14.234  16.653   9.516 -0.0672  0.2811  0.1958
  160loPI   C2B 2558  14.227  16.623   9.142  0.3382 -0.3937  0.0035
  160loPI   C3B 2559  14.052  16.655   8.697 -0.1617 -0.1772 -0.2520
  160loPI   C4B 2560  14.349  16.620   8.264  0.1468  0.2564 -0.0959
  161loPI    C1 2561   9.653   7.227  10.376  0.0694  0.3487  0.0544
  161loPI    C2 2562   9.314   7.440  10.378 -0.0717  0.1266  0.2660
  161loPI    C3 2563   9.374   7.156  10.654  0.1662 -0.0266  0.0606
  161loPI   PO4 2564   9.622   7.200  10.089  0.3571  0.1360  0.1651
  161loPI   GL1 2565   9.388   7.360   9.824  0.0371 -0.2685  0.1510
  161loPI   GL2 2566   9.523   7.611   9.742  0.2833 -0.3354 -0.0498
  161loPI   C1A 2567   9.142   7.374   9.522  0.1898  0.0389 -0.0070
  161loPI   C2A 2568   8.852   7.489   9.256 -0.1160 -0.1247  0.0898
  161loPI   C3A 2569   8.626   7.731   8.988  0.0679 -0.0414 -0.0580
  161loPI   C4A 2570   8.353   7.540   8.641  0.1833  0.1928 -0.4109
  161loPI   C5A 2571   8.234   7.507   8.320  0.0452 -0.0886  0.1395
  161loPI   C6A 2572   8.500   7.050   8.043  0.2957 -0.2645 -0.2694
  161loPI   C1B 2573   9.559   7.636   9.326 -0.0955 -0.1349 -0.0941
  161loPI   C2B 2574   9.648   7.599   8.858  0.1071  0.2868  0.1712
  161loPI   C3B 2575   9.425   7.326   8.472 -0.1396  0.1713  0.0490
  161loPI   C4B 2576   9.304   7.435   8.122  0.0257  0.0206  0.0081
  162loPI    C1 2577  11.869   3.792  10.470  0.0025  0.1836  0.0395
  162loPI    C2 2578  11.635   3.846  10.790  0.2179  0.1108  0.2116
  162loPI    C3 2579  11.665   3.484  10.623 -0.0072  0.1791  0.0173
  162loPI   PO4 2580  11.769   3.938  10.305 -0.0528 -0.0595  0.1270
  162loPI   GL1 2581  11.863   4.064   9.858 -0.0378  0.2333  0.1046
  162loPI   GL2 2582  11.586   4.156   9.593  0.0360  0.3140  0.1439
  162loPI   C1A 2583  12.092   3.793   9.552  0.1535 -0.4446  0.0544
  162loPI   C2A 2584  12.171   3.690   9.160  0.2558  0.1474 -0.0900
  162loPI   C3A 2585  12.055   3.685   8.719 -0.1611  0.0569 -0.2341
  162loPI   C4A 2586  12.054   3.994   8.348  0.3186  0.0562 -0.1980
  162loPI   C5A 2587  11.832   4.233   7.987 -0.1700  0.1274  0.0333
  162loPI   C6A 2588  11.860   4.375   7.648 -0.1689  0.1622 -0.1298
  162loPI   C1B 2589  11.576   3.808   9.324  0.0424 -0.1092 -0.0686
  162loPI   C2B 2590  11.715   3.488   9.119  0.4113  0.0653 -0.1748
  162loPI   C3B 2591  11.602   3.435   8.727 -0.1772 -0.2111  0.2557
  162loPI   C4B 2592  11.141   3.441   8.602  0.0973  0.0738  0.1487
  163loPI    C1 2593   1.670  10.298   9.972 -0.2556 -0.0840 -0.0360
  163loPI    C2 2594   1.793   9.976  10.175 -0.1132 -0.0344 -0.0423
  163loPI    C3 2595   1.757  10.328  10.361  0.1193  0.0349 -0.1245
  163loPI   PO4 2596   1.500  10.206   9.688 -0.1702  0.0673 -0.1179
  163loPI   GL1 2597   1.639  10.358   9.310  0.0678  0.3687  0.0427
  163loPI   GL2 2598   1.625  10.601   9.124 -0.2232  0.2248 -0.0487
  163loPI   C1A 2599   1.367  10.190   9.005 -0.3800  0.1649 -0.0349
  163loPI   C2A 2600   1.383  10.023   8.592  0.1394  0.1698 -0.2024
  163loPI   C3A 2601   1.450   9.978   8.228 -0.0321  0.0288  0.3289
  163loPI   C4A 2602   1.464   9.857   7.858  0.1384  0.3248  0.3588
  163loPI   C5A 2603   1.694   9.632   7.657  0.1436 -0.2375 -0.0052
  163loPI   C6A 2604   2.048   9.497   7.533  0.1083 -0.0647  0.0700
  163loPI   C1B 2605   1.914  10.507   8.919 -0.1121  0.3153  0.0346
  163loPI   C2B 2606   2.250  10.464   8.621  0.0947 -0.2528 -0.0158
  163loPI   C3B 2607   2.598  10.280   8.541 -0.0027  0.1827  0.0196
  163loPI   C4B 2608   2.824   9.800   8.509 -0.1590  0.1867 -0.1412
  164loPI    C1 2609   3.693  10.853   9.849 -0.0942  0.2813  0.1567
  164loPI    C2 2610   3.798  11.183   9.649 -0.1163  0.1271 -0.1129
  164loPI    C3 2611   3.422  11.047   9.628 -0.1072  0.0839 -0.0032
  164loPI   PO4 2612   3.787  10.629   9.732  0.0398 -0.0551 -0.0112
  164loPI   GL1 2613   3.917  10.668   9.334  0.2005  0.2081 -0.2602
  164loPI   GL2 2614   3.684  10.908   9.289  0.1722 -0.2581  0.0813
  164loPI   C1A 2615   4.002  10.340   9.142  0.0095  0.2163  0.0758
  164loPI   C2A 2616   4.002  10.320   8.717  0.1365  0.0499 -0.2193
  164loPI   C3A 2617   3.921  10.305   8.258  0.4164 -0.1698 -0.1891
  164loPI   C4A 2618   3.905  10.308   7.785 -0.0774 -0.1032  0.1547
  164loPI   C5A 2619   4.083  10.260   7.348 -0.0396  0.0876  0.2821
  164loPI   C6A 2620   4.130  10.411   6.895  0.1884  0.2347 -0.0233
  164loPI   C1B 2621   3.829  10.800   8.830 -0.0845  0.0034  0.0263
  164loPI   C2B 2622   3.782  10.858   8.426  0.1301  0.1627 -0.0619
  164loPI   C3B 2623   3.900  10.900   8.075  0.4560 -0.0810 -0.0432
  164loPI   C4B 2624   3.885  10.754   7.658 -0.1411 -0.2587  0.0834
  165loPI    C1 2625  13.057   5.436  10.653 -0.0598 -0.2390  0.1733
  165loPI    C2 2626  13.283   5.745  10.770  0.0790 -0.1829 -0.2277
  165loPI    C3 2627  13.242   5.426  11.008 -0.0469  0.1290  0.1812
  165loPI   PO4 2628  13.084   5.287  10.460 -0.2675  0.2346 -0.0834
  165loPI   GL1 2629  12.871   5.215  10.021  0.0474 -0.0271 -0.0261
  165loPI   GL2 2630  12.544   4.994   9.992 -0.0871 -0.2882  0.0867
  165loPI   C1A 2631  12.730   5.226   9.542 -0.0512 -0.1481  0.0673
  165loPI   C2A 2632  12.712   5.031   9.019  0.3561 -0.0410  0.2251
  165loPI   C3A 2633  12.601   4.981   8.597 -0.0365  0.2610  0.0509
  165loPI   C4A 2634  12.291   4.861   8.281  0.0979 -0.1305 -0.2530
  165loPI   C5A 2635  11.945   4.692   8.184  0.2594 -0.0548  0.2757
  165loPI   C6A 2636  11.688   4.372   8.433  0.0368 -0.1146 -0.0480
  165loPI   C1B 2637  12.661   4.699   9.722 -0.1371  0.3013  0.1263
  165loPI   C2B 2638  12.949   4.406   9.627  0.2546 -0.0369  0.2933
  165loPI   C3B 2639  13.247   4.265   9.377  0.1638 -0.1106  0.1059
  165loPI   C4B 2640  13.396   4.352   8.932  0.2473  0.3117 -0.1637
  166loPI    C1 2641  13.586   6.005  10.518  0.0677 -0.2557 -0.1077
  166loPI    C2 2642  13.927   5.872  10.679  0.1513  0.0600 -0.0166
  166loPI    C3 2643  13.701   6.135  10.878  0.0127  0.0904 -0.2113
  166loPI   PO4 2644  13.670   6.101  10.278  0.0636 -0.4417  0.0179
  166loPI   GL1 2645  13.549   6.095   9.831  0.0049  0.2494 -0.0986
  166loPI   GL2 2646  13.474   5.772   9.763 -0.0995 -0.3551 -0.0329
  166loPI   C1A 2647  13.936   5.773   9.661  0.0408  0.2760 -0.2118
  166loPI   C2A 2648  14.246   5.563   9.339 -0.0133 -0.0390 -0.0310
  166loPI   C3A 2649  14.195   5.404   8.974 -0.1746 -0.0891  0.1060
  166loPI   C4A 2650  14.233   5.362   8.480  0.3061  0.1357  0.3066
  166loPI   C5A 2651  14.027   5.507   8.070  0.1925 -0.3276 -0.2140
  166loPI   C6A 2652  13.973   5.882   7.888  0.1864  0.0609  0.0370
  166loPI   C1B 2653  13.438   5.840   9.388 -0.1308  0.3570 -0.0761
  166loPI   C2B 2654  13.228   5.821   8.895  0.0435  0.0982  0.1817
  166loPI   C3B 2655  13.272   5.973   8.452 -0.0983  0.0193  0.1398
  166loPI   C4B 2656  13.498   6.108   8.076  0.0011  0.1958  0.1949
  167loPI    C1 2657  12.729   5.828  10.530  0.0541  0.0373 -0.3031
  167loPI    C2 2658  12.916   6.139  10.360  0.0364 -0.0572 -0.4981
  167loPI    C3 2659  12.565   6.193  10.545  0.4071  0.1866  0.1682
  167loPI   PO4 2660  12.819   5.609  10.243  0.1800  0.0129  0.0435
  167loPI   GL1 2661  12.879   5.669   9.832  0.0051  0.0075  0.1426
  167loPI   GL2 2662  12.967   5.997   9.867 -0.0908  0.2805 -0.3115
  167loPI   C1A 2663  12.905   5.731   9.356 -0.3006 -0.1566  0.1279
  167loPI   C2A 2664  12.777   5.886   8.995  0.0233 -0.0983  0.0680
  167loPI   C3A 2665  12.443   5.972   8.690  0.1465  0.0255 -0.0797
  167loPI   C4A 2666  12.281   6.081   8.310  0.1086 -0.1329 -0.1101
  167loPI   C5A 2667  12.511   5.824   8.097  0.1307 -0.2279 -0.1003
  167loPI   C6A 2668  12.693   5.392   8.079 -0.0839  0.0951 -0.1622
  167loPI   C1B 2669  13.002   6.265   9.454  0.2598  0.0252  0.1260
  167loPI   C2B 2670  12.927   6.375   9.160  0.0988 -0.1140 -0.1144
  167loPI   C3B 2671  12.868   6.328   8.731  0.0303  0.3509 -0.0747
  167loPI   C4B 2672  12.826   6.148   8.329 -0.0018 -0.0196  0.0353
  168loPI    C1 2673   3.402  11.357  10.052  0.0622 -0.2854  0.0461
  168loPI    C2 2674   3.048  11.475  10.195  0.0068 -0.3547 -0.0328
  168loPI    C3 2675   3.298  11.265  10.427  0.1462 -0.0051  0.1404
  168loPI   PO4 2676   3.399  11.507   9.875  0.3862  0.0212 -0.0648
  168loPI   GL1 2677   3.346  11.548   9.538  0.2308 -0.0580 -0.0075
  168loPI   GL2 2678   3.514  11.408   9.311 -0.1968 -0.0662 -0.0832
  168loPI   C1A 2679   2.964  11.716   9.323  0.0274 -0.0624 -0.0601
  168loPI   C2A 2680   2.746  11.867   9.001  0.0897 -0.0542  0.2347
  168loPI   C3A 2681   2.524  11.839   8.634  0.1052 -0.1187 -0.2587
  168loPI   C4A 2682   2.445  11.987   8.172  0.2138  0.2124 -0.0296
  168loPI   C5A 2683   2.467  11.866   7.770 -0.0928 -0.2203 -0.2601
  168loPI   C6A 2684   2.433  11.497   7.505  0.2306  0.2459 -0.1612
  168loPI   C1B 2685   3.622  11.270   8.899 -0.2385 -0.0849  0.1718
  168loPI   C2B 2686   3.467  11.323   8.475 -0.2041 -0.4160 -0.0671
  168loPI   C3B 2687   3.432  11.085   8.138  0.2081 -0.4783 -0.2868
  168loPI   C4B 2688   3.323  10.963   7.783 -0.2094 -0.2047  0.3034
  169loPI    C1 2689   1.971   4.539   9.952 -0.0894  0.0340  0.0707
  169loPI    C2 2690   1.584   4.636   9.979 -0.1348 -0.0506 -0.2363
  169loPI    C3 2691   1.826   4.690  10.293 -0.4429 -0.2134  0.0358
  169loPI   PO4 2692   2.077   4.680   9.688 -0.1712  0.2968  0.3330
  169loPI   GL1 2693   2.433   4.775   9.456 -0.3175 -0.1633 -0.0159
  169loPI   GL2 2694   2.327   4.975   9.199 -0.0151 -0.2762  0.2112
  169loPI   C1A 2695   2.491   4.508   9.132  0.2029 -0.0096  0.1228
  169loPI   C2A 2696   2.651   4.264   8.837 -0.2275 -0.1876 -0.1177
  169loPI   C3A 2697   2.558   4.408   8.491  0.1390  0.3638  0.2008
  169loPI   C4A 2698   2.228   4.382   8.204  0.3728  0.1941 -0.1786
  169loPI   C5A 2699   2.204   4.408   7.736 -0.2921 -0.0338  0.2818
  169loPI   C6A 2700   1.994   4.516   7.335 -0.0657  0.0139  0.1934
  169loPI   C1B 2701   1.936   4.829   8.974 -0.2022  0.0839 -0.0971
  169loPI   C2B 2702   1.595   4.813   8.792  0.0363 -0.0296 -0.0769
  169loPI   C3B 2703   1.380   4.802   8.361  0.0075  0.0415 -0.1519
  169loPI   C4B 2704   1.420   5.020   7.887 -0.0480 -0.1187  0.1351
  170loPI    C1 2705   1.658   9.227   9.917  0.1069  0.1534 -0.1569
  170loPI    C2 2706   1.313   9.416   9.846 -0.0042 -0.0501 -0.1639
  170loPI    C3 2707   1.524   9.502  10.175 -0.1851 -0.1001 -0.0330
  170loPI   PO4 2708   1.828   9.274   9.675  0.1962  0.1550 -0.3334
  170loPI   GL1 2709   1.568   9.338   9.329  0.1733  0.0381  0.0318
  170loPI   GL2 2710   1.335   9.185   9.266  0.2415  0.2785  0.0858
  170loPI   C1A 2711   1.736   9.527   8.978  0.0702 -0.1807  0.0435
  170loPI   C2A 2712   1.791   9.683   8.532  0.0861  0.1954  0.0539
  170loPI   C3A 2713   1.926   9.831   8.072  0.0318  0.5923 -0.0597
  170loPI   C4A 2714   2.233   9.920   7.626 -0.0063 -0.0196 -0.3236
  170loPI   C5A 2715   2.637  10.129   7.509 -0.2185 -0.4923  0.3266
  170loPI   C6A 2716   2.712  10.591   7.404  0.4034 -0.0306  0.5246
  170loPI   C1B 2717   1.371   9.187   8.817 -0.0980 -0.0830  0.4611
  170loPI   C2B 2718   1.468   9.275   8.384 -0.3349  0.2256  0.0442
  170loPI   C3B 2719   1.581   9.382   8.045 -0.0398 -0.3596 -0.2651
  170loPI   C4B 2720   1.708   9.161   7.656  0.0389  0.1173 -0.3168
  171loPI    C1 2721   0.750   9.716  10.064 -0.0850 -0.1195 -0.2154
  171loPI    C2 2722   1.009   9.505  10.284  0.0365 -0.0299 -0.2716
  171loPI    C3 2723   0.616   9.458  10.338  0.0651 -0.0500 -0.0752
  171loPI   PO4 2724   0.831   9.658   9.822 -0.0138 -0.0694  0.0908
  171loPI   GL1 2725   0.594   9.718   9.430  0.0287 -0.0860 -0.1928
  171loPI   GL2 2726   0.884   9.602   9.307 -0.2598 -0.0481 -0.0333
  171loPI   C1A 2727   0.597   9.831   9.006  0.0900  0.1763  0.1986
  171loPI   C2A 2728   0.469  10.098   8.627 -0.0762  0.0375 -0.1350
  171loPI   C3A 2729   0.636  10.377   8.373 -0.0301  0.2939  0.2681
  171loPI   C4A 2730   0.924  10.326   8.025 -0.1657  0.0934  0.0854
  171loPI   C5A 2731   1.283  10.421   7.828 -0.1351  0.0100  0.1404
  171loPI   C6A 2732   1.549  10.653   7.523 -0.0100  0.2023 -0.0250
  171loPI   C1B 2733   1.147   9.711   8.921 -0.1380 -0.0691  0.2570
  171loPI   C2B 2734   0.914   9.904   8.559  0.0445  0.0377  0.1031
  171loPI   C3B 2735   0.652   9.881   8.176 -0.0970 -0.0413  0.0785
  171loPI   C4B 2736   0.434   9.782   7.819  0.0954  0.0079 -0.1033
  172loPI    C1 2737   7.859   2.109  10.625 -0.1904 -0.3287 -0.0460
  172loPI    C2 2738   8.161   1.952  10.836 -0.0066 -0.1398 -0.1644
  172loPI    C3 2739   7.811   2.028  11.014  0.1014 -0.1130  0.0382
  172loPI   PO4 2740   7.914   2.037  10.346  0.1038 -0.2104  0.0038
  172loPI   GL1 2741   8.061   2.248   9.917 -0.0631  0.2260 -0.3579
  172loPI   GL2 2742   8.223   2.152   9.639  0.0047  0.2480  0.2071
  172loPI   C1A 2743   8.284   2.645   9.681  0.0391  0.2019  0.0996
  172loPI   C2A 2744   8.441   2.929   9.409  0.1576  0.1687  0.2168
  172loPI   C3A 2745   8.397   2.980   8.990 -0.1300 -0.3092  0.0584
  172loPI   C4A 2746   8.256   2.932   8.635  0.2795 -0.1784 -0.0751
  172loPI   C5A 2747   8.014   3.073   8.344 -0.0467 -0.1321  0.1799
  172loPI   C6A 2748   7.906   3.096   7.901 -0.4668 -0.1978 -0.0686
  172loPI   C1B 2749   8.348   2.319   9.331  0.0555 -0.0185 -0.0950
  172loPI   C2B 2750   8.416   2.425   8.898 -0.3470  0.3300  0.0617
  172loPI   C3B 2751   8.278   2.203   8.485  0.0904 -0.2039 -0.0668
  172loPI   C4B 2752   8.104   2.134   8.140  0.1522 -0.0426  0.0963
  173loPI    C1 2753  11.582  12.721   9.993 -0.0456 -0.1099 -0.1771
  173loPI    C2 2754  11.493  12.391  10.200 -0.0878 -0.0360 -0.0766
  173loPI    C3 2755  11.765  12.647  10.341  0.0149 -0.0755 -0.2015
  173loPI   PO4 2756  11.346  12.844   9.871  0.2951 -0.0327  0.1825
  173loPI   GL1 2757  11.290  13.233   9.635 -0.4157  0.2339 -0.1203
  173loPI   GL2 2758  11.517  13.328   9.412 -0.0303 -0.0771  0.1135
  173loPI   C1A 2759  11.031  13.283   9.242  0.3228  0.1235 -0.0087
  173loPI   C2A 2760  10.985  13.227   8.846  0.0456  0.1780 -0.0042
  173loPI   C3A 2761  11.009  13.209   8.411  0.0873  0.2025 -0.1402
  173loPI   C4A 2762  11.124  13.052   8.086  0.1065 -0.2598  0.0596
  173loPI   C5A 2763  10.887  12.909   7.803  0.0601  0.2165  0.3053
  173loPI   C6A 2764  10.477  12.992   7.744 -0.0309  0.2526  0.0038
  173loPI   C1B 2765  11.582  13.243   8.990  0.0744  0.2985  0.2614
  173loPI   C2B 2766  11.574  13.203   8.524  0.2518  0.0544  0.0292
  173loPI   C3B 2767  11.743  13.325   8.126  0.1183 -0.2586 -0.0834
  173loPI   C4B 2768  11.836  13.174   7.708  0.0960 -0.0377  0.1811
  174loPI    C1 2769   8.753   2.532  10.704  0.0009  0.0075  0.0986
  174loPI    C2 2770   8.435   2.396  10.904 -0.0936 -0.0968 -0.1191
  174loPI    C3 2771   8.651   2.698  11.053 -0.2126 -0.1161  0.0965
  174loPI   PO4 2772   8.699   2.596  10.459  0.0928  0.3888  0.0224
  174loPI   GL1 2773   8.613   2.341  10.072 -0.4526  0.0139 -0.1103
  174loPI   GL2 2774   8.853   2.558   9.986  0.4930 -0.1237 -0.0391
  174loPI   C1A 2775   8.681   2.270   9.661 -0.0146 -0.5584  0.1066
  174loPI   C2A 2776   8.751   2.568   9.227  0.0373  0.0772  0.0413
  174loPI   C3A 2777   8.796   2.749   8.845  0.0423 -0.0113  0.1618
  174loPI   C4A 2778   8.601   2.684   8.457 -0.1930  0.2820 -0.1102
  174loPI   C5A 2779   8.199   2.656   8.185  0.2082  0.1477  0.0189
  174loPI   C6A 2780   8.205   2.560   7.767  0.1611 -0.3263  0.2533
  174loPI   C1B 2781   8.872   2.767   9.726 -0.0043  0.3555  0.3060
  174loPI   C2B 2782   9.001   2.953   9.384  0.0506 -0.2855 -0.0349
  174loPI   C3B 2783   9.201   3.043   9.012  0.0971  0.1130 -0.1629
  174loPI   C4B 2784   9.164   3.038   8.636  0.0985  0.2091  0.1513
  175loPI    C1 2785   8.412  11.803  10.538  0.0055  0.4152  0.1181
  175loPI    C2 2786   8.252  11.797  10.904  0.0111  0.1460  0.1182
  175loPI    C3 2787   8.645  11.738  10.857 -0.0014  0.1056  0.0635
  175loPI   PO4 2788   8.226  11.657  10.344  0.1369  0.0944 -0.1016
  175loPI   GL1 2789   8.182  11.623   9.891 -0.2078  0.3179  0.0344
  175loPI   GL2 2790   7.842  11.477   9.727  0.0238  0.1204 -0.2358
  175loPI   C1A 2791   8.251  11.417   9.495 -0.4709  0.2038  0.1746
  175loPI   C2A 2792   8.303  11.135   9.132  0.1935 -0.3170 -0.0133
  175loPI   C3A 2793   8.357  11.153   8.755 -0.1251 -0.2073  0.1836
  175loPI   C4A 2794   8.371  11.131   8.289 -0.0655  0.0615  0.0579
  175loPI   C5A 2795   8.333  10.916   7.957 -0.1163 -0.0471 -0.2999
  175loPI   C6A 2796   8.002  10.836   7.632 -0.1792  0.2882  0.2561
  175loPI   C1B 2797   7.770  11.756   9.500 -0.4527 -0.0657  0.2052
  175loPI   C2B 2798   7.742  11.994   9.127  0.0494  0.2231 -0.4598
  175loPI   C3B 2799   7.760  11.894   8.654 -0.3876 -0.0101 -0.1475
  175loPI   C4B 2800   7.800  12.034   8.106  0.1229 -0.2571  0.0530
  176loPI    C1 2801   4.910   9.681   9.889 -0.0143 -0.0338  0.1684
  176loPI    C2 2802   5.011   9.358  10.103  0.1149 -0.0848  0.0329
  176loPI    C3 2803   5.191   9.708  10.172 -0.0383 -0.0356  0.1925
  176loPI   PO4 2804   4.795   9.615   9.639  0.0055  0.2208  0.1578
  176loPI   GL1 2805   5.155   9.634   9.318  0.0087  0.2461  0.2778
  176loPI   GL2 2806   5.116   9.906   9.423  0.0828 -0.4022  0.0163
  176loPI   C1A 2807   5.038   9.667   8.819  0.0214 -0.1060  0.1200
  176loPI   C2A 2808   4.976   9.586   8.478  0.0387 -0.2084  0.1121
  176loPI   C3A 2809   4.966   9.502   8.008 -0.2451 -0.2017 -0.1708
  176loPI   C4A 2810   4.817   9.676   7.633 -0.1145  0.1865  0.3267
  176loPI   C5A 2811   4.853   9.937   7.411 -0.0076  0.0971  0.1072
  176loPI   C6A 2812   5.047  10.353   7.343  0.3436 -0.0766  0.1513
  176loPI   C1B 2813   5.084  10.142   9.009  0.1703 -0.3002  0.1758
  176loPI   C2B 2814   4.947  10.145   8.606  0.0430  0.0065 -0.0307
  176loPI   C3B 2815   4.859  10.026   8.191  0.1994  0.3822  0.1919
  176loPI   C4B 2816   5.133   9.962   7.823 -0.2211 -0.2294 -0.1858
  177loPI    C1 2817  12.552  16.253  10.254  0.1834  0.1432  0.0402
  177loPI    C2 2818  12.332  16.490  10.018  0.2157  0.1095 -0.0241
  177loPI    C3 2819  12.262  16.478  10.412  0.0162  0.0019 -0.0615
  177loPI   PO4 2820  12.560  16.075  10.115 -0.1557 -0.0591 -0.0450
  177loPI   GL1 2821  12.456  15.792   9.810  0.2157 -0.0192  0.0618
  177loPI   GL2 2822  12.294  16.088   9.677  0.2163 -0.0025  0.0158
  177loPI   C1A 2823  12.409  15.667   9.381  0.3101 -0.0206  0.0277
  177loPI   C2A 2824  12.494  15.561   9.020  0.0822 -0.1349 -0.2206
  177loPI   C3A 2825  12.508  15.362   8.643 -0.2784 -0.3489  0.1040
  177loPI   C4A 2826  12.670  14.969   8.683 -0.0932  0.1302 -0.2805
  177loPI   C5A 2827  12.876  14.648   9.027  0.0669  0.0532  0.1003
  177loPI   C6A 2828  12.987  14.849   9.433  0.2258 -0.0096 -0.0507
  177loPI   C1B 2829  12.545  16.103   9.168 -0.0471 -0.0059 -0.1328
  177loPI   C2B 2830  12.515  16.002   8.726  0.2298  0.1675 -0.0069
  177loPI   C3B 2831  12.702  15.742   8.441  0.2664 -0.0638 -0.0183
  177loPI   C4B 2832  12.767  15.789   8.054 -0.1687 -0.1443  0.0229
  178loPI    C1 2833  16.489   8.774  10.257  0.1162  0.0477 -0.1787
  178loPI    C2 2834  16.347   9.066  10.491  0.0138 -0.1406 -0.0025
  178loPI    C3 2835  16.711   9.099  10.327  0.1410 -0.0641  0.2904
  178loPI   PO4 2836  16.275   8.677  10.127 -0.3721  0.2327  0.2153
  178loPI   GL1 2837  16.357   8.592   9.665 -0.1509 -0.1183 -0.2486
  178loPI   GL2 2838  16.624   8.419   9.554  0.1151 -0.0073 -0.0039
  178loPI   C1A 2839  16.242   8.627   9.151 -0.0297 -0.1381  0.1159
  178loPI   C2A 2840  16.186   8.662   8.672 -0.0822 -0.2345  0.1150
  178loPI   C3A 2841  16.188   8.526   8.305 -0.1656 -0.1682 -0.1775
  178loPI   C4A 2842  16.506   8.428   7.930 -0.0733 -0.0658  0.1405
  178loPI   C5A 2843  16.515   8.186   7.577 -0.0990 -0.2231 -0.4075
  178loPI   C6A 2844  16.837   7.946   7.372  0.0527 -0.1436 -0.1626
  178loPI   C1B 2845  16.722   8.541   9.105 -0.1095 -0.1564  0.0390
  178loPI   C2B 2846  16.694   8.496   8.645 -0.2780  0.0045 -0.0891
  178loPI   C3B 2847  16.863   8.787   8.271  0.1861 -0.1089  0.0590
  178loPI   C4B 2848  16.866   8.783   7.792 -0.1580 -0.1270 -0.0281
  179loPI    C1 2849   0.924  14.762   9.943  0.1975  0.0375 -0.0372
  179loPI    C2 2850   0.894  15.123  10.113 -0.0501 -0.0883  0.1942
  179loPI    C3 2851   1.158  14.857  10.252  0.2326  0.0493 -0.0673
  179loPI   PO4 2852   1.111  14.729   9.661 -0.1705  0.0906 -0.1732
  179loPI   GL1 2853   1.041  14.412   9.353  0.1459  0.3249 -0.2524
  179loPI   GL2 2854   1.096  14.066   9.337 -0.2379  0.0021 -0.2061
  179loPI   C1A 2855   1.273  14.531   8.909 -0.1722  0.1104 -0.0620
  179loPI   C2A 2856   1.300  14.601   8.472  0.1402  0.0865 -0.2369
  179loPI   C3A 2857   1.200  14.609   8.009 -0.2274 -0.3933  0.1353
  179loPI   C4A 2858   1.138  14.563   7.587 -0.3584 -0.1937  0.0160
  179loPI   C5A 2859   0.765  14.776   7.344  0.0440 -0.0391  0.1588
  179loPI   C6A 2860   0.440  14.895   7.653  0.2064 -0.1032  0.4089
  179loPI   C1B 2861   1.261  13.790   9.007  0.0846  0.2609  0.1795
  179loPI   C2B 2862   1.372  13.545   8.824 -0.0192  0.1535  0.0987
  179loPI   C3B 2863   1.483  13.379   8.500 -0.0124  0.0696  0.0643
  179loPI   C4B 2864   1.607  13.227   8.080  0.0754  0.1581  0.0580
  180loPI    C1 2865   3.748   2.472  10.337  0.1120 -0.0922 -0.0081
  180loPI    C2 2866   4.138   2.447  10.252  0.1033  0.2510 -0.1648
  180loPI    C3 2867   4.013   2.683  10.550  0.0215  0.0686 -0.0529
  180loPI   PO4 2868   3.635   2.323  10.103 -0.2823 -0.0820  0.1593
  180loPI   GL1 2869   3.855   2.315   9.763 -0.3580 -0.2593  0.1198
  180loPI   GL2 2870   3.669   2.041   9.694  0.2526 -0.1333 -0.3733
  180loPI   C1A 2871   3.646   2.682   9.537  0.0272  0.0478 -0.4234
  180loPI   C2A 2872   3.582   2.745   9.118  0.0617 -0.0101 -0.1965
  180loPI   C3A 2873   3.599   2.735   8.677 -0.0053  0.2000 -0.1705
  180loPI   C4A 2874   3.753   2.884   8.352 -0.1684 -0.0067 -0.0641
  180loPI   C5A 2875   3.817   2.644   7.923  0.1041  0.0851 -0.0995
  180loPI   C6A 2876   3.780   2.539   7.522  0.2813  0.2777 -0.0699
  180loPI   C1B 2877   3.635   2.272   9.279  0.1273  0.0258 -0.2098
  180loPI   C2B 2878   3.630   2.272   8.822  0.0355 -0.0255 -0.0155
  180loPI   C3B 2879   3.637   2.312   8.288  0.2229 -0.0421  0.1009
  180loPI   C4B 2880   3.407   2.271   7.887 -0.2286 -0.0470 -0.1098
  181loPI    C1 2881   3.895   5.898  10.582  0.0683 -0.1604 -0.2063
  181loPI    C2 2882   4.241   5.838  10.389  0.2752  0.0025  0.1042
  181loPI    C3 2883   4.224   5.798  10.787 -0.1001 -0.1435  0.0780
  181loPI   PO4 2884   3.710   5.782  10.358 -0.0881  0.0230  0.2876
  181loPI   GL1 2885   3.708   5.860   9.986 -0.0101  0.0359  0.1544
  181loPI   GL2 2886   4.019   5.879   9.949 -0.2870 -0.1771  0.0969
  181loPI   C1A 2887   3.332   5.792   9.771 -0.0396 -0.0618 -0.2535
  181loPI   C2A 2888   3.199   5.909   9.351  0.0583  0.0569  0.1434
  181loPI   C3A 2889   3.151   6.034   8.857  0.1163  0.0126 -0.0304
  181loPI   C4A 2890   3.159   5.957   8.479 -0.0456  0.0529  0.1767
  181loPI   C5A 2891   3.210   6.109   8.089  0.0196 -0.0668 -0.2448
  181loPI   C6A 2892   3.319   6.264   7.653 -0.1338  0.0952 -0.0042
  181loPI   C1B 2893   4.083   5.593   9.630  0.1463 -0.0257 -0.2302
  181loPI   C2B 2894   3.943   5.380   9.178 -0.0258  0.2543  0.0081
  181loPI   C3B 2895   4.039   5.371   8.775  0.3776  0.0946  0.0942
  181loPI   C4B 2896   3.929   5.454   8.340 -0.0058  0.1357  0.1665
  182loPI    C1 2897   6.413   5.570  10.830  0.1463 -0.0291  0.0391
  182loPI    C2 2898   6.347   5.190  10.724 -0.2872  0.0496  0.0082
  182loPI    C3 2899   6.190   5.333  11.063  0.0919  0.1326  0.1535
  182loPI   PO4 2900   6.396   5.661  10.531 -0.3119  0.2132 -0.0241
  182loPI   GL1 2901   6.491   5.854  10.161 -0.0119 -0.0083 -0.0518
  182loPI   GL2 2902   6.408   5.522  10.033  0.1090  0.0019  0.0661
  182loPI   C1A 2903   6.776   5.935   9.677  0.0751 -0.3205  0.2426
  182loPI   C2A 2904   6.633   5.812   9.300  0.0620  0.0824 -0.0923
  182loPI   C3A 2905   6.605   5.417   9.097 -0.3835 -0.0676  0.0205
  182loPI   C4A 2906   6.472   5.129   8.730  0.0832  0.2823 -0.1723
  182loPI   C5A 2907   6.097   4.849   8.618  0.0680 -0.0836 -0.0871
  182loPI   C6A 2908   5.830   4.486   8.810 -0.0991  0.0798  0.3730
  182loPI   C1B 2909   6.268   5.683   9.707  0.0835 -0.0713 -0.2589
  182loPI   C2B 2910   6.204   5.616   9.278 -0.1138 -0.2872 -0.0488
  182loPI   C3B 2911   6.377   5.759   8.830  0.3562 -0.2081 -0.0314
  182loPI   C4B 2912   6.282   5.824   8.381 -0.2667  0.1631  0.0223
  183loPI    C1 2913   5.409  18.537  10.393  0.3047  0.0882  0.0289
  183loPI    C2 2914   5.416  18.455  10.784  0.2953 -0.0316  0.0042
  183loPI    C3 2915   5.744  18.401  10.562  0.2331 -0.1922 -0.0502
  183loPI   PO4 2916   5.054  18.705  10.351 -0.1449  0.1008  0.0941
  183loPI   GL1 2917   5.047  18.684   9.911 -0.3946  0.0438  0.1075
  183loPI   GL2 2918   5.209  18.390   9.926 -0.0015  0.2206 -0.1800
  183loPI   C1A 2919   5.126  18.840   9.451 -0.0206  0.0474 -0.0750
  183loPI   C2A 2920   5.164  18.822   9.053 -0.0512  0.2989  0.0398
  183loPI   C3A 2921   5.374  19.122   8.797 -0.1790 -0.0582  0.1704
  183loPI   C4A 2922   5.478  19.575   8.566 -0.2149 -0.0658 -0.1408
  183loPI   C5A 2923   5.329  19.500   8.115  0.0866  0.2296  0.2568
  183loPI   C6A 2924   5.157  19.605   7.706 -0.2938 -0.1312 -0.0842
  183loPI   C1B 2925   5.229  18.315   9.507  0.2016 -0.0969 -0.1702
  183loPI   C2B 2926   5.456  18.441   9.142  0.0330 -0.0426 -0.0129
  183loPI   C3B 2927   5.455  18.160   8.733 -0.1609  0.1650 -0.0904
  183loPI   C4B 2928   5.550  18.148   8.322  0.1770  0.0497 -0.0601
  184loPI    C1 2929   4.121  18.781  10.598 -0.0830  0.1629  0.0165
  184loPI    C2 2930   3.989  19.083  10.826  0.1984  0.1818  0.1594
  184loPI    C3 2931   4.269  18.834  10.966  0.1060 -0.0328 -0.0293
  184loPI   PO4 2932   4.102  18.937  10.348  0.0791 -0.2182 -0.1073
  184loPI   GL1 2933   3.986  18.896   9.960 -0.1438  0.3690 -0.1505
  184loPI   GL2 2934   3.734  19.085  10.019 -0.0442  0.1268 -0.1522
  184loPI   C1A 2935   3.974  18.656   9.592 -0.2986  0.0497  0.0914
  184loPI   C2A 2936   4.183  18.681   9.127  0.2334  0.0656 -0.2049
  184loPI   C3A 2937   4.156  18.647   8.677 -0.1283 -0.0677  0.0838
  184loPI   C4A 2938   4.038  18.636   8.306 -0.0491  0.2873  0.1012
  184loPI   C5A 2939   3.649  18.716   8.072  0.0354  0.1418  0.1350
  184loPI   C6A 2940   3.215  18.874   7.859 -0.0494  0.0106  0.3547
  184loPI   C1B 2941   3.725  19.097   9.574 -0.0542  0.2136  0.0351
  184loPI   C2B 2942   3.712  19.333   9.227 -0.0267 -0.3433  0.2308
  184loPI   C3B 2943   3.632  19.474   8.811  0.1740  0.0800  0.1614
  184loPI   C4B 2944   3.516  19.707   8.501 -0.1371 -0.0471  0.4359
  185loPI    C1 2945   8.354   6.641  10.629  0.1334 -0.2729 -0.0929
  185loPI    C2 2946   8.008   6.451  10.695 -0.0277  0.0650  0.0631
  185loPI    C3 2947   8.221   6.592  11.003  0.0217  0.2538 -0.0557
  185loPI   PO4 2948   8.515   6.583  10.509  0.4384  0.0967 -0.0256
  185loPI   GL1 2949   8.511   6.401  10.066 -0.2201  0.0616 -0.2191
  185loPI   GL2 2950   8.347   6.731   9.946 -0.0620  0.2519 -0.0510
  185loPI   C1A 2951   8.489   6.314   9.679  0.0629  0.3279 -0.0251
  185loPI   C2A 2952   8.552   6.433   9.285  0.4065 -0.0887  0.0236
  185loPI   C3A 2953   8.509   6.570   8.929 -0.1686 -0.0395 -0.1103
  185loPI   C4A 2954   8.570   6.692   8.470 -0.1221 -0.0077  0.0799
  185loPI   C5A 2955   8.901   6.689   8.131 -0.0639  0.0134  0.3055
  185loPI   C6A 2956   8.986   7.102   7.938 -0.0769 -0.0806  0.0988
  185loPI   C1B 2957   8.288   6.757   9.572  0.1714 -0.0221  0.5416
  185loPI   C2B 2958   8.101   6.893   9.214 -0.0545 -0.0882  0.1298
  185loPI   C3B 2959   8.032   6.794   8.820 -0.1974  0.1162 -0.4671
  185loPI   C4B 2960   8.241   7.025   8.482  0.1587  0.0132  0.0441
  186loPI    C1 2961   1.417  18.151  10.373  0.2810  0.0105 -0.2174
  186loPI    C2 2962   1.516  18.353  10.703 -0.1009 -0.0822 -0.0405
  186loPI    C3 2963   1.159  18.411  10.532  0.0502 -0.1168 -0.3770
  186loPI   PO4 2964   1.582  18.220  10.155 -0.1688 -0.0356 -0.2537
  186loPI   GL1 2965   1.577  18.358   9.766 -0.0986  0.0650 -0.3249
  186loPI   GL2 2966   1.763  18.552   9.481 -0.0887  0.0236 -0.0508
  186loPI   C1A 2967   1.472  18.116   9.442  0.1609 -0.2205 -0.1252
  186loPI   C2A 2968   1.187  18.145   9.117  0.3302  0.7696  0.1475
  186loPI   C3A 2969   1.088  17.980   8.834  0.4348 -0.0949  0.0718
  186loPI   C4A 2970   1.071  17.831   8.419 -0.0169  0.3849  0.3467
  186loPI   C5A 2971   0.973  17.724   8.018  0.0027 -0.0538 -0.1503
  186loPI   C6A 2972   0.987  17.982   7.669  0.2269  0.0016 -0.2194
  186loPI   C1B 2973   2.048  18.404   9.082  0.2606  0.3483 -0.0681
  186loPI   C2B 2974   1.951  18.313   8.651 -0.0351 -0.1433  0.0224
  186loPI   C3B 2975   1.885  17.944   8.336  0.3251 -0.2448  0.0172
  186loPI   C4B 2976   2.030  17.830   7.899  0.0389  0.3821 -0.1525
  187loPI    C1 2977   8.014   7.306  10.211 -0.0678  0.0189 -0.0012
  187loPI    C2 2978   7.770   7.413   9.914  0.0774  0.2863 -0.0277
  187loPI    C3 2979   7.963   7.064   9.897 -0.1611  0.1548 -0.0921
  187loPI   PO4 2980   8.192   7.553  10.184  0.0779 -0.0107  0.0007
  187loPI   GL1 2981   8.168   7.674   9.775 -0.3579 -0.1343  0.0140
  187loPI   GL2 2982   7.858   7.764   9.623 -0.0225  0.0434  0.1936
  187loPI   C1A 2983   8.263   7.699   9.291 -0.0528 -0.2865 -0.1563
  187loPI   C2A 2984   8.161   7.915   8.811  0.0830  0.0816  0.0075
  187loPI   C3A 2985   8.401   8.025   8.392 -0.0886 -0.0580 -0.0847
  187loPI   C4A 2986   8.787   8.104   8.193  0.0574  0.2224  0.2022
  187loPI   C5A 2987   9.144   8.021   8.273 -0.0255 -0.2854 -0.3398
  187loPI   C6A 2988   9.546   7.826   8.350  0.2404  0.0215  0.1108
  187loPI   C1B 2989   7.547   7.651   9.420 -0.1399  0.1153 -0.0050
  187loPI   C2B 2990   7.370   7.843   9.039  0.1162  0.0656 -0.1772
  187loPI   C3B 2991   7.241   8.259   8.751  0.0434  0.1124  0.1308
  187loPI   C4B 2992   7.517   8.558   8.577 -0.1244 -0.0193  0.2292
  188loPI    C1 2993  13.076   9.343  10.276 -0.0370  0.0665  0.1649
  188loPI    C2 2994  13.204   8.976  10.369  0.0887  0.1086  0.1599
  188loPI    C3 2995  13.155   9.249  10.657 -0.0786  0.0654  0.1734
  188loPI   PO4 2996  12.925   9.331  10.056  0.2483  0.0952  0.0288
  188loPI   GL1 2997  12.861   9.371   9.686 -0.0296  0.3409  0.2763
  188loPI   GL2 2998  12.784   9.028   9.714  0.0221 -0.7021 -0.3863
  188loPI   C1A 2999  12.783   9.410   9.302 -0.2726 -0.0854  0.1599
  188loPI   C2A 3000  12.781   9.344   8.957  0.0889  0.1933  0.0792
  188loPI   C3A 3001  12.695   9.449   8.612  0.2787 -0.1414  0.2963
  188loPI   C4A 3002  12.742   9.293   8.137 -0.0523 -0.2770 -0.3992
  188loPI   C5A 3003  12.830   9.134   7.710 -0.2031  0.1798 -0.4099
  188loPI   C6A 3004  12.610   8.972   7.378 -0.1753 -0.0720 -0.0541
  188loPI   C1B 3005  13.090   8.949   9.330 -0.1792  0.1059  0.0500
  188loPI   C2B 3006  13.187   8.875   8.939 -0.0637 -0.4402 -0.0098
  188loPI   C3B 3007  13.138   8.983   8.551  0.2020 -0.0184  0.0353
  188loPI   C4B 3008  13.227   9.136   8.112  0.1475  0.0754  0.5361
  189loPI    C1 3009  10.157   7.730  10.111 -0.0290 -0.1707 -0.0870
  189loPI    C2 3010  10.124   8.101   9.967  0.0907 -0.1922 -0.1718
  189loPI    C3 3011  10.156   8.041  10.361  0.3506 -0.0928 -0.1756
  189loPI   PO4 3012  10.000   7.575   9.874 -0.2140  0.1597  0.0419
  189loPI   GL1 3013   9.869   7.277   9.615 -0.1396  0.1542 -0.0855
  189loPI   GL2 3014   9.767   7.027   9.627 -0.1784 -0.3605  0.0103
  189loPI   C1A 3015   9.919   7.279   9.249  0.0124 -0.1890 -0.0494
  189loPI   C2A 3016   9.753   7.115   8.831 -0.1164  0.0851  0.0219
  189loPI   C3A 3017   9.673   6.842   8.515  0.2085 -0.1249 -0.2334
  189loPI   C4A 3018   9.420   6.882   8.142 -0.0671 -0.0506  0.1707
  189loPI   C5A 3019   9.441   7.064   7.733  0.2608 -0.1160  0.0321
  189loPI   C6A 3020   9.265   6.906   7.335  0.0157 -0.0119 -0.0081
  189loPI   C1B 3021   9.478   7.144   9.265 -0.0988 -0.2667 -0.1128
  189loPI   C2B 3022   9.211   7.243   9.053  0.1904  0.1205 -0.0029
  189loPI   C3B 3023   9.052   7.600   8.673 -0.2195 -0.2865  0.2507
  189loPI   C4B 3024   8.812   8.120   8.741 -0.1033  0.1203  0.2764
  190loPI    C1 3025  15.902  17.564  10.429 -0.1549 -0.0451  0.0725
  190loPI    C2 3026  16.225  17.485  10.650 -0.0062  0.3872  0.0199
  190loPI    C3 3027  15.860  17.449  10.810  0.0613 -0.0977  0.0817
  190loPI   PO4 3028  15.943  17.408  10.161 -0.1070 -0.0056 -0.1956
  190loPI   GL1 3029  16.084  17.311   9.805 -0.2549 -0.2598  0.1317
  190loPI   GL2 3030  16.425  17.404   9.718 -0.0739  0.1067 -0.2152
  190loPI   C1A 3031  15.883  17.302   9.413  0.0990 -0.1286 -0.2493
  190loPI   C2A 3032  15.993  17.233   8.984 -0.3342 -0.1399 -0.3461
  190loPI   C3A 3033  16.081  17.103   8.548 -0.1431 -0.2286  0.1971
  190loPI   C4A 3034  16.085  17.011   8.221 -0.3607  0.1066  0.0748
  190loPI   C5A 3035  16.180  17.327   7.921  0.1478  0.3870 -0.3026
  190loPI   C6A 3036  16.324  17.756   7.855 -0.0316 -0.0990  0.0486
  190loPI   C1B 3037  16.387  17.327   9.218 -0.1887  0.4972 -0.0869
  190loPI   C2B 3038  16.522  17.325   8.795  0.3722  0.1301 -0.1160
  190loPI   C3B 3039  16.597  17.066   8.380 -0.0635  0.4061  0.4268
  190loPI   C4B 3040  16.601  16.814   7.960  0.1808  0.1543 -0.1397
  191loPI    C1 3041  11.450  17.887   9.970  0.0324 -0.1575  0.0303
  191loPI    C2 3042  11.328  17.982  10.338  0.0108  0.2248 -0.0708
  191loPI    C3 3043  11.684  17.808  10.284 -0.0322  0.0681  0.1368
  191loPI   PO4 3044  11.275  17.761   9.876 -0.1834 -0.1312  0.0197
  191loPI   GL1 3045  11.174  17.382   9.635 -0.0414 -0.0662 -0.0533
  191loPI   GL2 3046  10.972  17.259   9.592  0.3794  0.0943 -0.1611
  191loPI   C1A 3047  11.423  17.159   9.289  0.2532  0.2366  0.0263
  191loPI   C2A 3048  11.648  17.013   9.030 -0.1481 -0.1206 -0.0118
  191loPI   C3A 3049  11.867  17.164   8.743  0.3739  0.0097  0.0610
  191loPI   C4A 3050  11.805  17.373   8.410 -0.0952 -0.1104  0.0888
  191loPI   C5A 3051  11.690  17.667   8.111 -0.1849  0.0803  0.0488
  191loPI   C6A 3052  11.828  17.929   7.798  0.0656  0.0924  0.1130
  191loPI   C1B 3053  10.900  17.200   9.268 -0.2477 -0.1574 -0.2412
  191loPI   C2B 3054  10.752  17.071   8.924  0.1171  0.0899  0.0377
  191loPI   C3B 3055  10.845  16.785   8.577 -0.1192 -0.0428  0.1037
  191loPI   C4B 3056  10.858  16.947   8.227  0.1518  0.0029 -0.2662
  192loPI    C1 3057  16.017  10.991  10.209  0.3529 -0.0044  0.2238
  192loPI    C2 3058  15.708  11.180  10.377  0.0562 -0.1102 -0.1849
  192loPI    C3 3059  16.007  11.042  10.605 -0.1809  0.0175  0.2140
  192loPI   PO4 3060  16.072  11.191   9.977  0.0810 -0.2484 -0.1947
  192loPI   GL1 3061  16.084  11.149   9.541 -0.0369 -0.1636 -0.0272
  192loPI   GL2 3062  16.448  11.136   9.532  0.2131 -0.0898 -0.2043
  192loPI   C1A 3063  15.855  11.148   9.050  0.1704  0.1043  0.1248
  192loPI   C2A 3064  15.895  11.077   8.595 -0.0400 -0.4997 -0.0764
  192loPI   C3A 3065  16.112  11.140   8.241 -0.2311  0.2550  0.1280
  192loPI   C4A 3066  16.137  11.345   7.862 -0.1802  0.3004  0.3408
  192loPI   C5A 3067  15.723  11.407   7.643 -0.1444  0.3422 -0.2061
  192loPI   C6A 3068  15.714  11.067   7.349 -0.0017  0.0154  0.3416
  192loPI   C1B 3069  16.569  10.990   9.139  0.2203  0.3229  0.0930
  192loPI   C2B 3070  16.795  10.989   8.823 -0.1650  0.0857 -0.2833
  192loPI   C3B 3071  17.053  11.115   8.455 -0.3299 -0.0062 -0.3862
  192loPI   C4B 3072  17.168  11.061   8.049  0.0985  0.0661 -0.1740
  193loPI    C1 3073   8.043  13.497  10.339 -0.2940  0.1490 -0.0588
  193loPI    C2 3074   7.861  13.230  10.575  0.1390 -0.1302 -0.0303
  193loPI    C3 3075   8.191  13.418  10.702  0.1387  0.0260 -0.2547
  193loPI   PO4 3076   8.048  13.312  10.133  0.0848 -0.2012  0.1700
  193loPI   GL1 3077   7.937  13.139   9.694 -0.1025 -0.3260 -0.2856
  193loPI   GL2 3078   8.276  13.214   9.711  0.0869 -0.0952 -0.0565
  193loPI   C1A 3079   7.818  12.930   9.202  0.0194  0.1386 -0.0910
  193loPI   C2A 3080   7.878  12.789   8.823  0.2173  0.0766  0.0869
  193loPI   C3A 3081   7.868  12.626   8.386 -0.1057  0.1004  0.2485
  193loPI   C4A 3082   8.080  12.442   8.140 -0.0883  0.0731  0.0833
  193loPI   C5A 3083   8.257  11.985   7.993 -0.2134  0.3921  0.2660
  193loPI   C6A 3084   8.054  11.651   7.694  0.0879  0.0461  0.0912
  193loPI   C1B 3085   8.288  12.813   9.459  0.0975 -0.4173  0.2073
  193loPI   C2B 3086   8.320  12.819   9.043 -0.0042 -0.1171 -0.3158
  193loPI   C3B 3087   8.373  12.592   8.539  0.2522  0.2899 -0.3344
  193loPI   C4B 3088   8.596  12.387   8.243  0.4667 -0.2273 -0.1462
  194loPI    C1 3089  14.722  10.376  10.479 -0.1289 -0.4905  0.0827
  194loPI    C2 3090  14.762  10.615  10.798  0.2511  0.0639 -0.3599
  194loPI    C3 3091  14.406  10.454  10.712  0.0729  0.1623  0.1595
  194loPI   PO4 3092  14.910  10.438  10.309  0.2377  0.1553  0.1987
  194loPI   GL1 3093  14.812  10.339   9.895  0.3497  0.0192 -0.2714
  194loPI   GL2 3094  14.653  10.537   9.697 -0.1395  0.2044  0.3025
  194loPI   C1A 3095  15.043  10.214   9.538 -0.5142  0.2669 -0.1009
  194loPI   C2A 3096  15.101  10.246   9.053 -0.0343 -0.1973  0.1725
  194loPI   C3A 3097  15.134  10.199   8.586 -0.0657 -0.2310 -0.0389
  194loPI   C4A 3098  15.493  10.145   8.236  0.1694 -0.0513 -0.2028
  194loPI   C5A 3099  15.974  10.158   8.168  0.1000  0.1849 -0.2322
  194loPI   C6A 3100  16.433   9.937   8.094 -0.0794  0.0875 -0.0284
  194loPI   C1B 3101  14.779  10.571   9.245  0.0135  0.2340  0.1416
  194loPI   C2B 3102  14.889  10.625   8.815 -0.0249 -0.0647  0.0746
  194loPI   C3B 3103  14.732  10.536   8.378 -0.3099  0.1525 -0.0268
  194loPI   C4B 3104  14.511  10.785   8.053  0.1898  0.0946  0.0214
  195loPI    C1 3105   3.265  17.249  10.050  0.2507 -0.0805  0.0307
  195loPI    C2 3106   3.007  17.135  10.333  0.2917 -0.3067 -0.0211
  195loPI    C3 3107   3.339  17.334  10.434  0.0549  0.0701  0.0369
  195loPI   PO4 3108   3.188  17.323   9.850  0.0580  0.2142 -0.3413
  195loPI   GL1 3109   3.145  17.303   9.345  0.3087  0.2504 -0.0113
  195loPI   GL2 3110   2.887  17.037   9.310  0.1332 -0.1698  0.1039
  195loPI   C1A 3111   3.233  17.347   8.899 -0.1194  0.3487  0.0501
  195loPI   C2A 3112   3.019  17.505   8.633  0.3200  0.1957 -0.0984
  195loPI   C3A 3113   2.950  17.491   8.209 -0.1529  0.0510 -0.0162
  195loPI   C4A 3114   2.712  17.464   7.899 -0.2539 -0.0022 -0.1570
  195loPI   C5A 3115   2.291  17.418   7.665 -0.0778  0.1356  0.0704
  195loPI   C6A 3116   2.070  17.391   7.311 -0.0025 -0.0436 -0.2511
  195loPI   C1B 3117   2.833  17.032   8.939 -0.1410 -0.1193  0.3739
  195loPI   C2B 3118   2.698  17.098   8.642  0.0055 -0.1854 -0.3367
  195loPI   C3B 3119   2.484  17.218   8.404 -0.0896 -0.1129 -0.1794
  195loPI   C4B 3120   2.140  17.413   8.173 -0.4019 -0.2182 -0.0813
  196loPI    C1 3121  15.066  15.019  10.326  0.0059  0.0493 -0.1232
  196loPI    C2 3122  15.251  14.684  10.444 -0.1268 -0.0242 -0.1216
  196loPI    C3 3123  14.856  14.723  10.494 -0.1013  0.1623 -0.0566
  196loPI   PO4 3124  15.151  15.045  10.080 -0.1321  0.1349  0.1920
  196loPI   GL1 3125  15.159  15.271   9.690 -0.1760 -0.3300  0.0158
  196loPI   GL2 3126  15.040  15.618   9.707  0.0000  0.1157  0.0869
  196loPI   C1A 3127  15.220  15.133   9.324  0.0555 -0.2291 -0.2258
  196loPI   C2A 3128  15.274  15.103   8.877  0.1490 -0.0279  0.0744
  196loPI   C3A 3129  15.121  15.098   8.531  0.0780 -0.6592  0.1282
  196loPI   C4A 3130  14.989  15.160   8.186  0.1435  0.2980  0.3681
  196loPI   C5A 3131  14.937  14.862   7.906 -0.0936 -0.0430  0.0827
  196loPI   C6A 3132  14.836  14.523   7.649 -0.0008  0.0488 -0.1565
  196loPI   C1B 3133  15.165  15.633   9.356  0.0082  0.0476 -0.0336
  196loPI   C2B 3134  15.179  15.647   8.812  0.4587 -0.1112 -0.1198
  196loPI   C3B 3135  14.833  15.496   8.541  0.0664  0.1539 -0.3913
  196loPI   C4B 3136  14.632  15.510   8.253  0.0528 -0.1551 -0.0087
  197loPI    C1 3137  14.585  14.310  10.382 -0.0672  0.2502  0.2511
  197loPI    C2 3138  14.425  14.441  10.039  0.0456 -0.1468  0.0400
  197loPI    C3 3139  14.190  14.288  10.324 -0.0081 -0.2022 -0.0339
  197loPI   PO4 3140  14.800  14.115  10.287 -0.1802 -0.0891 -0.1476
  197loPI   GL1 3141  14.906  14.031   9.847  0.4144 -0.1011 -0.0567
  197loPI   GL2 3142  15.160  14.176   9.787  0.0014  0.1362 -0.1070
  197loPI   C1A 3143  14.667  13.922   9.424 -0.0824 -0.0009  0.1853
  197loPI   C2A 3144  14.595  14.267   9.076 -0.1400 -0.1750  0.1975
  197loPI   C3A 3145  14.599  14.088   8.568 -0.0936  0.4209  0.3371
  197loPI   C4A 3146  14.618  13.898   8.190 -0.3889  0.1988  0.1878
  197loPI   C5A 3147  14.781  13.707   7.781 -0.1869 -0.1470  0.2056
  197loPI   C6A 3148  15.039  13.536   7.369  0.1564 -0.1085  0.2024
  197loPI   C1B 3149  15.057  14.354   9.327  0.0793  0.1331 -0.0667
  197loPI   C2B 3150  15.081  14.236   8.862  0.1895  0.1785  0.1871
  197loPI   C3B 3151  15.123  14.139   8.419  0.3342 -0.0880 -0.2991
  197loPI   C4B 3152  15.018  14.078   7.968  0.0725  0.1934 -0.0805
  198loPI    C1 3153  12.449  12.136   9.760 -0.3117 -0.0335  0.0354
  198loPI    C2 3154  12.629  12.483   9.843 -0.1606 -0.1188  0.0689
  198loPI    C3 3155  12.570  12.214  10.133 -0.1305 -0.1887  0.0107
  198loPI   PO4 3156  12.280  12.251   9.563 -0.0293 -0.0111 -0.0649
  198loPI   GL1 3157  12.539  12.361   9.214 -0.0625 -0.1029  0.4249
  198loPI   GL2 3158  12.562  12.659   9.338  0.2337 -0.3167  0.1393
  198loPI   C1A 3159  12.642  12.419   8.674 -0.0793 -0.0723  0.0251
  198loPI   C2A 3160  12.927  12.616   8.335 -0.0361 -0.3838 -0.2179
  198loPI   C3A 3161  13.036  12.540   7.907 -0.1503 -0.4067  0.1527
  198loPI   C4A 3162  13.164  12.563   7.496  0.2516 -0.0822 -0.0156
  198loPI   C5A 3163  13.489  12.461   7.222  0.1320 -0.0878  0.2805
  198loPI   C6A 3164  13.746  12.698   7.058  0.2285 -0.1121 -0.0182
  198loPI   C1B 3165  12.532  12.825   8.880  0.2660 -0.0100 -0.0448
  198loPI   C2B 3166  12.406  12.757   8.422 -0.0788  0.0097  0.0740
  198loPI   C3B 3167  12.465  12.481   8.146 -0.1019  0.0664 -0.0227
  198loPI   C4B 3168  12.632  12.276   7.850  0.0590 -0.2238 -0.0033
  199loPI    C1 3169  10.825  15.483  10.132  0.0508 -0.2950  0.1531
  199loPI    C2 3170  10.654  15.148  10.267 -0.0251 -0.1583  0.4012
  199loPI    C3 3171  10.799  15.417  10.525 -0.1311  0.0868  0.2095
  199loPI   PO4 3172  10.695  15.616   9.938  0.1253 -0.0353  0.1266
  199loPI   GL1 3173  10.401  15.608   9.442  0.0455 -0.0203 -0.0436
  199loPI   GL2 3174  10.479  15.176   9.430  0.2722 -0.2541 -0.0329
  199loPI   C1A 3175  10.305  15.643   9.019 -0.0175  0.1179  0.3545
  199loPI   C2A 3176  10.197  15.716   8.656 -0.0232 -0.1662 -0.2334
  199loPI   C3A 3177  10.069  15.801   8.202  0.2386  0.0262  0.1716
  199loPI   C4A 3178  10.342  15.689   7.942  0.1185 -0.1319 -0.2365
  199loPI   C5A 3179  10.508  15.732   7.551 -0.2336  0.0167 -0.0240
  199loPI   C6A 3180  10.832  15.858   7.346 -0.0352 -0.2306 -0.0038
  199loPI   C1B 3181  10.744  15.011   9.061  0.2454  0.0177  0.0849
  199loPI   C2B 3182  10.720  14.846   8.661  0.0321 -0.3454 -0.5164
  199loPI   C3B 3183  10.398  14.802   8.267  0.0919  0.1043  0.1381
  199loPI   C4B 3184  10.422  14.541   7.966 -0.1258  0.0178  0.3006
  200loPI    C1 3185   7.130  13.736  10.392 -0.0119 -0.1256 -0.0248
  200loPI    C2 3186   7.451  13.568  10.564  0.0947 -0.0647 -0.1626
  200loPI    C3 3187   7.187  13.341  10.366  0.0902 -0.1058 -0.1094
  200loPI   PO4 3188   7.185  13.885  10.186 -0.1079 -0.1930 -0.2041
  200loPI   GL1 3189   7.471  14.025   9.863 -0.2236 -0.1282  0.0155
  200loPI   GL2 3190   7.311  14.246   9.773  0.0549 -0.1339 -0.1635
  200loPI   C1A 3191   7.547  13.767   9.489 -0.1042 -0.1466 -0.4058
  200loPI   C2A 3192   7.384  13.924   9.021  0.2022 -0.2613  0.2956
  200loPI   C3A 3193   7.537  13.897   8.523  0.0700  0.1759 -0.2840
  200loPI   C4A 3194   7.743  13.984   8.138 -0.2492  0.0118  0.1792
  200loPI   C5A 3195   7.769  13.684   7.846  0.0081  0.0521 -0.0508
  200loPI   C6A 3196   7.744  13.654   7.481  0.0054  0.2687  0.3666
  200loPI   C1B 3197   7.110  13.977   9.416  0.1945  0.0340 -0.0360
  200loPI   C2B 3198   6.882  14.034   9.015  0.1627  0.0450 -0.0670
  200loPI   C3B 3199   7.037  13.963   8.566  0.1902  0.0236  0.1696
  200loPI   C4B 3200   6.876  13.998   8.179  0.3479 -0.0557  0.2827
  201loPI    C1 3201   6.806   0.358  10.285  0.0063  0.0571  0.1006
  201loPI    C2 3202   6.924   0.571  10.602  0.2739 -0.0486  0.0739
  201loPI    C3 3203   6.979   0.174  10.595 -0.0669 -0.0980  0.0506
  201loPI   PO4 3204   6.847   0.549  10.090 -0.0550  0.0457  0.0912
  201loPI   GL1 3205   6.937   0.578   9.664  0.3088 -0.3682  0.1325
  201loPI   GL2 3206   6.791   0.745   9.469  0.0772  0.4190  0.1852
  201loPI   C1A 3207   6.979   0.349   9.207 -0.0839 -0.0022 -0.0697
  201loPI   C2A 3208   6.621   0.292   8.924  0.1577 -0.1642 -0.0515
  201loPI   C3A 3209   6.137   0.429   8.768  0.0592 -0.0127  0.0370
  201loPI   C4A 3210   5.832   0.308   8.497 -0.0553 -0.0497 -0.1957
  201loPI   C5A 3211   5.750   0.228   8.124 -0.0594 -0.1364 -0.0826
  201loPI   C6A 3212   5.861   0.484   7.898  0.2986  0.0755 -0.2769
  201loPI   C1B 3213   6.756   0.882   9.045  0.0050 -0.2044 -0.1974
  201loPI   C2B 3214   6.808   1.185   8.755 -0.0105  0.0764 -0.0375
  201loPI   C3B 3215   7.046   1.464   8.532 -0.1052 -0.0363  0.3717
  201loPI   C4B 3216   7.397   1.299   8.212 -0.0845  0.0599 -0.0560
  202loPI    C1 3217   1.880  14.787   9.873 -0.0045  0.0227  0.1217
  202loPI    C2 3218   1.545  15.005   9.876 -0.0026  0.0252  0.1603
  202loPI    C3 3219   1.574  14.681  10.109 -0.1489 -0.2336 -0.1736
  202loPI   PO4 3220   2.022  14.891   9.638  0.3059 -0.3524  0.1071
  202loPI   GL1 3221   2.104  15.022   9.276 -0.3422  0.0730 -0.1873
  202loPI   GL2 3222   1.972  14.633   9.195  0.0789  0.0693 -0.0292
  202loPI   C1A 3223   1.878  15.076   9.041 -0.0303  0.2804 -0.1613
  202loPI   C2A 3224   1.619  14.928   8.721 -0.3539 -0.2089  0.0569
  202loPI   C3A 3225   1.492  15.010   8.337 -0.1281 -0.2092  0.1160
  202loPI   C4A 3226   1.147  15.062   8.134 -0.1235 -0.2154  0.0341
  202loPI   C5A 3227   0.887  15.091   7.759 -0.3644  0.2194 -0.0981
  202loPI   C6A 3228   0.825  15.368   7.381  0.1972  0.0099 -0.1591
  202loPI   C1B 3229   2.105  14.738   8.760  0.2767 -0.0142  0.0479
  202loPI   C2B 3230   2.045  15.078   8.368 -0.1095  0.0553 -0.0316
  202loPI   C3B 3231   1.878  15.047   8.035 -0.0290  0.0655 -0.0770
  202loPI   C4B 3232   1.539  14.918   7.704  0.1065  0.1463  0.1543
  203loPI    C1 3233   2.084   9.540  10.012  0.1513  0.2679 -0.1393
  203loPI    C2 3234   2.201   9.761  10.325  0.1028  0.1311 -0.0237
  203loPI    C3 3235   2.274   9.367  10.319 -0.0248  0.1081 -0.1184
  203loPI   PO4 3236   2.212   9.664   9.774  0.0771 -0.4916  0.5670
  203loPI   GL1 3237   2.094   9.601   9.345  0.0449  0.0842  0.2270
  203loPI   GL2 3238   1.860   9.911   9.263  0.1827 -0.2644 -0.2431
  203loPI   C1A 3239   2.206   9.356   9.142  0.0534  0.6345 -0.2111
  203loPI   C2A 3240   2.490   9.006   8.916  0.0673  0.0559  0.0089
  203loPI   C3A 3241   2.566   8.914   8.520  0.1684  0.0436 -0.4233
  203loPI   C4A 3242   2.439   8.850   8.132 -0.0849  0.1550 -0.1616
  203loPI   C5A 3243   2.314   9.034   7.716  0.0690 -0.2242  0.1198
  203loPI   C6A 3244   2.411   8.769   7.327  0.1275  0.1217 -0.1385
  203loPI   C1B 3245   1.832  10.054   8.920 -0.1087  0.1756 -0.2541
  203loPI   C2B 3246   2.113  10.007   8.501  0.1867  0.0478 -0.5239
  203loPI   C3B 3247   2.448   9.844   8.113 -0.2750  0.1614  0.0149
  203loPI   C4B 3248   2.496   9.536   7.811 -0.0274  0.1501  0.3403
  204loPI    C1 3249  12.556  11.458   9.897  0.0891 -0.0798  0.1549
  204loPI    C2 3250  12.827  11.343  10.168 -0.0003 -0.0873  0.2418
  204loPI    C3 3251  12.675  11.076   9.911  0.2859 -0.0258  0.0026
  204loPI   PO4 3252  12.680  11.696   9.795 -0.2340 -0.1195  0.2037
  204loPI   GL1 3253  12.799  11.949   9.424  0.0336 -0.4011 -0.1221
  204loPI   GL2 3254  12.603  11.716   9.296 -0.0496 -0.1928  0.2565
  204loPI   C1A 3255  12.878  12.045   8.961  0.1035 -0.0468  0.0391
  204loPI   C2A 3256  12.908  12.076   8.384  0.2767  0.0729  0.0806
  204loPI   C3A 3257  13.173  12.015   7.954 -0.0056 -0.3887  0.0184
  204loPI   C4A 3258  13.108  12.034   7.616 -0.0605  0.2053  0.0828
  204loPI   C5A 3259  13.026  12.231   7.201  0.0942 -0.1960 -0.0571
  204loPI   C6A 3260  12.771  12.548   7.060  0.1218 -0.0401  0.2309
  204loPI   C1B 3261  12.449  11.772   8.950  0.2961 -0.3038 -0.1052
  204loPI   C2B 3262  12.431  12.020   8.476 -0.1693  0.1127  0.3652
  204loPI   C3B 3263  12.286  11.988   8.115  0.0133  0.2331  0.1334
  204loPI   C4B 3264  12.191  12.029   7.788  0.0342  0.1179  0.0744
  205loPI    C1 3265   2.523   8.232  10.369  0.0087 -0.0631  0.0290
  205loPI    C2 3266   2.734   8.198  10.707  0.0502  0.1142  0.0219
  205loPI    C3 3267   2.353   8.317  10.721  0.0043 -0.0307  0.0191
  205loPI   PO4 3268   2.729   8.357  10.196  0.3533 -0.0051 -0.1454
  205loPI   GL1 3269   2.857   8.234   9.832  0.0352  0.2829 -0.2049
  205loPI   GL2 3270   2.506   8.153   9.807 -0.1988  0.1924 -0.2088
  205loPI   C1A 3271   2.756   7.806   9.583  0.0580 -0.0761  0.1190
  205loPI   C2A 3272   2.685   7.689   9.116  0.2613  0.1507  0.3517
  205loPI   C3A 3273   2.613   7.728   8.714 -0.3561  0.0711 -0.4117
  205loPI   C4A 3274   2.482   7.910   8.343  0.4467 -0.1642 -0.4042
  205loPI   C5A 3275   2.494   8.110   7.940 -0.0916 -0.2759 -0.1173
  205loPI   C6A 3276   2.623   8.529   7.769  0.0014  0.1619  0.1727
  205loPI   C1B 3277   2.650   8.254   9.401  0.1439 -0.0631 -0.2486
  205loPI   C2B 3278   2.514   8.141   9.038 -0.0619  0.1715  0.0370
  205loPI   C3B 3279   2.206   7.989   8.827  0.0276 -0.1476 -0.1908
  205loPI   C4B 3280   2.042   8.004   8.498  0.0101 -0.1891 -0.2705
  206loPI    C1 3281  11.547  14.742  10.165 -0.1065 -0.0582  0.0054
  206loPI    C2 3282  11.860  14.711  10.412 -0.0681 -0.1606 -0.0555
  206loPI    C3 3283  11.554  14.951  10.506  0.0491 -0.0249 -0.0174
  206loPI   PO4 3284  11.512  14.487  10.065  0.1488 -0.0156  0.0771
  206loPI   GL1 3285  11.621  14.376   9.685 -0.0657  0.0671 -0.2684
  206loPI   GL2 3286  11.505  14.592   9.541  0.2141  0.5224  0.0728
  206loPI   C1A 3287  11.609  14.130   9.280  0.1027  0.1751 -0.0159
  206loPI   C2A 3288  11.686  14.063   8.869  0.0067 -0.1203  0.3742
  206loPI   C3A 3289  11.752  13.951   8.439 -0.3685 -0.0151  0.1663
  206loPI   C4A 3290  11.717  13.830   8.034 -0.2167  0.2376 -0.1296
  206loPI   C5A 3291  11.735  13.670   7.512 -0.3610  0.1781  0.1478
  206loPI   C6A 3292  11.654  13.688   7.058 -0.2623  0.2087  0.2447
  206loPI   C1B 3293  11.459  14.639   9.119  0.2492 -0.0606 -0.0779
  206loPI   C2B 3294  11.153  14.703   8.820 -0.2673 -0.0628 -0.1503
  206loPI   C3B 3295  11.237  14.698   8.421  0.3322 -0.3203 -0.1313
  206loPI   C4B 3296  11.384  14.593   7.996  0.1597  0.1486 -0.0387
  207loPI    C1 3297  11.429   4.833  10.398  0.1479  0.0286 -0.0582
  207loPI    C2 3298  11.528   5.201  10.519 -0.0234  0.0809 -0.0744
  207loPI    C3 3299  11.303   4.967  10.753  0.3384 -0.1296  0.0708
  207loPI   PO4 3300  11.381   4.821  10.103  0.0872 -0.0531 -0.0923
  207loPI   GL1 3301  11.166   4.588   9.864  0.1656  0.0581 -0.0172
  207loPI   GL2 3302  11.027   4.846   9.744  0.0260 -0.2209  0.1627
  207loPI   C1A 3303  11.181   4.442   9.489 -0.0893 -0.0150  0.0441
  207loPI   C2A 3304  11.301   4.283   9.093  0.1491 -0.0906 -0.1570
  207loPI   C3A 3305  11.314   4.359   8.745  0.0173 -0.1691  0.1929
  207loPI   C4A 3306  11.181   4.443   8.332  0.0304  0.1088 -0.1246
  207loPI   C5A 3307  11.415   4.508   7.945 -0.3681  0.0595  0.0460
  207loPI   C6A 3308  11.775   4.833   7.766  0.0721  0.1181 -0.0433
  207loPI   C1B 3309  11.232   4.913   9.385  0.2306 -0.1168 -0.3053
  207loPI   C2B 3310  11.091   4.851   8.965  0.1223 -0.0158  0.1632
  207loPI   C3B 3311  10.973   4.836   8.534  0.2723  0.2455  0.0878
  207loPI   C4B 3312  10.736   4.726   8.145  0.2546 -0.1712 -0.0964
  208loPI    C1 3313   4.654   0.130  10.669 -0.1982 -0.0264  0.0478
  208loPI    C2 3314   4.576  -0.255  10.595  0.2632 -0.1103 -0.0339
  208loPI    C3 3315   4.886  -0.156  10.826  0.1079  0.2135  0.0408
  208loPI   PO4 3316   4.531   0.313  10.482 -0.1908 -0.1670  0.1314
  208loPI   GL1 3317   4.362   0.479  10.054 -0.1465 -0.0479  0.0077
  208loPI   GL2 3318   4.654   0.612  10.070  0.1174  0.1159 -0.1119
  208loPI   C1A 3319   4.035   0.605   9.809  0.0100  0.4794  0.0767
  208loPI   C2A 3320   4.092   0.776   9.356  0.1084  0.0572 -0.3576
  208loPI   C3A 3321   4.039   0.879   8.961  0.1258  0.3015  0.0052
  208loPI   C4A 3322   4.090   0.788   8.551 -0.1031 -0.0025 -0.1428
  208loPI   C5A 3323   3.920   0.731   8.197  0.3073 -0.2458  0.1300
  208loPI   C6A 3324   3.614   0.716   8.010  0.0780  0.1470  0.0806
  208loPI   C1B 3325   4.661   0.845   9.757  0.1876  0.1453 -0.0017
  208loPI   C2B 3326   5.021   1.005   9.728  0.1902 -0.2748  0.0598
  208loPI   C3B 3327   5.386   0.961   9.586  0.1612 -0.0138 -0.2869
  208loPI   C4B 3328   5.898   0.759   9.606 -0.0453  0.0006 -0.0102
  209loPI    C1 3329  12.622  16.984  10.515  0.0212  0.0161 -0.1598
  209loPI    C2 3330  12.761  16.609  10.519  0.0505  0.0283  0.0685
  209loPI    C3 3331  12.985  16.908  10.664 -0.0577  0.1038  0.0808
  209loPI   PO4 3332  12.344  16.943  10.299  0.1639  0.1368  0.2791
  209loPI   GL1 3333  12.368  17.137   9.902 -0.2404 -0.1162  0.2772
  209loPI   GL2 3334  12.420  16.903   9.654 -0.1836 -0.4637  0.1802
  209loPI   C1A 3335  12.227  17.339   9.515 -0.1684  0.1519  0.1451
  209loPI   C2A 3336  12.091  17.419   9.188  0.0128 -0.0644  0.3288
  209loPI   C3A 3337  12.203  17.551   8.706 -0.0697  0.1071 -0.1355
  209loPI   C4A 3338  12.278  17.863   8.374  0.1280  0.0682  0.1227
  209loPI   C5A 3339  12.344  17.839   8.005 -0.0498 -0.0562 -0.2194
  209loPI   C6A 3340  12.393  17.730   7.529  0.0898  0.0451  0.1172
  209loPI   C1B 3341  12.615  16.983   9.251 -0.0545 -0.1836 -0.1804
  209loPI   C2B 3342  12.849  16.975   8.693 -0.0779  0.0873  0.2952
  209loPI   C3B 3343  13.050  16.717   8.394  0.1802 -0.1908  0.0282
  209loPI   C4B 3344  13.300  16.338   8.274 -0.2894  0.2947 -0.2939
  210loPI    C1 3345   4.017  15.749   9.803  0.0366  0.0838 -0.1555
  210loPI    C2 3346   3.823  16.027  10.016  0.1034  0.0599 -0.0626
  210loPI    C3 3347   3.923  15.679  10.185 -0.1282 -0.0891 -0.2267
  210loPI   PO4 3348   3.921  15.762   9.618  0.0080 -0.1315  0.0069
  210loPI   GL1 3349   4.242  15.923   9.296  0.0436  0.2301 -0.4444
  210loPI   GL2 3350   4.079  15.662   9.135 -0.2665 -0.0020 -0.0389
  210loPI   C1A 3351   4.356  16.003   8.871  0.0966  0.3091  0.0882
  210loPI   C2A 3352   4.308  16.114   8.513  0.0111 -0.3017  0.0128
  210loPI   C3A 3353   4.192  16.185   8.143 -0.0993 -0.2652  0.0556
  210loPI   C4A 3354   4.153  16.459   7.797  0.1099 -0.0295  0.3099
  210loPI   C5A 3355   3.924  16.641   7.410 -0.0154 -0.0816  0.0625
  210loPI   C6A 3356   3.803  16.428   7.037  0.4278  0.2522  0.1087
  210loPI   C1B 3357   4.040  15.649   8.642 -0.0603  0.2996  0.1210
  210loPI   C2B 3358   3.764  15.458   8.326  0.0856 -0.0086 -0.0698
  210loPI   C3B 3359   3.887  15.612   7.793 -0.2030 -0.1597 -0.1682
  210loPI   C4B 3360   3.799  15.561   7.380 -0.1260  0.1088 -0.2826
  211loPI    C1 3361   5.633  13.946   9.891 -0.2090  0.0862 -0.0054
  211loPI    C2 3362   5.527  14.186  10.193  0.0807  0.3142 -0.0807
  211loPI    C3 3363   5.764  13.871  10.261 -0.2547  0.0765  0.0089
  211loPI   PO4 3364   5.784  13.938   9.633 -0.1271 -0.1037  0.0053
  211loPI   GL1 3365   5.591  13.826   9.193 -0.0104 -0.2077  0.2386
  211loPI   GL2 3366   5.446  14.026   9.078  0.0368 -0.0825  0.3546
  211loPI   C1A 3367   5.944  14.003   8.918 -0.2525  0.1863 -0.2733
  211loPI   C2A 3368   5.977  14.126   8.491  0.2921 -0.1013 -0.0073
  211loPI   C3A 3369   5.822  14.188   8.119  0.0805 -0.3877 -0.1126
  211loPI   C4A 3370   5.478  14.093   7.821 -0.2473 -0.1769 -0.0370
  211loPI   C5A 3371   5.219  14.437   7.652 -0.4678  0.1456 -0.0499
  211loPI   C6A 3372   5.033  14.831   7.614  0.1704  0.2940 -0.3498
  211loPI   C1B 3373   5.524  14.018   8.649 -0.1327 -0.2748 -0.0790
  211loPI   C2B 3374   5.348  14.007   8.377  0.2298  0.0106 -0.0678
  211loPI   C3B 3375   5.029  13.991   8.056 -0.2600  0.3023  0.0242
  211loPI   C4B 3376   4.599  13.794   7.983  0.0436  0.0304  0.1882
  212loPI    C1 3377  16.563  10.926  10.014 -0.2066 -0.0847 -0.0248
  212loPI    C2 3378  16.544  11.148  10.346 -0.1319 -0.1025 -0.0084
  212loPI    C3 3379  16.663  10.766  10.366  0.4201  0.0541 -0.1266
  212loPI   PO4 3380  16.905  11.115   9.830 -0.0587  0.0886  0.2636
  212loPI   GL1 3381  17.186  11.138   9.365  0.1869 -0.0609 -0.0463
  212loPI   GL2 3382  16.871  11.387   9.361 -0.2299 -0.0056 -0.3779
  212loPI   C1A 3383  17.346  11.144   9.010 -0.0327  0.0539  0.1951
  212loPI   C2A 3384  17.476  11.382   8.645  0.4592 -0.1277  0.2164
  212loPI   C3A 3385  17.536  11.755   8.397 -0.0985  0.0448  0.2131
  212loPI   C4A 3386  17.657  12.169   8.147 -0.0668  0.1025 -0.3053
  212loPI   C5A 3387  17.338  12.213   7.731  0.1208 -0.2109 -0.1028
  212loPI   C6A 3388  17.021  12.391   7.577 -0.1797 -0.0865  0.0612
  212loPI   C1B 3389  16.922  11.454   8.985  0.2251 -0.1503  0.0257
  212loPI   C2B 3390  17.018  11.623   8.536  0.3743  0.5082  0.2431
  212loPI   C3B 3391  17.147  11.765   8.067 -0.4339  0.3313 -0.5694
  212loPI   C4B 3392  16.963  11.887   7.673 -0.0824  0.1523  0.0853
  213loPI    C1 3393  12.284   2.790  10.557  0.1518 -0.2030 -0.0164
  213loPI    C2 3394  12.611   2.756  10.330  0.1321 -0.0852 -0.0630
  213loPI    C3 3395  12.628   2.954  10.678  0.1688 -0.2894  0.0528
  213loPI   PO4 3396  12.089   2.681  10.303  0.1300 -0.1833  0.0040
  213loPI   GL1 3397  12.289   2.372   9.983  0.0276 -0.0185  0.2919
  213loPI   GL2 3398  12.124   2.077   9.851 -0.2274  0.0427  0.1861
  213loPI   C1A 3399  12.482   2.414   9.565  0.1605  0.0694 -0.2345
  213loPI   C2A 3400  12.505   2.455   9.165 -0.3507  0.2083  0.1046
  213loPI   C3A 3401  12.621   2.411   8.770  0.3097 -0.2994  0.0235
  213loPI   C4A 3402  12.463   2.542   8.304  0.0801  0.2256  0.0826
  213loPI   C5A 3403  12.708   2.763   8.028 -0.1008  0.0014 -0.0602
  213loPI   C6A 3404  13.004   2.664   7.724  0.1005  0.0931  0.1964
  213loPI   C1B 3405  11.935   2.346   9.514  0.0004  0.2295  0.1584
  213loPI   C2B 3406  11.744   2.385   9.150 -0.0446 -0.0352  0.1723
  213loPI   C3B 3407  11.636   2.485   8.654 -0.1200 -0.0254  0.0292
  213loPI   C4B 3408  11.659   2.673   8.298 -0.1348 -0.3681  0.0685
  214loPI    C1 3409  11.822  18.282  10.198  0.2153 -0.1856 -0.1334
  214loPI    C2 3410  11.777  18.679  10.203 -0.0009 -0.2103  0.0903
  214loPI    C3 3411  12.062  18.507  10.425  0.0238 -0.1884  0.0756
  214loPI   PO4 3412  11.898  18.200   9.992 -0.0049  0.0768 -0.0421
  214loPI   GL1 3413  11.731  17.972   9.595  0.0211 -0.0784 -0.1118
  214loPI   GL2 3414  12.127  17.884   9.676  0.3058  0.0927  0.1415
  214loPI   C1A 3415  11.479  18.116   9.302  0.0157  0.2152 -0.0013
  214loPI   C2A 3416  11.286  18.565   9.236 -0.0180  0.1273 -0.2809
  214loPI   C3A 3417  11.106  18.993   9.222  0.2728  0.0447 -0.2140
  214loPI   C4A 3418  10.780  19.127   9.005 -0.1163  0.1884  0.0475
  214loPI   C5A 3419  10.755  19.063   8.581  0.2711  0.0512 -0.3218
  214loPI   C6A 3420  10.810  18.696   8.176 -0.4245 -0.0315  0.2250
  214loPI   C1B 3421  12.070  18.025   9.324 -0.1464  0.2501  0.2577
  214loPI   C2B 3422  11.969  17.892   8.904 -0.0289 -0.1380 -0.0632
  214loPI   C3B 3423  11.822  17.923   8.571 -0.2372  0.0023  0.1990
  214loPI   C4B 3424  11.609  18.171   8.322 -0.0602  0.4150  0.0699
  215loPI    C1 3425   9.134   9.584  10.318  0.0893  0.0724  0.0700
  215loPI    C2 3426   9.087   9.897  10.563  0.0460  0.0850  0.0456
  215loPI    C3 3427   8.968   9.533  10.678 -0.0178  0.0992  0.0246
  215loPI   PO4 3428   9.222   9.637  10.143  0.3577 -0.1416  0.1540
  215loPI   GL1 3429   9.044   9.496   9.800  0.1965 -0.1518 -0.0133
  215loPI   GL2 3430   9.253   9.824   9.658 -0.5101 -0.3072 -0.0802
  215loPI   C1A 3431   8.868   9.558   9.352 -0.0847 -0.0770 -0.2578
  215loPI   C2A 3432   8.921   9.530   8.965 -0.0384  0.1200 -0.1136
  215loPI   C3A 3433   9.159   9.632   8.651  0.1338  0.0373 -0.0918
  215loPI   C4A 3434   9.244   9.597   8.177 -0.5098 -0.1599  0.0868
  215loPI   C5A 3435   9.522   9.299   7.862  0.2749  0.0735 -0.3787
  215loPI   C6A 3436   9.675   8.964   7.863 -0.2877  0.0038 -0.2265
  215loPI   C1B 3437   9.411   9.842   9.250 -0.0579  0.0417  0.1775
  215loPI   C2B 3438   9.513  10.093   8.955  0.4037  0.1252 -0.2487
  215loPI   C3B 3439   9.491  10.212   8.514  0.0933  0.2929  0.1743
  215loPI   C4B 3440   9.443  10.071   8.149 -0.3253 -0.1262  0.4118
  216loPI    C1 3441  13.232   6.907  10.278 -0.3105  0.0503 -0.0911
  216loPI    C2 3442  12.955   7.088  10.503 -0.2088  0.1789 -0.0682
  216loPI    C3 3443  13.295   6.958  10.670 -0.1873  0.1621 -0.1249
  216loPI   PO4 3444  13.232   7.046  10.022  0.1994  0.0642 -0.2516
  216loPI   GL1 3445  13.174   7.254   9.658  0.4413  0.2530  0.0681
  216loPI   GL2 3446  13.404   7.195   9.524  0.0470 -0.0963  0.0059
  216loPI   C1A 3447  13.106   7.491   9.252  0.1046 -0.0159  0.4744
  216loPI   C2A 3448  13.158   7.489   8.830  0.2481  0.2490  0.2533
  216loPI   C3A 3449  13.252   7.563   8.288  0.0608  0.1137 -0.0509
  216loPI   C4A 3450  13.139   7.678   7.888  0.3598 -0.2070  0.1868
  216loPI   C5A 3451  13.080   7.937   7.526 -0.0960  0.1174 -0.1844
  216loPI   C6A 3452  12.907   8.264   7.494  0.0532  0.2911 -0.4338
  216loPI   C1B 3453  13.449   7.143   9.071  0.1656  0.0639 -0.0222
  216loPI   C2B 3454  13.459   7.080   8.706 -0.0848  0.0554  0.1160
  216loPI   C3B 3455  13.366   7.041   8.187 -0.3593 -0.1787 -0.1098
  216loPI   C4B 3456  13.620   6.921   7.826 -0.3403  0.1699 -0.1784
  217loPI    C1 3457  11.329   3.681  10.344  0.2258  0.0925  0.1529
  217loPI    C2 3458  11.279   4.024  10.543  0.1573  0.1370  0.0601
  217loPI    C3 3459  11.165   3.678  10.709 -0.1389  0.2007 -0.0056
  217loPI   PO4 3460  11.263   3.689  10.135 -0.1215  0.0838  0.1244
  217loPI   GL1 3461  11.284   3.644   9.763  0.0352 -0.2587  0.2956
  217loPI   GL2 3462  11.623   3.570   9.792 -0.0914 -0.1953 -0.1495
  217loPI   C1A 3463  11.335   3.334   9.353 -0.0526  0.2966 -0.0224
  217loPI   C2A 3464  11.211   3.091   9.007 -0.0767 -0.1169 -0.2910
  217loPI   C3A 3465  10.975   2.979   8.648  0.1086 -0.0125 -0.2018
  217loPI   C4A 3466  10.798   3.256   8.297  0.3790 -0.4296  0.1638
  217loPI   C5A 3467  10.435   3.590   8.118 -0.0657 -0.2510  0.3164
  217loPI   C6A 3468  10.239   3.972   8.212  0.0916  0.0130 -0.4179
  217loPI   C1B 3469  11.935   3.382   9.694 -0.1725  0.1045 -0.0159
  217loPI   C2B 3470  12.104   3.225   9.276 -0.1283 -0.0606 -0.0213
  217loPI   C3B 3471  12.071   3.143   8.874  0.0529 -0.2311 -0.1230
  217loPI   C4B 3472  11.947   2.860   8.613 -0.3234 -0.3491 -0.4890
  218loPI    C1 3473   2.882  13.027   9.964 -0.1083  0.0082 -0.3333
  218loPI    C2 3474   3.057  12.668   9.963 -0.1110  0.0022  0.0315
  218loPI    C3 3475   2.942  12.833  10.309 -0.1394  0.3411 -0.1359
  218loPI   PO4 3476   2.909  13.101   9.711  0.1207 -0.0136 -0.1366
  218loPI   GL1 3477   2.720  13.021   9.411 -0.0551 -0.2401  0.0555
  218loPI   GL2 3478   2.551  12.834   9.306 -0.2108 -0.0046  0.0941
  218loPI   C1A 3479   2.650  13.242   9.053 -0.0005  0.1322 -0.0534
  218loPI   C2A 3480   2.695  13.342   8.613 -0.0311  0.0668  0.2224
  218loPI   C3A 3481   2.765  13.423   8.186 -0.0863 -0.0932 -0.0907
  218loPI   C4A 3482   2.736  13.463   7.660 -0.1465 -0.1880 -0.2698
  218loPI   C5A 3483   2.873  13.766   7.229 -0.2094 -0.1294  0.1089
  218loPI   C6A 3484   2.885  13.994   6.937 -0.1245  0.3859  0.3111
  218loPI   C1B 3485   2.458  12.891   8.810  0.1889  0.0452  0.2782
  218loPI   C2B 3486   2.507  13.024   8.288  0.0046  0.1238  0.1610
  218loPI   C3B 3487   2.333  13.218   7.953  0.0644 -0.2552  0.1272
  218loPI   C4B 3488   2.098  13.070   7.546  0.1580 -0.0401  0.0427
  219loPI    C1 3489  14.276  18.741  10.483 -0.0784 -0.1000  0.0682
  219loPI    C2 3490  14.082  19.053  10.641 -0.0097 -0.0240  0.0038
  219loPI    C3 3491  14.479  19.023  10.682 -0.0032 -0.0501 -0.0772
  219loPI   PO4 3492  14.221  18.733  10.261  0.1733  0.2454 -0.1288
  219loPI   GL1 3493  14.078  18.645   9.935 -0.0549 -0.0184  0.0617
  219loPI   GL2 3494  14.418  18.454   9.919  0.2252 -0.3199  0.1028
  219loPI   C1A 3495  14.129  18.815   9.526  0.0662  0.4770  0.1979
  219loPI   C2A 3496  14.144  18.747   9.066  0.2016  0.2454 -0.3029
  219loPI   C3A 3497  14.012  18.576   8.697 -0.3922  0.1369  0.0323
  219loPI   C4A 3498  14.023  18.440   8.245 -0.0027  0.0143 -0.1028
  219loPI   C5A 3499  14.225  18.123   7.972 -0.0191  0.0282  0.4580
  219loPI   C6A 3500  14.503  18.218   7.528 -0.3198  0.1032 -0.0940
  219loPI   C1B 3501  14.416  18.406   9.551  0.0337  0.1525 -0.2198
  219loPI   C2B 3502  14.516  18.456   9.168 -0.0982  0.0446  0.2309
  219loPI   C3B 3503  14.451  18.442   8.714 -0.0882  0.1529  0.1268
  219loPI   C4B 3504  14.619  18.355   8.269  0.5483 -0.0111 -0.1335
  220loPI    C1 3505   8.405   4.567  10.503  0.1452  0.0967 -0.2406
  220loPI    C2 3506   8.598   4.683  10.834  0.1070 -0.0455 -0.1676
  220loPI    C3 3507   8.206   4.604  10.848  0.0906  0.0166 -0.2633
  220loPI   PO4 3508   8.572   4.315  10.448  0.0963  0.2339  0.0411
  220loPI   GL1 3509   8.498   4.258  10.076 -0.3365  0.0370 -0.1788
  220loPI   GL2 3510   8.567   3.927  10.074  0.0786  0.1800 -0.2962
  220loPI   C1A 3511   8.372   4.286   9.691  0.1487 -0.0371  0.1881
  220loPI   C2A 3512   8.215   4.018   9.454  0.0571 -0.0718  0.1742
  220loPI   C3A 3513   8.296   3.975   9.054 -0.0788  0.1477  0.1524
  220loPI   C4A 3514   8.221   3.981   8.641  0.0458  0.1305  0.1696
  220loPI   C5A 3515   8.486   3.693   8.262 -0.0339  0.0025  0.0715
  220loPI   C6A 3516   8.232   3.411   7.985 -0.1312 -0.3914  0.0047
  220loPI   C1B 3517   8.303   3.765   9.887  0.2119  0.2637  0.0924
  220loPI   C2B 3518   8.256   3.467   9.541  0.0397 -0.2207  0.1068
  220loPI   C3B 3519   8.263   3.481   9.120 -0.3455 -0.0599 -0.1465
  220loPI   C4B 3520   8.210   3.455   8.741 -0.4995  0.5225  0.1094
  221loPI    C1 3521   0.725   5.791   9.858 -0.0946  0.0370 -0.1259
  221loPI    C2 3522   0.662   5.776  10.253 -0.1668 -0.1958 -0.1448
  221loPI    C3 3523   0.694   6.130  10.069  0.0404 -0.0862  0.0957
  221loPI   PO4 3524   0.505   5.612   9.753 -0.1120 -0.0929 -0.0658
  221loPI   GL1 3525   0.300   5.327   9.626 -0.0924  0.1636  0.1953
  221loPI   GL2 3526   0.362   5.149   9.401 -0.2189  0.1076  0.0049
  221loPI   C1A 3527  -0.181   5.271   9.390  0.0554 -0.0898 -0.0900
  221loPI   C2A 3528  -0.244   5.191   8.928 -0.3217 -0.1060 -0.1630
  221loPI   C3A 3529  -0.355   5.262   8.481  0.2404  0.2549  0.0965
  221loPI   C4A 3530  -0.314   5.144   8.116  0.2052  0.1877 -0.0066
  221loPI   C5A 3531  -0.570   5.035   7.727  0.0298 -0.0046 -0.2545
  221loPI   C6A 3532  -0.400   4.944   7.320  0.3287 -0.1487  0.0021
  221loPI   C1B 3533   0.248   5.186   8.928 -0.3520  0.0619 -0.1655
  221loPI   C2B 3534   0.157   5.207   8.536 -0.0184  0.0073  0.1700
  221loPI   C3B 3535   0.120   5.480   8.110 -0.1906  0.0044  0.0683
  221loPI   C4B 3536   0.285   5.491   7.670  0.1322  0.0753 -0.0422
  222loPI    C1 3537   6.919  15.927  10.078  0.0787 -0.0056  0.0123
  222loPI    C2 3538   7.085  16.153   9.792 -0.0432 -0.0333 -0.0814
  222loPI    C3 3539   7.140  16.245  10.178  0.0694  0.0415 -0.1148
  222loPI   PO4 3540   6.733  15.813   9.882  0.3289 -0.2887 -0.1002
  222loPI   GL1 3541   6.534  15.666   9.521 -0.1751  0.0241 -0.1029
  222loPI   GL2 3542   6.344  15.548   9.292  0.1371 -0.0008  0.1765
  222loPI   C1A 3543   6.743  15.751   9.120 -0.0861  0.0161  0.0749
  222loPI   C2A 3544   6.802  15.785   8.619  0.2066  0.1119 -0.0427
  222loPI   C3A 3545   6.855  15.615   8.155  0.0608  0.2139  0.1727
  222loPI   C4A 3546   6.633  15.501   7.787 -0.1402 -0.1048  0.2961
  222loPI   C5A 3547   6.723  15.677   7.324  0.0998  0.4917  0.0482
  222loPI   C6A 3548   6.791  15.453   6.938 -0.2431  0.3278 -0.0099
  222loPI   C1B 3549   6.370  15.575   8.862  0.2022 -0.0560  0.1404
  222loPI   C2B 3550   6.354  15.679   8.384 -0.6491  0.4122  0.0901
  222loPI   C3B 3551   6.163  15.670   8.104 -0.1100 -0.1387 -0.0552
  222loPI   C4B 3552   6.127  15.546   7.694 -0.1350  0.0735  0.0801
  223loPI    C1 3553   4.713  10.561   9.953 -0.0074 -0.1725  0.0268
  223loPI    C2 3554   4.503  10.789  10.206 -0.1035 -0.1459 -0.0762
  223loPI    C3 3555   4.844  10.618  10.326 -0.1253 -0.0964  0.0572
  223loPI   PO4 3556   4.721  10.648   9.730  0.1932 -0.1032  0.0727
  223loPI   GL1 3557   4.448  10.614   9.311  0.1676  0.0587 -0.2098
  223loPI   GL2 3558   4.722  10.520   9.190  0.6231 -0.2329 -0.2724
  223loPI   C1A 3559   4.277  10.739   8.971  0.1103 -0.1544 -0.2129
  223loPI   C2A 3560   4.251  10.716   8.474 -0.0658 -0.0949 -0.1714
  223loPI   C3A 3561   4.343  10.632   8.148 -0.0697 -0.0205  0.3120
  223loPI   C4A 3562   4.310  10.511   7.675  0.1108 -0.1789  0.0390
  223loPI   C5A 3563   4.252  10.734   7.276 -0.0380  0.1110  0.0135
  223loPI   C6A 3564   4.585  10.863   6.961 -0.2807  0.2272  0.1478
  223loPI   C1B 3565   4.774  10.589   8.735  0.0391 -0.2764 -0.3783
  223loPI   C2B 3566   4.768  10.514   8.334  0.1644 -0.1064 -0.2430
  223loPI   C3B 3567   4.810  10.712   7.834 -0.0555  0.0319 -0.1826
  223loPI   C4B 3568   4.698  10.858   7.434 -0.0024  0.0198  0.2611
  224loPI    C1 3569  16.522   3.320  10.065  0.4151 -0.1092 -0.0944
  224loPI    C2 3570  16.433   3.062  10.358 -0.0553 -0.0722 -0.1961
  224loPI    C3 3571  16.762   3.290  10.384 -0.0241 -0.1583  0.2404
  224loPI   PO4 3572  16.318   3.560  10.045  0.1740 -0.1186  0.0346
  224loPI   GL1 3573  16.073   3.659   9.621  0.0890  0.1425 -0.1038
  224loPI   GL2 3574  16.266   3.881   9.607  0.1621  0.4828 -0.0720
  224loPI   C1A 3575  16.137   3.605   9.195 -0.2011 -0.0727 -0.0572
  224loPI   C2A 3576  16.100   3.616   8.733  0.2359 -0.0884  0.0726
  224loPI   C3A 3577  15.948   3.588   8.353 -0.2130  0.2405 -0.0673
  224loPI   C4A 3578  15.769   3.441   7.972  0.0833  0.0364 -0.0822
  224loPI   C5A 3579  15.446   3.361   7.624  0.1679 -0.1420 -0.0689
  224loPI   C6A 3580  15.024   3.291   7.348  0.3444  0.0181  0.2614
  224loPI   C1B 3581  15.894   3.992   9.262 -0.2198  0.0534 -0.0730
  224loPI   C2B 3582  15.671   3.924   8.892  0.0106 -0.2708 -0.2247
  224loPI   C3B 3583  15.439   3.896   8.540  0.1110  0.4018 -0.1132
  224loPI   C4B 3584  15.333   3.627   8.138 -0.2971  0.1613  0.0406
  225loPI    C1 3585  11.679   6.930  10.547  0.0615 -0.2560  0.0165
  225loPI    C2 3586  11.815   7.226  10.780 -0.0205 -0.0652 -0.1758
  225loPI    C3 3587  11.801   6.852  10.921 -0.1199  0.0557  0.1444
  225loPI   PO4 3588  11.861   6.976  10.315  0.0439  0.0288 -0.1601
  225loPI   GL1 3589  11.871   6.776   9.795  0.1823  0.1323  0.1543
  225loPI   GL2 3590  12.119   6.557   9.600  0.1267 -0.1962 -0.2557
  225loPI   C1A 3591  11.458   6.747   9.485  0.1185  0.1261  0.2549
  225loPI   C2A 3592  11.270   6.746   9.132  0.0780 -0.3654  0.3138
  225loPI   C3A 3593  11.448   6.841   8.772  0.2309 -0.5071  0.0095
  225loPI   C4A 3594  11.485   6.627   8.319  0.2453  0.0858 -0.0466
  225loPI   C5A 3595  11.382   6.412   7.873 -0.1101  0.1650 -0.0617
  225loPI   C6A 3596  11.070   6.213   7.700  0.0468 -0.5015 -0.0694
  225loPI   C1B 3597  11.917   6.579   9.182  0.0112  0.3024  0.0756
  225loPI   C2B 3598  11.902   6.733   8.766 -0.2052  0.1369 -0.0183
  225loPI   C3B 3599  11.987   6.773   8.265  0.1504 -0.3005  0.2453
  225loPI   C4B 3600  11.627   6.859   7.880 -0.1245  0.1566 -0.6912
  226loPI    C1 3601  12.910   0.342  10.143  0.1383  0.0883  0.2592
  226loPI    C2 3602  12.513   0.360  10.095  0.1961  0.2181 -0.2305
  226loPI    C3 3603  12.668   0.229  10.440 -0.2698 -0.0003 -0.0967
  226loPI   PO4 3604  12.948   0.261   9.907  0.0280  0.0464  0.2221
  226loPI   GL1 3605  12.785   0.221   9.630 -0.0655 -0.0666  0.0667
  226loPI   GL2 3606  12.701  -0.122   9.664  0.0510 -0.1714 -0.1938
  226loPI   C1A 3607  12.420   0.333   9.400  0.2980 -0.0243 -0.1109
  226loPI   C2A 3608  12.519   0.420   9.029 -0.0462  0.0842  0.1544
  226loPI   C3A 3609  12.267   0.367   8.604  0.3141  0.1196  0.0133
  226loPI   C4A 3610  12.014   0.622   8.333 -0.0289  0.3077 -0.0370
  226loPI   C5A 3611  11.717   0.789   8.015 -0.0794 -0.2532  0.0683
  226loPI   C6A 3612  11.354   0.675   7.957  0.1258  0.2579  0.0815
  226loPI   C1B 3613  12.615  -0.016   9.184 -0.0120 -0.3759  0.0893
  226loPI   C2B 3614  12.674  -0.049   8.816 -0.0540  0.0267 -0.0382
  226loPI   C3B 3615  12.897   0.049   8.489  0.2199  0.1144  0.0324
  226loPI   C4B 3616  12.749   0.184   8.087 -0.0905 -0.0790  0.0657
  227loPI    C1 3617  18.152   7.118  10.062 -0.2783  0.0522  0.0600
  227loPI    C2 3618  18.274   6.952  10.405 -0.2005 -0.0305 -0.0072
  227loPI    C3 3619  18.482   7.253  10.243 -0.1428 -0.1024 -0.0677
  227loPI   PO4 3620  18.187   6.954   9.887 -0.2366 -0.4230 -0.0892
  227loPI   GL1 3621  18.362   6.731   9.545 -0.2308  0.0111  0.4289
  227loPI   GL2 3622  18.087   6.853   9.412 -0.5527 -0.1610 -0.1531
  227loPI   C1A 3623  18.453   6.645   9.083  0.2330  0.1137  0.0282
  227loPI   C2A 3624  18.433   6.686   8.687  0.3343 -0.1358  0.2420
  227loPI   C3A 3625  18.249   6.886   8.244 -0.0585  0.1498 -0.0624
  227loPI   C4A 3626  18.353   7.104   7.871 -0.2295  0.1870 -0.1997
  227loPI   C5A 3627  18.302   6.965   7.487 -0.2271  0.1920  0.0813
  227loPI   C6A 3628  18.546   6.554   7.360 -0.2443 -0.4906  0.1441
  227loPI   C1B 3629  18.056   6.989   9.021  0.2940  0.0036  0.3618
  227loPI   C2B 3630  18.060   7.200   8.559 -0.3013  0.1797 -0.0303
  227loPI   C3B 3631  17.905   7.252   8.154 -0.2003 -0.1419 -0.0611
  227loPI   C4B 3632  17.885   6.827   7.858 -0.0600  0.1195  0.3047
  228loPI    C1 3633   6.254   8.276  10.036 -0.0712  0.0662 -0.0976
  228loPI    C2 3634   6.373   7.895  10.003 -0.0011  0.0734  0.0599
  228loPI    C3 3635   6.264   8.040  10.360 -0.3470  0.1082 -0.0561
  228loPI   PO4 3636   6.075   8.292   9.858 -0.0798 -0.5491  0.2883
  228loPI   GL1 3637   5.990   8.296   9.464 -0.6095  0.3077 -0.2355
  228loPI   GL2 3638   6.053   8.058   9.462  0.0933  0.0602 -0.0203
  228loPI   C1A 3639   5.913   8.414   9.051 -0.0040 -0.2540  0.1763
  228loPI   C2A 3640   5.781   8.472   8.609 -0.0787  0.1551 -0.1181
  228loPI   C3A 3641   5.919   8.605   8.250  0.3704 -0.2538 -0.4019
  228loPI   C4A 3642   6.005   8.446   7.810 -0.1833  0.1664 -0.0132
  228loPI   C5A 3643   5.683   8.327   7.560 -0.2423 -0.0564  0.2283
  228loPI   C6A 3644   5.364   8.032   7.402  0.0003 -0.0297 -0.2825
  228loPI   C1B 3645   6.397   8.128   9.094  0.2264 -0.0956 -0.0891
  228loPI   C2B 3646   6.664   8.209   8.756  0.0430 -0.1578  0.1643
  228loPI   C3B 3647   6.888   7.944   8.500 -0.3272 -0.0302 -0.0277
  228loPI   C4B 3648   7.233   7.754   8.484  0.0080  0.1737  0.0613
  229loPI    C1 3649  17.117  12.828  10.165 -0.0534  0.0463  0.0451
  229loPI    C2 3650  17.397  13.107  10.226 -0.1695  0.1814 -0.0299
  229loPI    C3 3651  17.264  12.887  10.532  0.1099  0.0260 -0.0162
  229loPI   PO4 3652  17.110  12.735   9.895 -0.1303 -0.0890 -0.0656
  229loPI   GL1 3653  16.979  12.859   9.476  0.1944  0.2142 -0.0852
  229loPI   GL2 3654  16.788  12.518   9.524 -0.1682  0.0132 -0.0555
  229loPI   C1A 3655  17.138  13.040   9.090  0.0980 -0.3892  0.0654
  229loPI   C2A 3656  17.194  13.034   8.621  0.2765 -0.0925  0.0073
  229loPI   C3A 3657  17.337  13.146   8.174  0.1603 -0.1635  0.2337
  229loPI   C4A 3658  17.389  13.435   7.895  0.1969  0.1213  0.1623
  229loPI   C5A 3659  17.379  13.581   7.521  0.3242 -0.1895  0.0451
  229loPI   C6A 3660  17.460  13.902   7.145  0.2436 -0.0052  0.1067
  229loPI   C1B 3661  16.549  12.349   9.217  0.0160  0.0419  0.1399
  229loPI   C2B 3662  16.633  12.141   8.943  0.0859 -0.1222 -0.3237
  229loPI   C3B 3663  16.583  11.982   8.623 -0.1109 -0.0671  0.0013
  229loPI   C4B 3664  16.591  11.898   8.198 -0.4338  0.0894  0.2091
  230loPI    C1 3665   7.405   0.455  10.433  0.0195 -0.0511 -0.1737
  230loPI    C2 3666   7.342   0.848  10.475 -0.1531 -0.0837 -0.1186
  230loPI    C3 3667   7.696   0.690  10.575 -0.1132  0.0441 -0.0560
  230loPI   PO4 3668   7.326   0.362  10.235 -0.0713  0.1418  0.2488
  230loPI   GL1 3669   7.478   0.400   9.737  0.0692 -0.4557 -0.1562
  230loPI   GL2 3670   7.480   0.263   9.489 -0.0882 -0.0521  0.1079
  230loPI   C1A 3671   7.416   0.749   9.487 -0.3146 -0.1872 -0.1149
  230loPI   C2A 3672   7.229   0.792   9.067  0.3339  0.0529 -0.0462
  230loPI   C3A 3673   7.059   0.605   8.809 -0.0110  0.1772 -0.1991
  230loPI   C4A 3674   6.777   0.522   8.424 -0.4969  0.0933  0.0181
  230loPI   C5A 3675   6.732   0.631   8.034  0.1474  0.0310  0.2276
  230loPI   C6A 3676   6.837   0.311   7.742  0.0362 -0.2471 -0.1333
  230loPI   C1B 3677   7.446   0.312   8.998  0.2416 -0.3507  0.0719
  230loPI   C2B 3678   7.404   0.298   8.545 -0.2948  0.2585  0.1090
  230loPI   C3B 3679   7.701   0.537   8.261 -0.2093  0.3441 -0.5099
  230loPI   C4B 3680   8.073   0.677   8.105 -0.2396  0.0042  0.3326
  231loPI    C1 3681  13.083   2.175  10.691 -0.0958 -0.0790  0.0121
  231loPI    C2 3682  12.851   2.500  10.706  0.0970  0.0603  0.0128
  231loPI    C3 3683  13.236   2.524  10.812  0.1214 -0.1608 -0.0208
  231loPI   PO4 3684  13.032   2.017  10.472  0.0373  0.3101 -0.1764
  231loPI   GL1 3685  13.167   1.966   9.990  0.4951  0.1914 -0.1163
  231loPI   GL2 3686  12.998   1.687   9.942 -0.0452 -0.1218 -0.0025
  231loPI   C1A 3687  12.955   2.066   9.652  0.0153  0.0428 -0.1390
  231loPI   C2A 3688  12.927   2.153   9.210 -0.1538  0.3733  0.1160
  231loPI   C3A 3689  12.960   1.867   8.889  0.0915  0.0881  0.1699
  231loPI   C4A 3690  12.910   1.797   8.424 -0.2161 -0.0073 -0.0885
  231loPI   C5A 3691  12.764   1.765   8.005  0.0846  0.0895  0.3332
  231loPI   C6A 3692  12.733   1.424   7.788 -0.0527 -0.0679 -0.0639
  231loPI   C1B 3693  12.916   1.576   9.454 -0.1016 -0.1618 -0.3938
  231loPI   C2B 3694  13.092   1.444   9.126 -0.1846  0.0038 -0.2152
  231loPI   C3B 3695  13.262   1.345   8.705 -0.1378  0.3620  0.0225
  231loPI   C4B 3696  13.279   1.474   8.216  0.0018  0.3983  0.0220
  232loPI    C1 3697   7.685  16.884   9.972  0.1362 -0.1304  0.1326
  232loPI    C2 3698   7.521  16.627  10.230 -0.2028  0.0287  0.0809
  232loPI    C3 3699   7.753  16.923  10.364 -0.2986  0.0526  0.1953
  232loPI   PO4 3700   7.800  16.805   9.817  0.1117 -0.2431  0.0209
  232loPI   GL1 3701   7.821  16.686   9.446 -0.0965 -0.1587 -0.2021
  232loPI   GL2 3702   7.908  17.042   9.401  0.1619 -0.3074  0.1974
  232loPI   C1A 3703   7.987  16.553   9.141  0.1479 -0.0980  0.3650
  232loPI   C2A 3704   7.797  16.673   8.764  0.0182  0.0185 -0.1363
  232loPI   C3A 3705   7.762  16.642   8.200  0.2226 -0.3704  0.1650
  232loPI   C4A 3706   7.795  16.503   7.812  0.0107  0.2977  0.0960
  232loPI   C5A 3707   7.756  16.189   7.602  0.0662  0.2702  0.0776
  232loPI   C6A 3708   7.892  15.785   7.485 -0.5501  0.1903  0.1869
  232loPI   C1B 3709   7.997  17.082   8.908 -0.1917 -0.1937 -0.2511
  232loPI   C2B 3710   7.992  17.025   8.412  0.0099  0.0108  0.1172
  232loPI   C3B 3711   7.963  17.037   7.955  0.0091 -0.2103 -0.1122
  232loPI   C4B 3712   7.969  16.865   7.570  0.1291 -0.0446 -0.4813
  233loPI    C1 3713   0.166   6.031  10.004 -0.0553  0.0170 -0.0549
  233loPI    C2 3714  -0.090   6.214  10.251  0.0247  0.1705 -0.0846
  233loPI    C3 3715   0.208   5.993  10.400 -0.1186 -0.0020 -0.0499
  233loPI   PO4 3716   0.067   5.906   9.858  0.2409 -0.2850 -0.2307
  233loPI   GL1 3717   0.129   5.765   9.410  0.2138  0.0753  0.0044
  233loPI   GL2 3718   0.422   5.752   9.114  0.0182  0.0071 -0.1085
  233loPI   C1A 3719   0.002   5.618   9.017  0.0240  0.0676  0.0971
  233loPI   C2A 3720  -0.104   5.655   8.575  0.1765  0.0524  0.2370
  233loPI   C3A 3721  -0.345   5.682   8.200 -0.0001 -0.2089  0.1817
  233loPI   C4A 3722  -0.424   6.017   7.943  0.1143 -0.2901 -0.0031
  233loPI   C5A 3723  -0.600   6.231   7.665  0.1686 -0.0282 -0.3336
  233loPI   C6A 3724  -0.857   6.548   7.393 -0.1377  0.3338  0.1045
  233loPI   C1B 3725   0.260   5.953   8.739 -0.0044  0.3481 -0.0687
  233loPI   C2B 3726   0.156   5.972   8.253  0.1787  0.2084 -0.2873
  233loPI   C3B 3727   0.012   6.161   7.836  0.0447  0.3319  0.3461
  233loPI   C4B 3728  -0.021   6.137   7.355 -0.0454  0.1662  0.1789
  234loPI    C1 3729   7.594   2.540  10.589 -0.2708  0.0007  0.1487
  234loPI    C2 3730   7.889   2.535  10.860 -0.1831 -0.1159  0.0520
  234loPI    C3 3731   7.513   2.460  10.973 -0.1548 -0.1099  0.1509
  234loPI   PO4 3732   7.608   2.717  10.474 -0.2067  0.0697  0.0223
  234loPI   GL1 3733   7.744   2.781   9.940  0.1332 -0.3191 -0.0610
  234loPI   GL2 3734   7.498   2.892   9.767  0.0312 -0.0542  0.0385
  234loPI   C1A 3735   7.786   2.541   9.511  0.0888  0.2077  0.1676
  234loPI   C2A 3736   7.909   2.631   9.075 -0.1468 -0.1168 -0.0264
  234loPI   C3A 3737   7.888   2.516   8.641 -0.1892  0.1574 -0.0767
  234loPI   C4A 3738   7.629   2.720   8.350  0.2403 -0.0227  0.1847
  234loPI   C5A 3739   7.427   2.886   8.051 -0.0585 -0.3085  0.3447
  234loPI   C6A 3740   7.516   3.130   7.629  0.0468  0.0148 -0.0019
  234loPI   C1B 3741   7.516   2.883   9.263  0.1776  0.1710  0.5261
  234loPI   C2B 3742   7.383   2.840   8.808 -0.0270  0.0436 -0.2962
  234loPI   C3B 3743   7.251   3.058   8.464  0.2334  0.1813 -0.1619
  234loPI   C4B 3744   7.042   3.382   8.247  0.3112  0.1350  0.0113
  235loPI    C1 3745  10.790  11.736  10.517 -0.1792  0.1254 -0.2679
  235loPI    C2 3746  11.039  11.548  10.767 -0.0804  0.1856 -0.3203
  235loPI    C3 3747  10.656  11.435  10.744 -0.1595  0.3601  0.0618
  235loPI   PO4 3748  10.935  11.708  10.237  0.1429 -0.1747  0.3587
  235loPI   GL1 3749  10.817  11.425   9.824 -0.3575 -0.1719  0.2602
  235loPI   GL2 3750  11.097  11.296   9.864  0.1404 -0.0272  0.0688
  235loPI   C1A 3751  10.796  11.450   9.425 -0.0261  0.0794  0.0237
  235loPI   C2A 3752  10.641  11.542   8.956 -0.0496 -0.1107 -0.0507
  235loPI   C3A 3753  10.754  11.490   8.528  0.2636 -0.1280  0.1161
  235loPI   C4A 3754  10.565  11.504   8.100 -0.1249  0.3988 -0.2556
  235loPI   C5A 3755  10.278  11.318   7.805 -0.1167 -0.0647  0.1634
  235loPI   C6A 3756  10.004  11.526   7.509  0.1344  0.2333 -0.2471
  235loPI   C1B 3757  11.243  11.248   9.501 -0.3836 -0.3162 -0.0818
  235loPI   C2B 3758  11.482  11.228   9.123 -0.2009 -0.2105 -0.2422
  235loPI   C3B 3759  11.930  11.285   9.075 -0.0038  0.1418 -0.2101
  235loPI   C4B 3760  12.189  10.837   8.742 -0.1033 -0.1862  0.2934
  236loPI    C1 3761  18.832  13.165  10.148 -0.1265  0.0957  0.1132
  236loPI    C2 3762  19.065  12.841  10.151 -0.2585 -0.0079 -0.2561
  236loPI    C3 3763  18.909  12.978  10.493 -0.0304 -0.2063 -0.0685
  236loPI   PO4 3764  18.718  13.099   9.824 -0.0257  0.1689 -0.0108
  236loPI   GL1 3765  18.715  13.022   9.316 -0.0518 -0.0080 -0.0748
  236loPI   GL2 3766  18.931  12.824   9.147 -0.0329 -0.1718 -0.0908
  236loPI   C1A 3767  18.535  13.267   9.019  0.0633 -0.4274 -0.0436
  236loPI   C2A 3768  18.731  13.436   8.626 -0.2706 -0.1782  0.2371
  236loPI   C3A 3769  18.717  13.465   8.213  0.1823  0.1409 -0.1769
  236loPI   C4A 3770  18.662  13.642   7.946  0.0621 -0.0675  0.1579
  236loPI   C5A 3771  18.670  13.795   7.562 -0.1898  0.0783 -0.1050
  236loPI   C6A 3772  18.432  14.002   7.362 -0.2690  0.2977  0.4719
  236loPI   C1B 3773  18.889  12.953   8.783  0.1664 -0.2085  0.0408
  236loPI   C2B 3774  18.892  12.953   8.246 -0.2282 -0.1658  0.0224
  236loPI   C3B 3775  19.013  13.183   7.946  0.1076  0.0844 -0.0400
  236loPI   C4B 3776  19.146  13.465   7.838  0.2278 -0.0844 -0.1964
  237loPI    C1 3777  17.755  11.595  10.175  0.0124  0.1399 -0.0449
  237loPI    C2 3778  18.063  11.847  10.216  0.1834 -0.0971  0.1614
  237loPI    C3 3779  17.960  11.608  10.519 -0.0813 -0.1597  0.0248
  237loPI   PO4 3780  17.687  11.637   9.879  0.1523 -0.2179 -0.1154
  237loPI   GL1 3781  17.859  11.563   9.443 -0.1127 -0.2171 -0.0883
  237loPI   GL2 3782  17.633  11.344   9.475 -0.0695  0.1460 -0.2686
  237loPI   C1A 3783  17.971  11.316   9.078  0.0124 -0.0561  0.1073
  237loPI   C2A 3784  18.161  11.130   8.698 -0.0273  0.5204 -0.1696
  237loPI   C3A 3785  18.249  10.931   8.291 -0.2240 -0.2068 -0.3278
  237loPI   C4A 3786  17.996  10.751   7.978 -0.1976  0.2527 -0.0674
  237loPI   C5A 3787  17.817  10.450   7.864 -0.1006  0.0747 -0.1212
  237loPI   C6A 3788  17.460  10.144   8.065 -0.0549 -0.0482 -0.2096
  237loPI   C1B 3789  17.569  11.635   9.090 -0.1078  0.2194  0.2806
  237loPI   C2B 3790  17.630  11.954   8.901  0.2731  0.1158 -0.0057
  237loPI   C3B 3791  17.528  12.360   8.625  0.0151  0.0544  0.3262
  237loPI   C4B 3792  17.465  12.680   8.318  0.0888 -0.2706  0.0933
  238loPI    C1 3793   9.172  11.997  10.223 -0.2126  0.0149 -0.2101
  238loPI    C2 3794   8.973  11.803  10.511  0.0105 -0.0438 -0.0938
  238loPI    C3 3795   8.831  12.148  10.369 -0.2622 -0.1692 -0.1319
  238loPI   PO4 3796   9.313  11.832  10.149  0.0713 -0.0275  0.3873
  238loPI   GL1 3797   9.388  11.819   9.778  0.1578 -0.2399  0.0821
  238loPI   GL2 3798   9.092  11.747   9.690 -0.2536  0.0047  0.2312
  238loPI   C1A 3799   9.458  11.895   9.368 -0.1725  0.2859 -0.0360
  238loPI   C2A 3800   9.557  11.903   8.912  0.0738  0.0100 -0.1274
  238loPI   C3A 3801   9.581  11.906   8.504 -0.2868 -0.2342  0.0596
  238loPI   C4A 3802   9.551  11.974   8.191 -0.0144 -0.2391  0.0634
  238loPI   C5A 3803   9.305  11.894   7.856 -0.1030 -0.4533  0.0927
  238loPI   C6A 3804   9.077  11.646   7.662 -0.5909  0.2170  0.1068
  238loPI   C1B 3805   8.907  11.964   9.298 -0.2766  0.0648 -0.0112
  238loPI   C2B 3806   9.044  12.035   8.894 -0.0315  0.2177 -0.0654
  238loPI   C3B 3807   9.152  12.208   8.520  0.1046  0.1645 -0.2367
  238loPI   C4B 3808   9.184  12.331   8.107  0.2668 -0.0869 -0.3046
  239loPI    C1 3809   2.039   2.865  10.198  0.0376 -0.1065 -0.0520
  239loPI    C2 3810   2.105   3.124  10.496 -0.2833  0.1122 -0.1656
  239loPI    C3 3811   2.403   2.895  10.360 -0.0998  0.1130  0.2246
  239loPI   PO4 3812   1.813   2.765  10.242  0.0924  0.1864 -0.1425
  239loPI   GL1 3813   1.488   2.585   9.903  0.2011  0.0313  0.0694
  239loPI   GL2 3814   1.592   2.763   9.848  0.0873 -0.0999  0.1387
  239loPI   C1A 3815   1.592   2.415   9.449 -0.1805 -0.1349 -0.3783
  239loPI   C2A 3816   1.416   2.533   9.131  0.1588  0.2232 -0.0202
  239loPI   C3A 3817   1.156   2.482   8.640  0.1667  0.2229 -0.1537
  239loPI   C4A 3818   1.202   2.481   8.224  0.1655 -0.1778  0.0178
  239loPI   C5A 3819   1.498   2.641   7.973  0.2099  0.0576  0.0671
  239loPI   C6A 3820   1.771   2.487   7.706  0.0829 -0.2963 -0.2314
  239loPI   C1B 3821   1.643   2.912   9.416 -0.2783  0.2298  0.1818
  239loPI   C2B 3822   1.610   2.946   8.957  0.0190  0.3596  0.0328
  239loPI   C3B 3823   1.605   2.972   8.557  0.1496 -0.0688  0.1377
  239loPI   C4B 3824   1.641   3.152   8.097  0.2587 -0.0076  0.1553
  240loPI    C1 3825  14.758  12.733  10.459  0.0167  0.1149  0.0400
  240loPI    C2 3826  14.800  12.924  10.808  0.4647  0.0382  0.0336
  240loPI    C3 3827  14.485  12.684  10.748  0.4956 -0.1197  0.4678
  240loPI   PO4 3828  14.766  12.894  10.235  0.0315  0.2227 -0.0992
  240loPI   GL1 3829  14.838  12.961   9.863  0.3954 -0.2257  0.0796
  240loPI   GL2 3830  15.113  12.904   9.723  0.1434 -0.0319 -0.1073
  240loPI   C1A 3831  14.769  13.089   9.379 -0.1117  0.0260  0.0198
  240loPI   C2A 3832  14.887  12.995   8.905  0.0002 -0.2255  0.2019
  240loPI   C3A 3833  15.251  12.838   8.699 -0.2056 -0.0525  0.0953
  240loPI   C4A 3834  15.351  12.660   8.352  0.2134  0.2625  0.0012
  240loPI   C5A 3835  15.572  12.722   8.084 -0.4234 -0.1390 -0.0836
  240loPI   C6A 3836  15.663  12.743   7.657  0.1095  0.0702  0.0084
  240loPI   C1B 3837  15.178  12.866   9.272 -0.2106 -0.1031 -0.0176
  240loPI   C2B 3838  15.483  13.115   9.080  0.1716  0.1496 -0.2218
  240loPI   C3B 3839  15.580  13.620   9.106  0.1717  0.0745 -0.2384
  240loPI   C4B 3840  15.926  13.843   9.091 -0.2098  0.0361  0.0926
  241loPI    C1 3841  15.690  10.648  10.278  0.0386  0.0651  0.0469
  241loPI    C2 3842  15.361  10.461  10.405 -0.0234  0.0525 -0.1294
  241loPI    C3 3843  15.534  10.740  10.634 -0.0433 -0.0801  0.0491
  241loPI   PO4 3844  15.871  10.425  10.139 -0.0961 -0.1654  0.1428
  241loPI   GL1 3845  15.684  10.389   9.776 -0.0127  0.0610 -0.2794
  241loPI   GL2 3846  16.043  10.299   9.655 -0.2618 -0.0946  0.1066
  241loPI   C1A 3847  15.492  10.643   9.338 -0.1121  0.2736 -0.0475
  241loPI   C2A 3848  15.472  10.566   8.862 -0.0636  0.2069 -0.2773
  241loPI   C3A 3849  15.417  10.646   8.463 -0.1847 -0.0219 -0.2071
  241loPI   C4A 3850  15.132  10.685   8.163 -0.1347  0.0128  0.2170
  241loPI   C5A 3851  14.956  10.563   7.778 -0.1487  0.1451 -0.2591
  241loPI   C6A 3852  14.507  10.743   7.556  0.0319 -0.0767  0.2368
  241loPI   C1B 3853  16.084  10.006   9.462  0.3625 -0.0540  0.0883
  241loPI   C2B 3854  16.279  10.172   9.115  0.1502  0.0422  0.0882
  241loPI   C3B 3855  16.371  10.457   8.894  0.3602  0.2516 -0.0098
  241loPI   C4B 3856  16.291  10.809   8.654 -0.1306  0.0278 -0.2303
  242loPI    C1 3857  11.526  11.634  10.007 -0.1586  0.0536 -0.0592
  242loPI    C2 3858  11.723  11.510   9.682 -0.0464  0.0379  0.0141
  242loPI    C3 3859  11.609  11.246   9.960  0.0244  0.0748  0.0786
  242loPI   PO4 3860  11.310  11.764   9.906  0.1199  0.3488  0.1515
  242loPI   GL1 3861  11.073  11.853   9.488 -0.0985  0.1470 -0.0507
  242loPI   GL2 3862  11.402  11.871   9.440  0.1107 -0.0679 -0.1572
  242loPI   C1A 3863  11.108  11.693   9.079  0.1832  0.1364 -0.1258
  242loPI   C2A 3864  11.195  11.906   8.644 -0.1375  0.1407 -0.5535
  242loPI   C3A 3865  10.995  11.771   8.223 -0.0550 -0.0385  0.0202
  242loPI   C4A 3866  10.743  11.948   7.916  0.0420 -0.0460  0.1241
  242loPI   C5A 3867  10.567  12.162   7.546 -0.1764  0.1264 -0.1257
  242loPI   C6A 3868  10.528  12.545   7.544 -0.0395  0.1667  0.0056
  242loPI   C1B 3869  11.464  12.129   9.137  0.1107 -0.0656 -0.1983
  242loPI   C2B 3870  11.296  12.476   9.065 -0.0716  0.0295  0.2537
  242loPI   C3B 3871  11.334  12.807   8.731  0.0800  0.2390 -0.1125
  242loPI   C4B 3872  11.323  12.634   8.372 -0.0481 -0.1767 -0.2713
  243loPI    C1 3873   5.793  16.634  10.197 -0.0562  0.0474 -0.2487
  243loPI    C2 3874   5.827  16.882  10.509  0.1239 -0.2133 -0.0565
  243loPI    C3 3875   5.903  16.492  10.554 -0.1273 -0.3023 -0.3617
  243loPI   PO4 3876   5.559  16.675  10.042  0.0107 -0.1529 -0.1594
  243loPI   GL1 3877   5.150  16.829   9.731  0.2093  0.3063  0.1360
  243loPI   GL2 3878   5.445  16.633   9.531 -0.0447  0.0300  0.3539
  243loPI   C1A 3879   5.180  17.123   9.396  0.4591  0.4838 -0.0541
  243loPI   C2A 3880   5.411  17.393   9.050 -0.4203 -0.0611 -0.2959
  243loPI   C3A 3881   5.480  17.592   8.714  0.3269  0.0244 -0.1563
  243loPI   C4A 3882   5.362  17.718   8.265  0.1889 -0.4383  0.1698
  243loPI   C5A 3883   5.127  17.966   8.034 -0.0317  0.0594 -0.3200
  243loPI   C6A 3884   4.834  17.902   7.727  0.0777 -0.0137  0.2433
  243loPI   C1B 3885   5.536  16.803   9.080  0.1042 -0.0501 -0.0126
  243loPI   C2B 3886   5.610  17.037   8.766 -0.0610 -0.3588  0.2991
  243loPI   C3B 3887   5.673  17.205   8.327  0.1406  0.2699 -0.1252
  243loPI   C4B 3888   6.011  17.302   7.971 -0.3196  0.0518 -0.1518
  244loPI    C1 3889   8.608   6.075  10.417  0.0306 -0.0461  0.2183
  244loPI    C2 3890   8.799   6.203  10.744 -0.1410  0.3937  0.1533
  244loPI    C3 3891   8.409   6.113  10.762 -0.0684  0.0660  0.1497
  244loPI   PO4 3892   8.804   5.983  10.256  0.0334  0.0344  0.1556
  244loPI   GL1 3893   9.053   5.664  10.124 -0.1418 -0.1030 -0.2080
  244loPI   GL2 3894   9.348   5.861  10.036  0.1014 -0.1300  0.0519
  244loPI   C1A 3895   8.960   5.579   9.685  0.1608 -0.2916 -0.1145
  244loPI   C2A 3896   8.826   5.582   9.228 -0.0042 -0.0723  0.1842
  244loPI   C3A 3897   8.836   5.583   8.855  0.0795 -0.2015  0.1194
  244loPI   C4A 3898   8.814   5.661   8.439 -0.1027 -0.0381 -0.1509
  244loPI   C5A 3899   9.105   5.572   8.113  0.2060 -0.0686  0.1177
  244loPI   C6A 3900   9.267   5.219   7.831  0.2136 -0.4315  0.0807
  244loPI   C1B 3901   9.388   5.890   9.614 -0.2563  0.2889  0.1054
  244loPI   C2B 3902   9.356   5.884   9.154 -0.2484 -0.1409 -0.0401
  244loPI   C3B 3903   9.126   5.960   8.803  0.1163 -0.3068 -0.4315
  244loPI   C4B 3904   9.131   5.964   8.361  0.1762  0.1384 -0.1915
  245loPI    C1 3905   3.042   6.083  10.674 -0.0131 -0.4398  0.1065
  245loPI    C2 3906   3.346   6.171  10.430  0.0643  0.2404  0.4232
  245loPI    C3 3907   3.411   5.959  10.763  0.0819 -0.0926  0.2128
  245loPI   PO4 3908   2.836   6.073  10.455  0.0132  0.1142 -0.0035
  245loPI   GL1 3909   2.818   5.969  10.063  0.2005  0.4631 -0.2375
  245loPI   GL2 3910   2.847   5.667   9.986  0.2594  0.3142  0.0925
  245loPI   C1A 3911   2.965   6.286   9.738 -0.1961  0.1654  0.0909
  245loPI   C2A 3912   2.977   6.509   9.509 -0.0183  0.1003  0.0924
  245loPI   C3A 3913   3.145   6.520   9.078 -0.1464  0.0044 -0.1492
  245loPI   C4A 3914   3.106   6.438   8.573  0.3670  0.0516  0.0744
  245loPI   C5A 3915   3.155   6.648   8.156  0.1588 -0.0784 -0.0669
  245loPI   C6A 3916   2.981   6.642   7.665  0.2509  0.0499  0.1532
  245loPI   C1B 3917   2.822   5.626   9.537 -0.0031 -0.0647 -0.1922
  245loPI   C2B 3918   2.882   5.686   9.065  0.1029 -0.3228  0.1527
  245loPI   C3B 3919   3.078   5.483   8.797 -0.0297  0.0115 -0.0609
  245loPI   C4B 3920   3.211   5.478   8.269  0.1266 -0.0058 -0.2812
  246loPI    C1 3921   2.872   3.262  10.215  0.2376 -0.2364  0.1969
  246loPI    C2 3922   2.961   3.497  10.526  0.0879  0.0300  0.0426
  246loPI    C3 3923   2.694   3.202  10.568  0.0017  0.1216  0.1444
  246loPI   PO4 3924   2.762   3.492   9.970  0.1791 -0.2169 -0.3468
  246loPI   GL1 3925   3.144   3.541   9.700  0.0001 -0.3622  0.0233
  246loPI   GL2 3926   3.103   3.818   9.592  0.1740 -0.0836  0.0931
  246loPI   C1A 3927   2.932   3.448   9.346  0.0481  0.3054  0.0260
  246loPI   C2A 3928   3.050   3.290   8.931  0.2616 -0.0385 -0.1747
  246loPI   C3A 3929   2.997   3.347   8.524  0.2598 -0.1305  0.0443
  246loPI   C4A 3930   2.824   3.472   8.129  0.0617 -0.1132 -0.3108
  246loPI   C5A 3931   2.977   3.623   7.757  0.0213 -0.3041 -0.0083
  246loPI   C6A 3932   2.902   3.910   7.418 -0.0458  0.0306 -0.2476
  246loPI   C1B 3933   3.297   3.832   9.309  0.1491  0.1296  0.1241
  246loPI   C2B 3934   3.410   3.994   8.840  0.1411  0.1121 -0.0184
  246loPI   C3B 3935   3.309   3.745   8.555  0.2148 -0.0695  0.0278
  246loPI   C4B 3936   3.303   3.713   8.175 -0.0977  0.0255  0.1073
  247loPI    C1 3937   0.379  11.823  10.158  0.0251 -0.0683  0.2229
  247loPI    C2 3938   0.478  11.655  10.507  0.0506 -0.2056  0.1503
  247loPI    C3 3939   0.496  12.052  10.464 -0.2315 -0.1630  0.3953
  247loPI   PO4 3940   0.433  11.547   9.993 -0.2758 -0.1259 -0.2150
  247loPI   GL1 3941   0.465  11.614   9.524 -0.3426  0.0515 -0.4982
  247loPI   GL2 3942   0.424  11.716   9.289  0.2682 -0.1958 -0.0760
  247loPI   C1A 3943   0.629  11.329   9.132  0.1717 -0.0647 -0.1119
  247loPI   C2A 3944   0.540  11.161   8.726  0.2836 -0.0188 -0.3490
  247loPI   C3A 3945   0.406  10.912   8.409  0.2342  0.2282  0.0559
  247loPI   C4A 3946   0.287  10.765   7.963  0.0987 -0.1427  0.0247
  247loPI   C5A 3947   0.050  10.946   7.637 -0.0604  0.0312 -0.2496
  247loPI   C6A 3948  -0.154  11.007   7.293 -0.1060 -0.1414 -0.0233
  247loPI   C1B 3949   0.570  11.845   8.901 -0.0596 -0.1983 -0.2879
  247loPI   C2B 3950   0.863  11.976   8.617 -0.1085  0.0638 -0.1016
  247loPI   C3B 3951   1.017  11.965   8.274  0.3561 -0.1385 -0.2549
  247loPI   C4B 3952   1.012  11.947   7.869 -0.0143  0.0007 -0.0951
  248loPI    C1 3953  13.693  12.976  10.289  0.0094  0.1143 -0.0298
  248loPI    C2 3954  13.530  13.265  10.512  0.1659 -0.0342  0.2844
  248loPI    C3 3955  13.588  12.902  10.668  0.1136 -0.1936 -0.0583
  248loPI   PO4 3956  13.904  13.055  10.146  0.3004  0.0710  0.1004
  248loPI   GL1 3957  13.889  12.935   9.669 -0.1133  0.1409 -0.2026
  248loPI   GL2 3958  13.748  12.906   9.383  0.2160  0.1933 -0.0916
  248loPI   C1A 3959  14.227  13.012   9.372 -0.2382  0.2214  0.1497
  248loPI   C2A 3960  14.263  13.052   8.904  0.2812  0.1716 -0.1267
  248loPI   C3A 3961  14.355  13.293   8.567 -0.1888 -0.0190 -0.2589
  248loPI   C4A 3962  14.476  13.306   8.116 -0.1551  0.0869  0.1331
  248loPI   C5A 3963  14.466  13.213   7.726  0.4503 -0.0595  0.1645
  248loPI   C6A 3964  14.653  13.011   7.348 -0.0270  0.2977 -0.1406
  248loPI   C1B 3965  13.769  13.054   8.956  0.1092  0.2669  0.2000
  248loPI   C2B 3966  13.818  13.168   8.450  0.0215 -0.0076 -0.1473
  248loPI   C3B 3967  13.942  13.271   7.968 -0.3988 -0.3792 -0.3469
  248loPI   C4B 3968  13.960  12.970   7.638  0.4256 -0.2706  0.3021
  249loPI    C1 3969  12.125  12.821  10.035 -0.1989  0.0140  0.1477
  249loPI    C2 3970  12.127  12.422  10.051  0.2051 -0.0115 -0.3059
  249loPI    C3 3971  12.304  12.634  10.340  0.1553 -0.1648 -0.1613
  249loPI   PO4 3972  12.252  12.861   9.749  0.0924  0.0325 -0.2591
  249loPI   GL1 3973  12.459  13.167   9.464  0.0654  0.0942 -0.0930
  249loPI   GL2 3974  12.763  13.155   9.316 -0.0073  0.0803 -0.0407
  249loPI   C1A 3975  12.321  13.401   9.139 -0.1127  0.0228  0.0263
  249loPI   C2A 3976  12.460  13.440   8.746 -0.0823 -0.0948  0.3593
  249loPI   C3A 3977  12.725  13.100   8.545 -0.0604  0.0120  0.0406
  249loPI   C4A 3978  12.743  13.036   8.126  0.3185 -0.0022  0.1790
  249loPI   C5A 3979  12.684  12.880   7.753  0.2619  0.1493  0.4876
  249loPI   C6A 3980  12.895  12.933   7.342  0.1567 -0.0082 -0.1269
  249loPI   C1B 3981  12.939  13.340   8.973 -0.1496  0.1020  0.0283
  249loPI   C2B 3982  13.271  13.159   8.728 -0.2154  0.0215 -0.3358
  249loPI   C3B 3983  13.300  12.946   8.242 -0.0416 -0.2958  0.4281
  249loPI   C4B 3984  13.430  12.842   7.764 -0.1236 -0.3821  0.2962
  250loPI    C1 3985   8.400  18.689  10.275  0.2054  0.1393 -0.0861
  250loPI    C2 3986   8.348  18.297  10.334  0.4354  0.1137 -0.0436
  250loPI    C3 3987   8.697  18.434  10.196  0.3101  0.2914 -0.1888
  250loPI   PO4 3988   8.245  18.767  10.183  0.0672 -0.2514 -0.1447
  250loPI   GL1 3989   8.096  18.797   9.719 -0.1930 -0.0179 -0.4236
  250loPI   GL2 3990   7.902  18.914   9.615 -0.1202  0.1142  0.2048
  250loPI   C1A 3991   8.338  18.645   9.388  0.1097  0.3754  0.0818
  250loPI   C2A 3992   8.342  18.421   8.996 -0.1445 -0.1251  0.1255
  250loPI   C3A 3993   8.280  18.394   8.577 -0.0949 -0.1123  0.0121
  250loPI   C4A 3994   8.144  18.182   8.199  0.4298 -0.1912 -0.1421
  250loPI   C5A 3995   7.941  17.970   7.797  0.1910 -0.1125  0.2647
  250loPI   C6A 3996   7.749  17.623   7.497 -0.1061  0.1091  0.0189
  250loPI   C1B 3997   7.793  18.857   9.186  0.0192  0.2835  0.0467
  250loPI   C2B 3998   7.862  18.652   8.785 -0.1378  0.0382  0.2052
  250loPI   C3B 3999   7.852  18.766   8.317 -0.1739 -0.0882 -0.1884
  250loPI   C4B 4000   7.893  19.004   8.021 -0.2205 -0.0542 -0.0044
  251loPI    C1 4001   9.691   0.495  10.414  0.1461 -0.1155 -0.1654
  251loPI    C2 4002   9.812   0.292  10.736 -0.2245 -0.1069 -0.0164
  251loPI    C3 4003   9.454   0.470  10.735 -0.0729  0.2065 -0.2970
  251loPI   PO4 4004   9.893   0.456  10.211 -0.0168 -0.2838 -0.1159
  251loPI   GL1 4005  10.106   0.377   9.782 -0.1989  0.0624  0.2356
  251loPI   GL2 4006   9.830   0.294   9.599  0.1026  0.0649  0.3723
  251loPI   C1A 4007  10.353   0.299   9.365  0.0757  0.0194  0.2520
  251loPI   C2A 4008  10.313   0.455   8.893  0.3333  0.1513 -0.0340
  251loPI   C3A 4009  10.267   0.195   8.490 -0.2265 -0.1056 -0.1943
  251loPI   C4A 4010  10.204  -0.101   8.148  0.1549 -0.1139 -0.0072
  251loPI   C5A 4011  10.244  -0.437   7.904  0.1944  0.2801  0.2687
  251loPI   C6A 4012  10.677  -0.446   7.799  0.1849 -0.1032  0.2810
  251loPI   C1B 4013   9.787   0.318   9.177  0.1440  0.2975  0.0067
  251loPI   C2B 4014   9.810   0.158   8.715 -0.4332  0.0579 -0.1486
  251loPI   C3B 4015   9.748  -0.029   8.312 -0.0460  0.1504 -0.1636
  251loPI   C4B 4016   9.625  -0.412   8.207 -0.1781 -0.1023 -0.3363
  252loPI    C1 4017  16.446   8.114   9.991  0.0830 -0.1655 -0.0805
  252loPI    C2 4018  16.716   8.404  10.045 -0.3034  0.1953 -0.0366
  252loPI    C3 4019  16.503   8.269  10.356 -0.1063 -0.1615 -0.0518
  252loPI   PO4 4020  16.311   8.115   9.791 -0.1830 -0.1442 -0.1900
  252loPI   GL1 4021  16.045   7.900   9.549  0.0591 -0.0414  0.0798
  252loPI   GL2 4022  16.063   8.102   9.247  0.0380 -0.4057  0.0645
  252loPI   C1A 4023  16.267   7.645   9.260 -0.2773 -0.0456 -0.2344
  252loPI   C2A 4024  16.396   7.522   8.894  0.1447  0.1815  0.0957
  252loPI   C3A 4025  16.246   7.576   8.504 -0.0583 -0.2855  0.0500
  252loPI   C4A 4026  16.124   7.444   8.127 -0.0770 -0.0305  0.1711
  252loPI   C5A 4027  15.894   7.269   7.927  0.1895 -0.0904  0.1084
  252loPI   C6A 4028  15.834   6.992   7.618  0.1254 -0.0812  0.0446
  252loPI   C1B 4029  16.145   8.072   8.834 -0.4178 -0.1781  0.1245
  252loPI   C2B 4030  16.407   8.094   8.469  0.0205 -0.1282  0.3363
  252loPI   C3B 4031  16.199   7.960   8.063  0.0954 -0.0361 -0.0635
  252loPI   C4B 4032  16.041   8.061   7.741  0.2642 -0.1856 -0.1773
  253loPI    C1 4033  12.172   1.831  10.594 -0.0685  0.0409  0.3316
  253loPI    C2 4034  12.541   1.898  10.731  0.1037  0.0179 -0.1060
  253loPI    C3 4035  12.357   1.553  10.813  0.1880  0.0181  0.0901
  253loPI   PO4 4036  12.069   1.915  10.332  0.0619 -0.2814 -0.2438
  253loPI   GL1 4037  12.069   1.584   9.965 -0.0233 -0.0733  0.4090
  253loPI   GL2 4038  11.791   1.652   9.988  0.1419  0.1952 -0.1996
  253loPI   C1A 4039  11.880   1.748   9.526 -0.0027  0.0826  0.1079
  253loPI   C2A 4040  11.895   1.835   9.198 -0.0592  0.0567 -0.0962
  253loPI   C3A 4041  11.851   1.973   8.838  0.0523  0.2164  0.0936
  253loPI   C4A 4042  11.564   2.079   8.452 -0.0168  0.0217 -0.0226
  253loPI   C5A 4043  11.388   2.277   8.087  0.1168 -0.2685 -0.0618
  253loPI   C6A 4044  11.002   2.600   7.985  0.2635  0.2106  0.1776
  253loPI   C1B 4045  11.598   1.373   9.633 -0.0633 -0.1172  0.0711
  253loPI   C2B 4046  11.558   1.515   9.208 -0.0826  0.0487 -0.1404
  253loPI   C3B 4047  11.469   1.496   8.784 -0.0211  0.0570 -0.1906
  253loPI   C4B 4048  11.391   1.526   8.390  0.0741 -0.0115 -0.0757
  254loPI    C1 4049   7.576   5.727  10.373 -0.0871 -0.0824 -0.1601
  254loPI    C2 4050   7.311   5.717  10.673  0.2008  0.2092  0.1128
  254loPI    C3 4051   7.645   5.499  10.694  0.1480  0.1078 -0.0729
  254loPI   PO4 4052   7.368   5.751  10.166  0.0477 -0.1102  0.1084
  254loPI   GL1 4053   7.499   5.767   9.829 -0.1666 -0.4011 -0.2785
  254loPI   GL2 4054   7.781   5.863   9.915 -0.2602  0.1882  0.0460
  254loPI   C1A 4055   7.469   5.417   9.527  0.0096 -0.2366 -0.0881
  254loPI   C2A 4056   7.407   5.461   9.046 -0.1740 -0.1076 -0.0794
  254loPI   C3A 4057   7.384   5.619   8.634 -0.2109 -0.0570 -0.1480
  254loPI   C4A 4058   7.322   5.587   8.261 -0.1088 -0.1596 -0.0038
  254loPI   C5A 4059   7.110   5.508   7.901  0.2990 -0.0016 -0.1134
  254loPI   C6A 4060   7.061   5.292   7.464  0.1234 -0.1019  0.1213
  254loPI   C1B 4061   7.774   5.888   9.432 -0.1073  0.0642  0.2161
  254loPI   C2B 4062   7.767   5.848   9.016 -0.0124 -0.2732 -0.3878
  254loPI   C3B 4063   7.754   6.077   8.614 -0.0779 -0.1176 -0.2911
  254loPI   C4B 4064   7.560   6.260   8.217  0.0913  0.0928  0.1012
  255loPI    C1 4065   4.395  16.046   9.773  0.2774  0.3342 -0.0162
  255loPI    C2 4066   4.374  16.008  10.170  0.0632  0.1850 -0.0398
  255loPI    C3 4067   4.513  15.707   9.948 -0.0294  0.1826 -0.0950
  255loPI   PO4 4068   4.148  16.258   9.696  0.0526  0.1131  0.2998
  255loPI   GL1 4069   3.965  16.335   9.288 -0.1699 -0.0768  0.1098
  255loPI   GL2 4070   3.800  16.067   9.088 -0.2470  0.0824 -0.0573
  255loPI   C1A 4071   4.236  16.411   9.029  0.1633 -0.0906  0.1610
  255loPI   C2A 4072   4.146  16.740   8.663 -0.1660  0.1437 -0.1850
  255loPI   C3A 4073   4.091  16.895   8.377  0.0941 -0.1987 -0.1638
  255loPI   C4A 4074   3.582  16.913   8.137 -0.2081 -0.1209 -0.1011
  255loPI   C5A 4075   3.516  17.216   7.836  0.0222  0.0750 -0.2025
  255loPI   C6A 4076   3.176  17.420   7.669 -0.1706 -0.1519  0.2097
  255loPI   C1B 4077   3.883  16.103   8.734 -0.1602  0.0351 -0.0721
  255loPI   C2B 4078   3.809  15.991   8.383  0.3491 -0.0013 -0.0469
  255loPI   C3B 4079   3.712  15.993   8.009  0.0437  0.2178  0.0193
  255loPI   C4B 4080   3.824  16.047   7.524 -0.5431 -0.0090 -0.0274
  256loPI    C1 4081  16.271  13.769  10.330  0.0229 -0.0179  0.0657
  256loPI    C2 4082  16.347  14.159  10.383  0.1615 -0.0503  0.1093
  256loPI    C3 4083  16.360  13.908  10.695  0.1192 -0.0978  0.0731
  256loPI   PO4 4084  16.144  13.736  10.153  0.2125  0.0762  0.0511
  256loPI   GL1 4085  16.209  14.040   9.924 -0.1718  0.1124  0.0874
  256loPI   GL2 4086  16.211  14.337   9.922 -0.2504 -0.0056 -0.1087
  256loPI   C1A 4087  15.995  14.117   9.530  0.1986 -0.4334 -0.2150
  256loPI   C2A 4088  15.533  14.127   9.373 -0.1486  0.2347  0.1633
  256loPI   C3A 4089  15.573  14.157   8.925  0.0322  0.2711 -0.0256
  256loPI   C4A 4090  15.675  14.129   8.445  0.2237 -0.0062  0.1790
  256loPI   C5A 4091  15.460  14.090   8.052 -0.0786 -0.0401 -0.2694
  256loPI   C6A 4092  15.337  14.484   7.790  0.2010  0.0891  0.2466
  256loPI   C1B 4093  16.362  14.461   9.481 -0.0847 -0.0776  0.2569
  256loPI   C2B 4094  16.518  14.333   9.128  0.0804 -0.2674  0.4763
  256loPI   C3B 4095  16.374  14.124   8.889 -0.0676 -0.2576  0.1455
  256loPI   C4B 4096  16.215  14.024   8.548 -0.0765  0.2354 -0.1671
  257loPI    C1 4097   1.848  17.796  10.331 -0.3325 -0.0525 -0.0598
  257loPI    C2 4098   1.972  18.148  10.476 -0.1586 -0.0924 -0.1089
  257loPI    C3 4099   1.793  17.883  10.717 -0.3156  0.0406 -0.0781
  257loPI   PO4 4100   2.101  17.725  10.131 -0.0039  0.0772  0.0717
  257loPI   GL1 4101   2.160  17.851   9.728  0.1304  0.0827  0.2098
  257loPI   GL2 4102   2.486  17.811   9.767  0.0946  0.1394  0.1336
  257loPI   C1A 4103   2.006  18.046   9.430 -0.0781 -0.1157 -0.0013
  257loPI   C2A 4104   1.728  18.051   9.024  0.0526 -0.1829  0.0852
  257loPI   C3A 4105   1.484  18.147   8.619  0.0151 -0.0467  0.0585
  257loPI   C4A 4106   1.330  18.156   8.221 -0.0487 -0.0090 -0.0955
  257loPI   C5A 4107   1.197  18.416   7.833 -0.2021  0.3088  0.1912
  257loPI   C6A 4108   1.382  18.849   7.563  0.0964 -0.2718 -0.1086
  257loPI   C1B 4109   2.515  18.000   9.441  0.1741 -0.1438  0.4633
  257loPI   C2B 4110   2.598  18.359   9.258 -0.1816  0.0591  0.0188
  257loPI   C3B 4111   2.470  18.528   8.891 -0.0612  0.0423  0.0960
  257loPI   C4B 4112   2.263  18.626   8.434 -0.1634 -0.0713  0.1066
  258loPI    C1 4113  14.885   0.001  10.516  0.1229 -0.0702  0.0338
  258loPI    C2 4114  14.710  -0.318  10.350 -0.1412 -0.0194  0.2103
  258loPI    C3 4115  14.999  -0.368  10.622  0.0248 -0.1042  0.0211
  258loPI   PO4 4116  14.928   0.225  10.284  0.1815  0.0736  0.2860
  258loPI   GL1 4117  14.857   0.089   9.918 -0.0616  0.2762  0.2994
  258loPI   GL2 4118  14.911  -0.258   9.896 -0.1486  0.0933  0.0381
  258loPI   C1A 4119  14.964   0.290   9.574  0.2315 -0.3171 -0.2593
  258loPI   C2A 4120  15.272   0.269   9.308 -0.0669  0.0378 -0.0579
  258loPI   C3A 4121  15.501   0.270   8.960  0.0875  0.0104  0.2811
  258loPI   C4A 4122  15.334   0.188   8.512 -0.0521 -0.1503  0.0691
  258loPI   C5A 4123  15.317   0.024   8.203  0.0998 -0.1465 -0.2219
  258loPI   C6A 4124  15.426  -0.283   7.835  0.0399 -0.0110  0.0196
  258loPI   C1B 4125  14.973  -0.221   9.462 -0.1202  0.1365  0.1798
  258loPI   C2B 4126  14.993  -0.092   9.019  0.0435 -0.1563 -0.0569
  258loPI   C3B 4127  14.874  -0.152   8.553 -0.1731 -0.1890  0.0708
  258loPI   C4B 4128  14.802  -0.062   8.084 -0.2711  0.2547  0.1459
  259loPI    C1 4129  15.579  15.191  10.451 -0.1737 -0.1307  0.0339
  259loPI    C2 4130  15.492  15.018  10.801 -0.1532 -0.2817 -0.0347
  259loPI    C3 4131  15.777  15.299  10.781 -0.1136 -0.3149  0.0594
  259loPI   PO4 4132  15.615  15.070  10.292 -0.0851  0.0665 -0.1032
  259loPI   GL1 4133  15.650  15.116   9.808 -0.0943  0.1330  0.1720
  259loPI   GL2 4134  15.876  14.982   9.903  0.2802  0.1335 -0.0321
  259loPI   C1A 4135  15.706  15.057   9.386 -0.1127 -0.4061  0.1149
  259loPI   C2A 4136  15.868  14.969   8.927 -0.0164  0.2250 -0.2913
  259loPI   C3A 4137  15.772  14.972   8.532 -0.3091 -0.0966 -0.0634
  259loPI   C4A 4138  15.869  15.242   8.110  0.0403  0.2009  0.2394
  259loPI   C5A 4139  15.837  15.484   7.817 -0.2117  0.0039  0.1430
  259loPI   C6A 4140  15.903  15.902   7.503  0.1074 -0.0184  0.0211
  259loPI   C1B 4141  16.147  14.885   9.623 -0.0186  0.3100  0.3943
  259loPI   C2B 4142  16.313  14.879   9.184  0.0579  0.0200 -0.3141
  259loPI   C3B 4143  16.320  14.760   8.781  0.1963  0.0397  0.0891
  259loPI   C4B 4144  16.533  14.457   8.527 -0.2412  0.1251  0.1948
  260loPI    C1 4145  18.614   8.630  10.205 -0.3134 -0.2210  0.1915
  260loPI    C2 4146  18.819   8.300  10.299 -0.0416 -0.1125 -0.0050
  260loPI    C3 4147  18.880   8.638  10.503  0.1463 -0.0204 -0.2108
  260loPI   PO4 4148  18.641   8.593   9.929  0.1220  0.0427 -0.2646
  260loPI   GL1 4149  18.564   8.738   9.530 -0.0547 -0.0954 -0.0008
  260loPI   GL2 4150  18.850   8.686   9.421 -0.2234 -0.0717 -0.2067
  260loPI   C1A 4151  18.468   8.930   9.094  0.0618  0.0570 -0.2505
  260loPI   C2A 4152  18.348   9.003   8.633  0.1135 -0.0740  0.1167
  260loPI   C3A 4153  18.214   8.889   8.226  0.0412 -0.2934  0.1843
  260loPI   C4A 4154  17.980   8.872   7.781  0.1979  0.1078  0.2426
  260loPI   C5A 4155  17.665   8.707   7.417  0.2668 -0.0553  0.0722
  260loPI   C6A 4156  17.421   8.350   7.295 -0.4992 -0.0775 -0.1145
  260loPI   C1B 4157  18.876   8.653   9.042 -0.0687  0.1167  0.0797
  260loPI   C2B 4158  18.965   8.688   8.582 -0.1052 -0.0338  0.2499
  260loPI   C3B 4159  18.699   8.618   8.297  0.0168 -0.0777  0.0175
  260loPI   C4B 4160  18.408   8.255   8.317  0.0311 -0.1140 -0.3069
  261loPI    C1 4161   8.283   3.367  10.757 -0.0042 -0.2135  0.0007
  261loPI    C2 4162   8.430   3.242  11.107  0.0788 -0.0959  0.0081
  261loPI    C3 4163   8.300   3.619  11.068 -0.1055 -0.1630 -0.0339
  261loPI   PO4 4164   8.456   3.324  10.588 -0.4831  0.3311 -0.0574
  261loPI   GL1 4165   8.593   3.387  10.146  0.1123 -0.1871 -0.0276
  261loPI   GL2 4166   8.873   3.526  10.280 -0.1544 -0.0630 -0.0746
  261loPI   C1A 4167   8.631   3.198   9.774 -0.1036  0.0666  0.1840
  261loPI   C2A 4168   8.738   3.402   9.416  0.1708 -0.0758  0.1141
  261loPI   C3A 4169   8.760   3.290   8.977 -0.0901 -0.0854 -0.0999
  261loPI   C4A 4170   8.695   3.275   8.603  0.1571 -0.1174  0.4365
  261loPI   C5A 4171   8.544   3.141   8.238  0.0621 -0.0336 -0.1320
  261loPI   C6A 4172   8.472   2.973   7.873 -0.2531  0.0068  0.0784
  261loPI   C1B 4173   8.876   3.686   9.798  0.0377  0.2343 -0.1713
  261loPI   C2B 4174   8.693   3.879   9.575  0.1049 -0.3779 -0.1138
  261loPI   C3B 4175   8.760   3.819   9.104  0.0978  0.2221 -0.2839
  261loPI   C4B 4176   8.694   3.738   8.804  0.2501 -0.0771 -0.0375
  262loPI    C1 4177   2.863  17.853  10.589  0.1022 -0.1748  0.0130
  262loPI    C2 4178   3.153  17.988  10.829  0.0778  0.1789 -0.1505
  262loPI    C3 4179   2.790  17.910  10.978  0.2008 -0.0836  0.0187
  262loPI   PO4 4180   3.015  17.732  10.406  0.0402 -0.0565  0.5188
  262loPI   GL1 4181   3.007  17.793   9.902 -0.1367  0.3684  0.1392
  262loPI   GL2 4182   2.929  18.093  10.018  0.2314 -0.2813  0.1134
  262loPI   C1A 4183   3.027  17.820   9.405  0.2110 -0.2411  0.2522
  262loPI   C2A 4184   2.866  17.946   9.003 -0.2152 -0.0439  0.3855
  262loPI   C3A 4185   2.783  18.257   8.662 -0.0684  0.3281 -0.2129
  262loPI   C4A 4186   2.823  18.318   8.223  0.1053 -0.1823  0.0872
  262loPI   C5A 4187   2.621  18.270   7.789 -0.1307  0.0238  0.1978
  262loPI   C6A 4188   2.218  18.297   7.501  0.0770  0.1918  0.2571
  262loPI   C1B 4189   3.045  18.321   9.590 -0.0026 -0.2311  0.0250
  262loPI   C2B 4190   3.223  18.253   9.236  0.3425 -0.1236  0.1453
  262loPI   C3B 4191   3.216  18.500   8.845  0.1983  0.0713  0.1092
  262loPI   C4B 4192   3.264  18.638   8.443 -0.2788 -0.4589 -0.0061
  263loPI    C1 4193   8.956   2.100  10.676 -0.1141  0.1126  0.1911
  263loPI    C2 4194   8.939   1.701  10.686 -0.0492  0.1025 -0.0569
  263loPI    C3 4195   8.669   1.917  10.887 -0.1572 -0.0656 -0.0189
  263loPI   PO4 4196   9.035   2.135  10.452  0.0782 -0.0496  0.1854
  263loPI   GL1 4197   9.212   2.087   9.965 -0.2631  0.0460 -0.0820
  263loPI   GL2 4198   9.398   2.274  10.048 -0.2143  0.0975  0.3080
  263loPI   C1A 4199   9.353   1.955   9.478 -0.0550  0.1504  0.1546
  263loPI   C2A 4200   9.300   2.002   9.028  0.2946  0.0494 -0.0076
  263loPI   C3A 4201   9.296   1.998   8.645  0.0434 -0.1245  0.1774
  263loPI   C4A 4202   9.275   2.081   8.231 -0.1269 -0.0276 -0.3765
  263loPI   C5A 4203   9.304   2.262   7.906  0.0236  0.1025  0.1735
  263loPI   C6A 4204   9.407   1.980   7.682  0.2362 -0.0418  0.0157
  263loPI   C1B 4205   9.240   2.433   9.667 -0.3888  0.0220 -0.0506
  263loPI   C2B 4206   9.222   2.518   9.174  0.0964  0.0067 -0.2817
  263loPI   C3B 4207   9.239   2.478   8.780  0.0257 -0.4472 -0.1688
  263loPI   C4B 4208   9.234   2.546   8.424 -0.4382 -0.3001 -0.0808
  264loPI    C1 4209   6.362  13.342  10.053 -0.3208  0.1444  0.1222
  264loPI    C2 4210   6.716  13.527  10.079 -0.2899  0.1231 -0.1260
  264loPI    C3 4211   6.603  13.270  10.364 -0.0713  0.0708 -0.0853
  264loPI   PO4 4212   6.371  13.275   9.803 -0.1983  0.1045 -0.2616
  264loPI   GL1 4213   6.471  12.974   9.581  0.4803  0.2046  0.0346
  264loPI   GL2 4214   6.785  13.101   9.393  0.1313  0.1473  0.0959
  264loPI   C1A 4215   6.177  13.088   9.213  0.0707  0.1400  0.3229
  264loPI   C2A 4216   6.417  13.269   8.893  0.2482  0.1303 -0.1190
  264loPI   C3A 4217   6.432  13.244   8.450  0.1640 -0.1984  0.1778
  264loPI   C4A 4218   6.291  13.214   8.044  0.1130 -0.0050  0.1572
  264loPI   C5A 4219   6.352  13.540   7.618  0.0531 -0.0231 -0.0418
  264loPI   C6A 4220   6.239  13.469   7.142  0.1331  0.0573 -0.1622
  264loPI   C1B 4221   6.871  13.069   8.939  0.1787  0.0178 -0.0700
  264loPI   C2B 4222   6.875  12.984   8.555 -0.0537  0.0697 -0.0172
  264loPI   C3B 4223   6.975  13.053   8.136  0.0473 -0.0137  0.0537
  264loPI   C4B 4224   7.084  12.890   7.755 -0.0225 -0.1722  0.3069
  265loPI    C1 4225   5.275   8.133  10.101  0.0284 -0.1187 -0.1090
  265loPI    C2 4226   5.445   7.815  10.274  0.0573 -0.0513 -0.0128
  265loPI    C3 4227   5.348   8.135  10.494  0.1201  0.0464 -0.1258
  265loPI   PO4 4228   5.429   8.190   9.910  0.1492 -0.0665 -0.1511
  265loPI   GL1 4229   5.531   8.077   9.493 -0.0694 -0.2582 -0.3030
  265loPI   GL2 4230   5.594   7.739   9.389 -0.0898  0.0637  0.0428
  265loPI   C1A 4231   5.541   8.081   9.069 -0.0968 -0.0155  0.0091
  265loPI   C2A 4232   5.608   7.984   8.650 -0.2665  0.3543 -0.0920
  265loPI   C3A 4233   5.425   8.157   8.351 -0.0057 -0.1456  0.0961
  265loPI   C4A 4234   5.435   8.031   7.995 -0.0509 -0.0188 -0.2343
  265loPI   C5A 4235   5.553   7.745   7.774  0.2628  0.1171 -0.1405
  265loPI   C6A 4236   5.474   7.522   7.346 -0.0911 -0.3033  0.1671
  265loPI   C1B 4237   5.615   7.477   9.080 -0.0575  0.2179  0.1230
  265loPI   C2B 4238   5.452   7.336   8.665 -0.4312  0.0040 -0.1259
  265loPI   C3B 4239   5.116   7.218   8.579  0.1401 -0.0652  0.3153
  265loPI   C4B 4240   4.858   7.211   8.271  0.0502  0.1865  0.0339
  266loPI    C1 4241   0.127   8.957  10.032  0.1334 -0.2607  0.0250
  266loPI    C2 4242   0.160   9.339  10.145 -0.2094 -0.2215  0.0030
  266loPI    C3 4243   0.295   9.048  10.383  0.2323 -0.0810 -0.0676
  266loPI   PO4 4244   0.063   9.037   9.770  0.0381 -0.1139 -0.2558
  266loPI   GL1 4245   0.269   9.136   9.356  0.1906 -0.0649  0.0892
  266loPI   GL2 4246   0.433   8.862   9.166 -0.0403 -0.0686 -0.0961
  266loPI   C1A 4247   0.484   9.349   9.053 -0.1136 -0.4024 -0.1405
  266loPI   C2A 4248   0.777   9.444   8.735  0.1308 -0.0003  0.0413
  266loPI   C3A 4249   0.909   9.309   8.458  0.0037  0.0434  0.0258
  266loPI   C4A 4250   1.139   9.578   8.144 -0.1200  0.0066  0.1042
  266loPI   C5A 4251   0.945   9.789   7.723 -0.0988  0.0819  0.0122
  266loPI   C6A 4252   0.778   9.578   7.419  0.3250 -0.1812  0.1404
  266loPI   C1B 4253   0.029   9.121   8.938 -0.3256  0.0231  0.1485
  266loPI   C2B 4254  -0.060   9.137   8.478  0.0591  0.0029  0.4403
  266loPI   C3B 4255   0.013   9.196   8.053 -0.0828 -0.0909  0.0813
  266loPI   C4B 4256   0.293   9.284   7.771 -0.0727  0.2526  0.1649
  267loPI    C1 4257  17.618  17.868  10.474  0.4108 -0.1832 -0.1642
  267loPI    C2 4258  17.694  17.725  10.840 -0.0372  0.1335  0.0613
  267loPI    C3 4259  17.827  18.088  10.736 -0.0346  0.1041 -0.0391
  267loPI   PO4 4260  17.450  17.715  10.354  0.0567 -0.0580 -0.2622
  267loPI   GL1 4261  17.419  17.905   9.902 -0.0403  0.1613 -0.2508
  267loPI   GL2 4262  17.762  17.980   9.938  0.0258  0.0314  0.0297
  267loPI   C1A 4263  17.385  17.556   9.493  0.0110 -0.0253  0.2986
  267loPI   C2A 4264  17.515  17.321   9.187  0.1310  0.0881  0.1070
  267loPI   C3A 4265  17.493  17.104   8.739  0.0198  0.2505 -0.0022
  267loPI   C4A 4266  17.619  17.311   8.381  0.0781 -0.2920  0.1001
  267loPI   C5A 4267  17.922  17.424   8.003 -0.0182  0.0687 -0.4543
  267loPI   C6A 4268  18.321  17.404   7.753 -0.0179 -0.2232 -0.0976
  267loPI   C1B 4269  17.827  17.665   9.641  0.0669  0.0280 -0.2267
  267loPI   C2B 4270  17.799  17.710   9.233  0.2502  0.0582  0.1464
  267loPI   C3B 4271  17.785  17.767   8.776  0.0039  0.2055 -0.0927
  267loPI   C4B 4272  17.738  17.793   8.317 -0.0443  0.0561  0.1064
  268loPI    C1 4273  11.392   7.990  10.380 -0.0354  0.1094 -0.1094
  268loPI    C2 4274  11.117   8.189  10.168 -0.2911  0.1803  0.2772
  268loPI    C3 4275  11.357   8.387  10.419  0.0989  0.1141 -0.0336
  268loPI   PO4 4276  11.499   7.798  10.186  0.1821 -0.0308  0.3165
  268loPI   GL1 4277  11.307   7.756   9.860 -0.0294  0.0058  0.3122
  268loPI   GL2 4278  11.682   7.755   9.637  0.1225 -0.0157 -0.1419
  268loPI   C1A 4279  11.210   8.134   9.709  0.2874  0.1469 -0.2352
  268loPI   C2A 4280  11.239   8.403   9.383 -0.0636 -0.0213  0.0037
  268loPI   C3A 4281  11.098   8.389   9.066 -0.1192 -0.0744 -0.1684
  268loPI   C4A 4282  10.993   8.414   8.624  0.0063 -0.1289  0.1971
  268loPI   C5A 4283  10.985   8.385   8.155 -0.0654  0.0536 -0.1226
  268loPI   C6A 4284  11.217   8.281   7.869 -0.1676  0.1290 -0.0765
  268loPI   C1B 4285  11.704   7.867   9.141 -0.1012 -0.0091  0.0688
  268loPI   C2B 4286  11.746   7.794   8.697  0.0734 -0.3734  0.0284
  268loPI   C3B 4287  11.798   7.554   8.257  0.0258  0.1806 -0.1261
  268loPI   C4B 4288  11.957   7.266   8.081  0.1482  0.3795 -0.1894
  269loPI    C1 4289   2.597  16.304  10.019  0.2124 -0.0580 -0.2317
  269loPI    C2 4290   2.678  16.484  10.367  0.0378 -0.2254 -0.1027
  269loPI    C3 4291   2.870  16.148  10.266 -0.0385 -0.2745 -0.0861
  269loPI   PO4 4292   2.628  16.525   9.858 -0.1561  0.3884 -0.0006
  269loPI   GL1 4293   2.666  16.652   9.470  0.2951 -0.0920  0.4614
  269loPI   GL2 4294   2.765  16.470   9.342  0.2203  0.1594  0.1309
  269loPI   C1A 4295   2.452  16.704   8.993  0.1268 -0.2628 -0.3410
  269loPI   C2A 4296   2.336  16.735   8.484  0.1724 -0.1442 -0.2021
  269loPI   C3A 4297   2.114  16.842   8.198  0.2183  0.2074 -0.0549
  269loPI   C4A 4298   1.815  17.179   7.898 -0.0716 -0.0561 -0.0082
  269loPI   C5A 4299   1.711  17.558   7.610  0.0285 -0.0940  0.2826
  269loPI   C6A 4300   1.899  17.855   7.375  0.1464  0.1773 -0.0729
  269loPI   C1B 4301   2.891  16.513   8.980 -0.2794  0.0940  0.0064
  269loPI   C2B 4302   2.810  16.591   8.530  0.0246  0.1155 -0.1946
  269loPI   C3B 4303   2.734  16.799   8.195 -0.3082  0.1307  0.0203
  269loPI   C4B 4304   2.483  17.041   7.929  0.2924  0.1184  0.0803
  270loPI    C1 4305  11.736  16.560  10.411  0.1094  0.0774  0.0860
  270loPI    C2 4306  11.526  16.865  10.260  0.0763  0.0110 -0.0026
  270loPI    C3 4307  11.782  16.928  10.561 -0.1036  0.0845  0.1372
  270loPI   PO4 4308  11.805  16.396  10.098 -0.2874 -0.1524 -0.4181
  270loPI   GL1 4309  11.926  16.490   9.675  0.1354 -0.1536 -0.0956
  270loPI   GL2 4310  11.585  16.591   9.704  0.3052 -0.0496 -0.0168
  270loPI   C1A 4311  12.026  16.306   9.323 -0.3981 -0.0881 -0.0985
  270loPI   C2A 4312  11.959  16.513   8.798 -0.4840 -0.1165 -0.3453
  270loPI   C3A 4313  11.946  16.774   8.423 -0.0904  0.2952  0.1330
  270loPI   C4A 4314  11.957  17.072   8.053 -0.2725 -0.0223  0.2136
  270loPI   C5A 4315  12.002  17.342   7.769 -0.1433 -0.1394  0.1994
  270loPI   C6A 4316  11.846  17.567   7.445 -0.2135  0.1725  0.3363
  270loPI   C1B 4317  11.507  16.626   9.285 -0.3876  0.1929  0.2093
  270loPI   C2B 4318  11.512  16.494   8.847  0.0891 -0.1326 -0.1165
  270loPI   C3B 4319  11.492  16.477   8.473 -0.3865 -0.1358 -0.0270
  270loPI   C4B 4320  11.086  16.404   8.277  0.4771  0.0310  0.0708
  271loPI    C1 4321  14.025   4.201  10.718  0.0919  0.3951  0.0484
  271loPI    C2 4322  14.419   4.146  10.754  0.0458 -0.2225 -0.2585
  271loPI    C3 4323  14.165   3.914  10.959 -0.1633  0.1201 -0.1227
  271loPI   PO4 4324  13.966   4.201  10.428  0.0815  0.1251  0.1091
  271loPI   GL1 4325  13.803   4.058  10.045  0.0250 -0.0494  0.2206
  271loPI   GL2 4326  13.898   3.700  10.072 -0.0405 -0.0762  0.3369
  271loPI   C1A 4327  13.508   3.831   9.748  0.1689 -0.1118  0.2531
  271loPI   C2A 4328  13.397   3.736   9.327  0.2790  0.3247  0.1237
  271loPI   C3A 4329  13.490   3.676   8.849  0.0652  0.1708  0.0748
  271loPI   C4A 4330  13.586   3.621   8.466  0.1496  0.1722 -0.0808
  271loPI   C5A 4331  13.537   3.504   8.005  0.0446  0.0489  0.1189
  271loPI   C6A 4332  13.119   3.483   7.716 -0.1555  0.0043 -0.2850
  271loPI   C1B 4333  13.943   3.660   9.565 -0.1706 -0.3213  0.0350
  271loPI   C2B 4334  13.862   3.502   9.151 -0.2176  0.0602  0.0030
  271loPI   C3B 4335  14.088   3.361   8.744  0.3956 -0.2289 -0.2571
  271loPI   C4B 4336  14.021   3.344   8.265 -0.0449 -0.0723  0.0726
  272loPI    C1 4337  16.295   2.428   9.983 -0.0802 -0.1800 -0.1550
  272loPI    C2 4338  16.053   2.710  10.129  0.1914 -0.0127 -0.0184
  272loPI    C3 4339  16.056   2.345  10.292  0.1558  0.0355  0.0906
  272loPI   PO4 4340  16.227   2.468   9.741  0.0882  0.0893 -0.1022
  272loPI   GL1 4341  16.388   2.518   9.369  0.0344  0.2531  0.0652
  272loPI   GL2 4342  16.667   2.568   9.380 -0.0418  0.4866  0.0904
  272loPI   C1A 4343  16.361   2.414   9.004 -0.0330 -0.1795  0.0024
  272loPI   C2A 4344  16.235   2.497   8.712 -0.4413 -0.2336  0.1850
  272loPI   C3A 4345  16.219   2.660   8.369  0.1509 -0.2406 -0.0764
  272loPI   C4A 4346  16.421   2.845   8.056  0.1720 -0.1900  0.1006
  272loPI   C5A 4347  16.244   3.177   7.846  0.2737  0.3961 -0.1428
  272loPI   C6A 4348  16.234   3.626   7.871 -0.1203 -0.1411 -0.2480
  272loPI   C1B 4349  16.704   2.716   8.995 -0.0149 -0.3918 -0.2984
  272loPI   C2B 4350  16.662   2.711   8.563  0.0598  0.0772  0.1732
  272loPI   C3B 4351  16.827   2.614   8.197 -0.0116 -0.1591 -0.0072
  272loPI   C4B 4352  16.876   2.533   7.783  0.1480  0.0940  0.0886
  273loPI    C1 4353  14.516  11.833  10.496  0.1476  0.0268  0.0542
  273loPI    C2 4354  14.330  12.176  10.585  0.0727  0.0038 -0.0127
  273loPI    C3 4355  14.707  12.116  10.704  0.0396  0.0530  0.1186
  273loPI   PO4 4356  14.520  11.785  10.165  0.4269  0.0583 -0.0251
  273loPI   GL1 4357  14.720  11.915   9.750 -0.0356  0.0578 -0.2456
  273loPI   GL2 4358  14.415  12.055   9.735  0.0176  0.2672  0.3704
  273loPI   C1A 4359  14.897  11.876   9.298 -0.1174  0.0845  0.2466
  273loPI   C2A 4360  14.989  12.003   8.881 -0.1499  0.2045  0.2222
  273loPI   C3A 4361  15.074  12.058   8.556  0.0031 -0.1758  0.0577
  273loPI   C4A 4362  15.046  12.144   8.189 -0.1638 -0.1110 -0.4017
  273loPI   C5A 4363  14.991  12.506   7.933  0.0314  0.0808 -0.1391
  273loPI   C6A 4364  14.700  12.849   7.884 -0.0799  0.0880 -0.1110
  273loPI   C1B 4365  14.379  12.021   9.324  0.1066  0.1227 -0.2722
  273loPI   C2B 4366  14.163  11.844   8.981 -0.0315 -0.2108  0.1674
  273loPI   C3B 4367  14.121  11.900   8.591  0.2011 -0.4478 -0.0329
  273loPI   C4B 4368  14.243  11.817   8.114 -0.0378 -0.0588  0.0864
  274loPI    C1 4369   6.213   7.349  10.028  0.0078  0.2677  0.0473
  274loPI    C2 4370   6.498   7.083  10.117  0.0728  0.2125 -0.3110
  274loPI    C3 4371   6.416   7.381  10.372 -0.1194 -0.2420  0.1784
  274loPI   PO4 4372   6.169   7.426   9.876  0.0563  0.0142 -0.1330
  274loPI   GL1 4373   6.066   7.569   9.413 -0.0900 -0.3579  0.0352
  274loPI   GL2 4374   6.375   7.691   9.521  0.0209 -0.5581 -0.1208
  274loPI   C1A 4375   6.032   7.803   8.973 -0.1804  0.0063  0.0800
  274loPI   C2A 4376   6.195   8.153   8.647 -0.2933 -0.0168 -0.0324
  274loPI   C3A 4377   5.989   8.035   8.173 -0.1397 -0.0628 -0.2228
  274loPI   C4A 4378   5.993   7.891   7.676 -0.1981  0.0495  0.2583
  274loPI   C5A 4379   5.919   7.881   7.268 -0.2307 -0.2363 -0.3128
  274loPI   C6A 4380   5.909   8.189   6.866 -0.0842 -0.2764 -0.0755
  274loPI   C1B 4381   6.484   7.505   9.126  0.2110 -0.1330 -0.2241
  274loPI   C2B 4382   6.491   7.704   8.655  0.0440  0.2834 -0.1934
  274loPI   C3B 4383   6.424   7.841   8.299 -0.0715  0.0832 -0.0459
  274loPI   C4B 4384   6.468   8.060   7.888  0.2209 -0.0208 -0.0509
  275loPI    C1 4385  17.578  16.903  10.762  0.0061  0.4242  0.0373
  275loPI    C2 4386  17.248  16.816  10.553  0.2283  0.1799 -0.2199
  275loPI    C3 4387  17.217  16.952  10.928 -0.1579 -0.1010 -0.1430
  275loPI   PO4 4388  17.746  16.920  10.436  0.2935 -0.3079 -0.0198
  275loPI   GL1 4389  18.062  17.066  10.117  0.0475 -0.3694 -0.3341
  275loPI   GL2 4390  17.820  17.364  10.037  0.0061 -0.1261  0.0222
  275loPI   C1A 4391  18.143  17.220   9.688  0.1767  0.2388 -0.1102
  275loPI   C2A 4392  18.014  17.239   9.287 -0.1729 -0.0032 -0.2126
  275loPI   C3A 4393  18.070  17.310   8.856  0.0837  0.5516 -0.1708
  275loPI   C4A 4394  18.187  17.447   8.399 -0.1054 -0.5356  0.0134
  275loPI   C5A 4395  18.220  17.834   8.215 -0.2312 -0.1854 -0.1417
  275loPI   C6A 4396  18.525  17.855   7.887  0.0697 -0.1452 -0.1614
  275loPI   C1B 4397  17.611  17.149   9.676  0.0403  0.1551  0.2058
  275loPI   C2B 4398  17.647  16.838   9.267  0.6132  0.1071  0.0316
  275loPI   C3B 4399  17.888  16.771   8.887 -0.2456  0.0255 -0.2378
  275loPI   C4B 4400  17.900  16.935   8.481  0.2556 -0.0949  0.2192
  276loPI    C1 4401  13.976  15.648  10.579 -0.0101  0.2543  0.0358
  276loPI    C2 4402  13.607  15.506  10.639 -0.0199  0.3324  0.1617
  276loPI    C3 4403  13.880  15.484  10.931  0.1641  0.0053 -0.0298
  276loPI   PO4 4404  13.894  15.879  10.464 -0.0550 -0.1486 -0.1373
  276loPI   GL1 4405  13.798  15.881  10.028  0.3031 -0.1571 -0.1833
  276loPI   GL2 4406  13.932  15.798   9.791  0.0368 -0.1004  0.1593
  276loPI   C1A 4407  13.825  16.247   9.660 -0.0348  0.3233 -0.1009
  276loPI   C2A 4408  13.868  16.341   9.286  0.3680 -0.0740  0.0404
  276loPI   C3A 4409  14.031  16.219   8.962 -0.1592  0.1014  0.0764
  276loPI   C4A 4410  14.116  16.213   8.510  0.0515  0.2267 -0.0622
  276loPI   C5A 4411  14.245  16.161   8.129 -0.3387 -0.0400  0.0684
  276loPI   C6A 4412  14.441  16.037   7.775 -0.1341 -0.1734 -0.0329
  276loPI   C1B 4413  14.000  15.803   9.340  0.0970  0.0415 -0.0088
  276loPI   C2B 4414  14.006  15.398   9.060  0.0919 -0.2151 -0.1703
  276loPI   C3B 4415  13.926  15.215   8.747  0.0247  0.0425 -0.0306
  276loPI   C4B 4416  14.044  15.118   8.273 -0.2213  0.2174  0.0696
  277loPI    C1 4417   1.207   2.896  10.197 -0.1584  0.1902 -0.0702
  277loPI    C2 4418   0.976   2.944  10.520 -0.0538  0.2571 -0.0049
  277loPI    C3 4419   1.367   2.872  10.563 -0.1069 -0.1146 -0.1097
  277loPI   PO4 4420   1.031   2.738   9.990 -0.2252 -0.1822  0.1020
  277loPI   GL1 4421   0.675   2.690   9.682  0.0645  0.0323 -0.0408
  277loPI   GL2 4422   0.640   3.013   9.693  0.2152  0.2101 -0.1895
  277loPI   C1A 4423   0.985   2.455   9.418 -0.1838  0.4629  0.0567
  277loPI   C2A 4424   0.896   2.278   9.028 -0.0447 -0.1678 -0.0854
  277loPI   C3A 4425   0.825   2.095   8.625 -0.1799  0.1439  0.0765
  277loPI   C4A 4426   0.938   1.936   8.251  0.2444 -0.2435 -0.3042
  277loPI   C5A 4427   0.717   2.005   7.865  0.0751 -0.0725  0.1397
  277loPI   C6A 4428   0.417   2.023   7.573  0.0298  0.0745  0.1776
  277loPI   C1B 4429   0.606   3.182   9.259  0.1596 -0.2759  0.0027
  277loPI   C2B 4430   0.441   3.484   9.021  0.1542 -0.1469 -0.5989
  277loPI   C3B 4431   0.144   3.333   8.665  0.0264  0.1281  0.0144
  277loPI   C4B 4432  -0.110   3.375   8.180 -0.0258  0.2216 -0.0307
  278loPI    C1 4433   4.679   8.135  10.095 -0.0477  0.0820  0.0672
  278loPI    C2 4434   4.491   7.977  10.411  0.1599 -0.0821  0.1118
  278loPI    C3 4435   4.853   8.140  10.456  0.0790  0.1305  0.0061
  278loPI   PO4 4436   4.563   7.987   9.843 -0.0701  0.0521 -0.2650
  278loPI   GL1 4437   4.557   8.097   9.472 -0.1526 -0.2476 -0.1606
  278loPI   GL2 4438   4.659   8.350   9.223  0.2062  0.2274  0.3763
  278loPI   C1A 4439   4.614   7.747   9.096  0.0177  0.1396 -0.0388
  278loPI   C2A 4440   4.660   7.750   8.611 -0.2490  0.0674  0.0450
  278loPI   C3A 4441   4.655   7.689   8.177 -0.2186 -0.0114  0.1725
  278loPI   C4A 4442   4.687   7.465   7.906 -0.0175 -0.3520  0.3154
  278loPI   C5A 4443   4.900   7.261   7.713 -0.0553  0.0690 -0.1679
  278loPI   C6A 4444   5.288   7.011   7.588  0.0054 -0.0078 -0.1596
  278loPI   C1B 4445   4.704   8.224   8.860 -0.0276  0.0111  0.2129
  278loPI   C2B 4446   4.866   8.244   8.485 -0.1406 -0.0936  0.1682
  278loPI   C3B 4447   4.975   8.093   8.099  0.1502 -0.2311 -0.1291
  278loPI   C4B 4448   5.031   8.313   7.668 -0.1470  0.1546 -0.0133
  279loPI    C1 4449   5.644   9.978  10.054 -0.1658  0.3518  0.0694
  279loPI    C2 4450   5.896  10.135  10.322 -0.2327  0.2456  0.1958
  279loPI    C3 4451   5.609   9.883  10.441 -0.0991 -0.0090 -0.0094
  279loPI   PO4 4452   5.822   9.928   9.847 -0.0829  0.0613 -0.1596
  279loPI   GL1 4453   6.112  10.107   9.576 -0.3736 -0.2800 -0.1250
  279loPI   GL2 4454   6.166  10.438   9.435 -0.0508  0.0034  0.0270
  279loPI   C1A 4455   6.010  10.032   9.059 -0.0992 -0.0137 -0.0326
  279loPI   C2A 4456   5.943  10.076   8.693 -0.0946 -0.2297 -0.1436
  279loPI   C3A 4457   5.851  10.475   8.495  0.1191  0.0556  0.1751
  279loPI   C4A 4458   5.816  10.588   8.063  0.0428  0.0189 -0.3312
  279loPI   C5A 4459   6.109  10.868   7.803  0.3003 -0.2634 -0.3799
  279loPI   C6A 4460   6.401  10.927   7.573  0.1503 -0.0270  0.0922
  279loPI   C1B 4461   6.163  10.517   8.984  0.3842 -0.0863  0.0277
  279loPI   C2B 4462   6.347  10.479   8.559  0.0083 -0.0449  0.2407
  279loPI   C3B 4463   6.460  10.725   8.133  0.1856  0.0866  0.3804
  279loPI   C4B 4464   6.943  10.864   8.040 -0.1545  0.0321 -0.2689
  280loPI    C1 4465   2.174   4.270  10.355 -0.0076  0.0251  0.2126
  280loPI    C2 4466   2.284   4.053  10.673 -0.0968  0.0401  0.2540
  280loPI    C3 4467   1.898   4.081  10.574 -0.0372 -0.3072 -0.1021
  280loPI   PO4 4468   2.399   4.309  10.056  0.0383 -0.3195  0.0933
  280loPI   GL1 4469   2.308   4.258   9.622 -0.1488 -0.0298 -0.1916
  280loPI   GL2 4470   2.608   4.119   9.471 -0.1027  0.1023 -0.2796
  280loPI   C1A 4471   2.224   4.120   9.134  0.0222  0.2868 -0.0960
  280loPI   C2A 4472   2.137   4.321   8.801  0.0698 -0.0597 -0.0755
  280loPI   C3A 4473   1.818   4.427   8.570 -0.1552 -0.0233 -0.0107
  280loPI   C4A 4474   1.740   4.494   8.161  0.1803 -0.5331  0.2594
  280loPI   C5A 4475   1.763   4.724   7.716  0.0820 -0.2599  0.0422
  280loPI   C6A 4476   2.234   4.888   7.568  0.1664 -0.1621  0.2196
  280loPI   C1B 4477   2.790   3.953   9.296 -0.0588  0.3211  0.2912
  280loPI   C2B 4478   2.919   3.828   8.926 -0.0852 -0.1111 -0.1557
  280loPI   C3B 4479   2.750   3.847   8.536  0.2628 -0.2640  0.3374
  280loPI   C4B 4480   2.711   3.954   8.072  0.0527  0.0644  0.1531
  281loPI    C1 4481   1.388   4.217   9.723  0.0072  0.0247 -0.1067
  281loPI    C2 4482   1.741   4.250   9.537  0.0953 -0.0841  0.0394
  281loPI    C3 4483   1.562   3.893   9.566  0.0609 -0.0601  0.1247
  281loPI   PO4 4484   1.269   4.410   9.630  0.0294  0.1318 -0.0417
  281loPI   GL1 4485   1.285   4.295   9.245  0.2874 -0.0055  0.0365
  281loPI   GL2 4486   1.591   4.426   9.083  0.0453 -0.3049 -0.1277
  281loPI   C1A 4487   1.247   3.933   9.031 -0.2515  0.1544  0.1075
  281loPI   C2A 4488   0.981   3.807   8.737 -0.1518 -0.0479 -0.2471
  281loPI   C3A 4489   0.770   3.956   8.363 -0.0205 -0.0243 -0.0161
  281loPI   C4A 4490   0.630   4.000   8.111  0.1118  0.2031 -0.0347
  281loPI   C5A 4491   0.356   3.951   7.755 -0.0025  0.2289 -0.1184
  281loPI   C6A 4492   0.065   4.209   7.510  0.3222  0.2224 -0.1650
  281loPI   C1B 4493   1.350   4.358   8.723  0.0179  0.1053 -0.1462
  281loPI   C2B 4494   1.261   4.012   8.409 -0.1180 -0.2523 -0.0784
  281loPI   C3B 4495   1.167   3.999   7.905 -0.2915 -0.1676 -0.1768
  281loPI   C4B 4496   1.210   3.789   7.461  0.0147  0.0313 -0.0251
  282loPI    C1 4497  17.365   8.714   9.799  0.2088 -0.0083 -0.0460
  282loPI    C2 4498  17.651   8.614  10.060  0.1450 -0.3653 -0.1079
  282loPI    C3 4499  17.734   8.860   9.755  0.3273 -0.2879  0.0031
  282loPI   PO4 4500  17.139   8.478   9.859 -0.0446  0.0277 -0.1730
  282loPI   GL1 4501  17.029   8.151   9.621  0.2461  0.1668 -0.0958
  282loPI   GL2 4502  17.124   8.320   9.350  0.1161  0.0711  0.0791
  282loPI   C1A 4503  17.139   7.809   9.295 -0.1050  0.0121 -0.1091
  282loPI   C2A 4504  17.299   7.809   8.917 -0.2409 -0.1768  0.0178
  282loPI   C3A 4505  17.307   7.632   8.518 -0.1516 -0.1945 -0.4126
  282loPI   C4A 4506  17.213   7.497   8.162 -0.1583 -0.1582  0.2452
  282loPI   C5A 4507  17.070   7.698   7.822  0.1885 -0.0339 -0.0398
  282loPI   C6A 4508  17.405   7.889   7.550 -0.1941  0.1937  0.1594
  282loPI   C1B 4509  17.164   8.306   8.889 -0.1972  0.0682  0.3647
  282loPI   C2B 4510  17.457   8.115   8.564 -0.1730  0.0929  0.2257
  282loPI   C3B 4511  17.432   8.104   8.045  0.0295  0.2058  0.0685
  282loPI   C4B 4512  16.993   8.243   7.774  0.0110  0.0528 -0.1987
  283loPI    C1 4513   4.651  13.808   9.888 -0.0750 -0.2513 -0.2264
  283loPI    C2 4514   4.912  13.508   9.847  0.0227 -0.1666 -0.2302
  283loPI    C3 4515   4.836  13.659  10.209  0.0072 -0.1661 -0.2336
  283loPI   PO4 4516   4.734  14.090   9.682  0.0794 -0.1330  0.0003
  283loPI   GL1 4517   4.782  14.076   9.281 -0.2549  0.0398 -0.0560
  283loPI   GL2 4518   4.993  13.826   9.299 -0.1505  0.1974 -0.3405
  283loPI   C1A 4519   4.546  14.186   8.946  0.0831 -0.0255  0.0165
  283loPI   C2A 4520   4.247  14.496   8.663 -0.1756  0.1337 -0.1663
  283loPI   C3A 4521   4.333  14.772   8.201  0.1963  0.1038  0.1666
  283loPI   C4A 4522   4.056  15.097   8.013 -0.0612 -0.4382  0.1726
  283loPI   C5A 4523   3.872  14.997   7.669 -0.0570 -0.0943  0.1775
  283loPI   C6A 4524   3.637  14.755   7.307  0.2253  0.1177 -0.2194
  283loPI   C1B 4525   4.942  13.887   8.847  0.2434  0.0486 -0.1155
  283loPI   C2B 4526   4.712  13.865   8.480  0.0034 -0.2744 -0.1988
  283loPI   C3B 4527   4.427  14.144   8.338  0.0863  0.1108  0.2693
  283loPI   C4B 4528   4.283  14.246   7.978 -0.5615  0.0625 -0.0231
  284loPI    C1 4529  14.747  18.035  10.353  0.0031  0.0821 -0.1789
  284loPI    C2 4530  14.778  17.637  10.367 -0.0747  0.0778 -0.1248
  284loPI    C3 4531  14.731  17.845  10.705  0.0398  0.1392 -0.1463
  284loPI   PO4 4532  14.667  18.097  10.143  0.0099  0.2717 -0.2820
  284loPI   GL1 4533  14.847  18.095   9.779  0.0485  0.4835  0.2356
  284loPI   GL2 4534  15.060  17.777   9.950  0.3006 -0.1464 -0.2359
  284loPI   C1A 4535  14.875  18.204   9.379  0.1491 -0.1725  0.0418
  284loPI   C2A 4536  14.996  18.224   9.009  0.1204 -0.0590 -0.2273
  284loPI   C3A 4537  15.008  18.237   8.520 -0.1449 -0.1185 -0.0722
  284loPI   C4A 4538  15.045  18.265   8.073  0.0035  0.0623  0.1572
  284loPI   C5A 4539  14.866  18.501   7.710 -0.0070 -0.1823  0.0197
  284loPI   C6A 4540  14.943  18.569   7.297 -0.0402 -0.1416  0.3400
  284loPI   C1B 4541  14.908  17.658   9.567 -0.0163  0.2886 -0.1415
  284loPI   C2B 4542  14.963  17.717   9.202  0.1179 -0.0061 -0.0770
  284loPI   C3B 4543  15.150  17.665   8.780  0.0962 -0.0235 -0.2829
  284loPI   C4B 4544  15.186  17.410   8.534 -0.1632  0.0915  0.4193
  285loPI    C1 4545  15.175   2.345  10.152 -0.1594  0.0726 -0.0867
  285loPI    C2 4546  15.387   2.495  10.456 -0.1859 -0.0602 -0.0022
  285loPI    C3 4547  15.050   2.293  10.528 -0.2183 -0.0497 -0.1228
  285loPI   PO4 4548  15.128   2.625   9.992  0.0814 -0.0508 -0.0907
  285loPI   GL1 4549  15.098   2.759   9.579 -0.1766 -0.0840 -0.1580
  285loPI   GL2 4550  14.832   2.990   9.552  0.0835  0.0355  0.4452
  285loPI   C1A 4551  14.882   2.705   9.128  0.0843  0.0570 -0.0710
  285loPI   C2A 4552  14.929   2.799   8.664  0.1478  0.0562  0.0960
  285loPI   C3A 4553  14.920   3.048   8.315 -0.0039 -0.0326  0.2652
  285loPI   C4A 4554  14.986   3.297   8.012  0.0107  0.2699  0.2233
  285loPI   C5A 4555  15.022   3.574   7.727 -0.1348 -0.2012  0.1598
  285loPI   C6A 4556  15.446   3.914   7.706  0.1185  0.0834 -0.0672
  285loPI   C1B 4557  14.982   3.225   9.305  0.2596  0.1575 -0.1793
  285loPI   C2B 4558  14.860   3.434   9.023 -0.1842 -0.0431  0.3780
  285loPI   C3B 4559  14.653   3.424   8.557  0.2252  0.0008 -0.3726
  285loPI   C4B 4560  14.534   3.432   8.111 -0.2132 -0.2042 -0.1162
  286loPI    C1 4561  15.778   4.810  10.271 -0.0192 -0.2799 -0.1177
  286loPI    C2 4562  15.892   4.530  10.009  0.2964  0.0523 -0.3452
  286loPI    C3 4563  16.166   4.760  10.188  0.0552  0.0822 -0.0054
  286loPI   PO4 4564  15.509   4.881  10.213  0.1099 -0.1400  0.0747
  286loPI   GL1 4565  15.118   4.861  10.026 -0.0007  0.1041 -0.0907
  286loPI   GL2 4566  15.301   5.029   9.822  0.0454  0.0976  0.0582
  286loPI   C1A 4567  14.894   4.863   9.678 -0.3386  0.2851 -0.3908
  286loPI   C2A 4568  15.001   4.889   9.255 -0.1055 -0.0455 -0.2479
  286loPI   C3A 4569  15.103   4.864   8.837 -0.1056 -0.0031  0.1067
  286loPI   C4A 4570  15.149   4.783   8.449 -0.1723 -0.0531 -0.0586
  286loPI   C5A 4571  15.378   4.889   8.029  0.1783  0.0807 -0.0322
  286loPI   C6A 4572  15.800   4.903   7.954  0.1178 -0.0929  0.1597
  286loPI   C1B 4573  15.442   4.897   9.425 -0.1804  0.1244  0.1440
  286loPI   C2B 4574  15.540   4.755   9.169  0.1455  0.1385 -0.2588
  286loPI   C3B 4575  15.601   5.003   8.803 -0.0666  0.1725  0.0579
  286loPI   C4B 4576  15.668   5.109   8.429  0.0146  0.2339  0.2282
  287loPI    C1 4577  11.883   0.988  10.248  0.1420  0.0627  0.0205
  287loPI    C2 4578  11.957   0.595  10.234  0.1527  0.0615  0.1019
  287loPI    C3 4579  11.844   0.765  10.578  0.0196  0.1071  0.0367
  287loPI   PO4 4580  12.014   1.065  10.082  0.2204  0.2143 -0.0408
  287loPI   GL1 4581  12.005   1.124   9.715  0.4003 -0.1251 -0.1545
  287loPI   GL2 4582  12.289   1.130   9.695  0.0588 -0.1412  0.2596
  287loPI   C1A 4583  12.047   1.359   9.314  0.0735 -0.0238  0.3910
  287loPI   C2A 4584  12.329   1.279   9.006 -0.3402 -0.2461  0.1333
  287loPI   C3A 4585  12.636   1.446   8.766 -0.0362  0.2388 -0.1279
  287loPI   C4A 4586  12.763   1.233   8.296 -0.2256 -0.0815  0.2639
  287loPI   C5A 4587  12.700   1.022   7.995  0.0880  0.4418  0.1942
  287loPI   C6A 4588  12.660   0.807   7.635  0.2194  0.2443 -0.0461
  287loPI   C1B 4589  12.278   0.825   9.288 -0.0783  0.3067 -0.4307
  287loPI   C2B 4590  12.194   0.872   8.786 -0.1216  0.1623 -0.5074
  287loPI   C3B 4591  12.315   1.072   8.455  0.1919 -0.0192 -0.0039
  287loPI   C4B 4592  12.363   1.507   8.264  0.0090 -0.3340  0.1913
  288loPI    C1 4593  13.962  14.730  10.116  0.1332  0.0745 -0.0532
  288loPI    C2 4594  13.617  14.871  10.263  0.1947  0.3303 -0.1498
  288loPI    C3 4595  13.868  14.670  10.500 -0.1672 -0.1466 -0.1578
  288loPI   PO4 4596  14.082  15.013   9.969  0.0162 -0.0960 -0.1025
  288loPI   GL1 4597  13.887  15.225   9.605  0.0051 -0.1792  0.2222
  288loPI   GL2 4598  14.229  15.361   9.553  0.0904 -0.4097 -0.2435
  288loPI   C1A 4599  13.878  14.979   9.317 -0.2597 -0.0588 -0.2582
  288loPI   C2A 4600  13.880  14.743   8.920  0.1569  0.3441 -0.4655
  288loPI   C3A 4601  13.842  14.650   8.472 -0.1337  0.0949 -0.0825
  288loPI   C4A 4602  13.751  14.517   8.024 -0.2541  0.0437 -0.3770
  288loPI   C5A 4603  13.443  14.293   7.740  0.1759 -0.0909  0.1008
  288loPI   C6A 4604  12.942  14.226   7.638  0.1230 -0.1295  0.0291
  288loPI   C1B 4605  14.326  15.035   9.146  0.3949 -0.2497 -0.1572
  288loPI   C2B 4606  14.360  14.691   8.805  0.0542 -0.0741 -0.0555
  288loPI   C3B 4607  14.336  14.611   8.433  0.3071  0.1047  0.1410
  288loPI   C4B 4608  14.231  14.595   8.051  0.2783  0.0254 -0.1442
  289loPI    C1 4609  13.358  12.086  10.224 -0.0832 -0.0203  0.0814
  289loPI    C2 4610  13.071  11.813  10.275 -0.1137  0.0092  0.0674
  289loPI    C3 4611  13.025  12.181  10.423 -0.2076  0.0981 -0.1783
  289loPI   PO4 4612  13.448  12.135   9.991  0.0062  0.1962  0.1480
  289loPI   GL1 4613  13.454  11.980   9.545 -0.0958 -0.2106  0.0051
  289loPI   GL2 4614  13.571  12.389   9.527  0.5723 -0.1896 -0.4709
  289loPI   C1A 4615  13.317  11.759   9.139  0.2111 -0.1744 -0.2190
  289loPI   C2A 4616  13.291  11.924   8.755 -0.0191 -0.3468 -0.1870
  289loPI   C3A 4617  13.235  11.726   8.372 -0.0390 -0.0072 -0.2331
  289loPI   C4A 4618  13.284  11.430   7.964  0.1049 -0.3441  0.0146
  289loPI   C5A 4619  13.048  11.458   7.564  0.2411  0.0932 -0.1018
  289loPI   C6A 4620  12.691  11.228   7.454  0.0637 -0.1199 -0.1687
  289loPI   C1B 4621  13.757  12.137   9.180  0.3420 -0.0813 -0.0124
  289loPI   C2B 4622  13.725  12.189   8.776  0.0386  0.1316  0.0576
  289loPI   C3B 4623  13.839  12.283   8.422  0.1241  0.1973  0.0640
  289loPI   C4B 4624  14.080  12.266   8.043 -0.0132  0.1344 -0.3362
  290loPI    C1 4625   9.928  17.697  10.165  0.0383  0.0700 -0.0066
  290loPI    C2 4626   9.634  17.458  10.295  0.1826 -0.1167 -0.0193
  290loPI    C3 4627   9.701  17.809  10.474  0.0820 -0.1645  0.1128
  290loPI   PO4 4628   9.912  17.660   9.930  0.1378  0.1424 -0.1835
  290loPI   GL1 4629   9.946  17.724   9.507 -0.3625 -0.1755 -0.1535
  290loPI   GL2 4630   9.869  17.520   9.380  0.3500  0.3411  0.0791
  290loPI   C1A 4631  10.145  17.815   9.095 -0.0380 -0.0546 -0.0479
  290loPI   C2A 4632  10.024  18.059   8.791  0.2510 -0.0215 -0.0458
  290loPI   C3A 4633  10.019  18.034   8.300  0.3031 -0.2348 -0.1947
  290loPI   C4A 4634  10.033  17.928   7.857  0.1313 -0.3528 -0.1389
  290loPI   C5A 4635   9.710  18.145   7.464 -0.0232 -0.1518 -0.0133
  290loPI   C6A 4636   9.588  18.107   7.066  0.0559  0.0249 -0.0442
  290loPI   C1B 4637   9.826  17.350   8.965 -0.0465 -0.0749  0.1250
  290loPI   C2B 4638   9.867  17.018   8.724  0.4499  0.5100  0.2995
  290loPI   C3B 4639   9.921  17.065   8.345 -0.1132  0.0884  0.0895
  290loPI   C4B 4640   9.855  16.937   7.955 -0.0844 -0.0496 -0.1589
  291loPI    C1 4641  10.184  11.351  10.622  0.0231  0.0854 -0.1109
  291loPI    C2 4642   9.931  11.531  10.874  0.1151  0.0194  0.0294
  291loPI    C3 4643  10.047  11.154  10.941  0.1719  0.0151 -0.0895
  291loPI   PO4 4644  10.066  11.479  10.344  0.2873  0.1377  0.1191
  291loPI   GL1 4645  10.102  11.514   9.914  0.2996  0.0305  0.0345
  291loPI   GL2 4646  10.330  11.394   9.741  0.4206 -0.0000 -0.2074
  291loPI   C1A 4647   9.763  11.594   9.588  0.0837 -0.0198  0.0862
  291loPI   C2A 4648   9.782  11.546   9.123  0.1150 -0.3162  0.0071
  291loPI   C3A 4649   9.742  11.504   8.687 -0.3367 -0.1131 -0.0815
  291loPI   C4A 4650   9.844  11.236   8.348 -0.0585  0.6190 -0.2701
  291loPI   C5A 4651   9.888  10.998   7.939  0.3005 -0.1851 -0.1656
  291loPI   C6A 4652   9.759  11.026   7.546 -0.1558  0.0524 -0.0502
  291loPI   C1B 4653  10.279  11.518   9.347 -0.1157  0.0213  0.0430
  291loPI   C2B 4654  10.225  11.376   8.900 -0.0305  0.0543 -0.1310
  291loPI   C3B 4655  10.319  11.290   8.478  0.0487 -0.2027 -0.3234
  291loPI   C4B 4656  10.351  11.050   8.189 -0.0420  0.1041  0.0248
  292loPI    C1 4657   1.716   0.950  10.630 -0.1165  0.0875 -0.2225
  292loPI    C2 4658   1.384   1.116  10.779  0.0050  0.2339 -0.1116
  292loPI    C3 4659   1.685   1.016  11.023  0.0935  0.2179 -0.2264
  292loPI   PO4 4660   1.750   0.973  10.419  0.0735 -0.0098 -0.0887
  292loPI   GL1 4661   1.649   1.034  10.002 -0.1725 -0.2913  0.1717
  292loPI   GL2 4662   2.072   0.926   9.987 -0.0094 -0.1258 -0.1942
  292loPI   C1A 4663   1.529   1.074   9.681  0.1583 -0.3515 -0.2275
  292loPI   C2A 4664   1.705   1.198   9.254  0.1920 -0.0784  0.0763
  292loPI   C3A 4665   1.678   1.524   8.960 -0.1781 -0.0046  0.1555
  292loPI   C4A 4666   1.532   1.566   8.528 -0.2025  0.4409  0.2180
  292loPI   C5A 4667   1.393   1.658   8.019 -0.0764 -0.1577 -0.1876
  292loPI   C6A 4668   1.740   1.657   7.898 -0.1176 -0.1920  0.0022
  292loPI   C1B 4669   2.089   1.139   9.618  0.1635  0.2005  0.0629
  292loPI   C2B 4670   2.179   1.176   9.192 -0.1307  0.1107 -0.2767
  292loPI   C3B 4671   2.114   1.232   8.832  0.0077  0.2225 -0.1677
  292loPI   C4B 4672   1.971   1.435   8.320  0.2126 -0.1146  0.0107
  293loPI    C1 4673   7.223   8.292  10.409  0.2734  0.1270 -0.0092
  293loPI    C2 4674   7.447   7.986  10.535 -0.1922 -0.2378 -0.0414
  293loPI    C3 4675   7.407   8.311  10.764 -0.0419 -0.3802  0.1912
  293loPI   PO4 4676   7.285   8.289  10.184 -0.2488  0.1807  0.2073
  293loPI   GL1 4677   7.393   8.535   9.845  0.2381  0.1626 -0.1197
  293loPI   GL2 4678   6.994   8.462   9.832 -0.2823 -0.1735 -0.0692
  293loPI   C1A 4679   7.678   8.749   9.635  0.1074  0.3115 -0.0429
  293loPI   C2A 4680   7.923   8.660   9.359  0.1047 -0.1306  0.0967
  293loPI   C3A 4681   7.974   8.568   8.878 -0.0289 -0.0074  0.2237
  293loPI   C4A 4682   8.015   8.729   8.453 -0.0140 -0.3209 -0.2284
  293loPI   C5A 4683   8.179   8.616   8.079 -0.2777  0.0645 -0.0794
  293loPI   C6A 4684   8.051   8.509   7.706 -0.0502 -0.1693  0.1527
  293loPI   C1B 4685   6.974   8.648   9.443  0.0143  0.0815 -0.1377
  293loPI   C2B 4686   6.823   8.552   9.158 -0.0591 -0.3444 -0.3267
  293loPI   C3B 4687   6.983   8.638   8.696 -0.1147 -0.1871 -0.2800
  293loPI   C4B 4688   7.014   8.530   8.373 -0.4034 -0.1832  0.0598
  294loPI    C1 4689  11.450   9.088  10.299 -0.0564 -0.1928 -0.1371
  294loPI    C2 4690  11.708   8.783  10.281  0.1655 -0.0198  0.0463
  294loPI    C3 4691  11.498   8.848  10.615 -0.0103 -0.0736 -0.0526
  294loPI   PO4 4692  11.480   9.179  10.100  0.2348  0.1504 -0.2499
  294loPI   GL1 4693  11.580   9.038   9.747 -0.0749 -0.0987  0.1664
  294loPI   GL2 4694  11.372   9.274   9.562 -0.2523 -0.1320  0.0873
  294loPI   C1A 4695  11.578   8.779   9.430 -0.0506  0.0111 -0.3539
  294loPI   C2A 4696  11.338   8.847   9.069  0.1339 -0.0500  0.2098
  294loPI   C3A 4697  11.396   8.751   8.657  0.1775 -0.3092 -0.0523
  294loPI   C4A 4698  11.391   8.750   8.217  0.0005 -0.2436  0.1788
  294loPI   C5A 4699  11.231   8.816   7.813 -0.1169  0.0051  0.4820
  294loPI   C6A 4700  10.893   8.673   7.557 -0.0585 -0.0058 -0.0211
  294loPI   C1B 4701  11.364   9.318   9.229 -0.3024  0.0635  0.4024
  294loPI   C2B 4702  11.340   9.234   8.781  0.3193 -0.1891 -0.0466
  294loPI   C3B 4703  11.382   9.215   8.395  0.0207  0.0166 -0.1361
  294loPI   C4B 4704  11.298   9.319   7.971 -0.0839  0.1141  0.0588
  295loPI    C1 4705  15.252  17.689  10.431  0.0594 -0.2777 -0.0401
  295loPI    C2 4706  15.362  17.712  10.815 -0.0765 -0.0119 -0.0143
  295loPI    C3 4707  15.198  18.029  10.634 -0.0578 -0.1500 -0.2797
  295loPI   PO4 4708  15.404  17.481  10.383 -0.1695 -0.3592  0.0732
  295loPI   GL1 4709  15.538  17.138   9.987  0.2417 -0.0515 -0.1355
  295loPI   GL2 4710  15.532  17.397   9.862 -0.0519  0.0007 -0.1097
  295loPI   C1A 4711  15.559  16.870   9.564  0.0452  0.3453  0.2237
  295loPI   C2A 4712  15.523  16.977   9.085 -0.0142 -0.0731 -0.2999
  295loPI   C3A 4713  15.581  17.052   8.695  0.0284 -0.3458 -0.0360
  295loPI   C4A 4714  15.508  16.989   8.340  0.0363  0.3621  0.0096
  295loPI   C5A 4715  15.658  16.880   7.892 -0.1386 -0.0610 -0.1431
  295loPI   C6A 4716  15.552  16.676   7.487 -0.1820 -0.0366  0.1828
  295loPI   C1B 4717  15.431  17.524   9.483  0.0846  0.3225  0.1712
  295loPI   C2B 4718  15.516  17.470   9.051  0.0986  0.0284 -0.1412
  295loPI   C3B 4719  15.673  17.559   8.665  0.0178 -0.2347 -0.3604
  295loPI   C4B 4720  15.710  17.472   8.249  0.0204 -0.0851  0.2285
  296loPI    C1 4721   4.799   1.843  10.706  0.3893  0.1378  0.0246
  296loPI    C2 4722   4.774   1.601  11.023  0.2023 -0.0523 -0.1319
  296loPI    C3 4723   5.055   1.885  11.010  0.2755 -0.1079  0.1576
  296loPI   PO4 4724   4.830   1.636  10.445  0.1211  0.1269  0.0757
  296loPI   GL1 4725   4.949   1.732  10.056  0.3827 -0.1999 -0.0627
  296loPI   GL2 4726   4.731   1.663   9.926  0.0299 -0.0219  0.2763
  296loPI   C1A 4727   5.140   1.460   9.801  0.1654  0.0590  0.0447
  296loPI   C2A 4728   5.209   1.347   9.382 -0.2286 -0.0257 -0.0299
  296loPI   C3A 4729   4.896   1.396   9.095  0.3514  0.0097  0.0329
  296loPI   C4A 4730   4.455   1.294   8.970  0.3724 -0.3528 -0.1142
  296loPI   C5A 4731   4.357   1.258   8.545  0.0484  0.0585  0.0419
  296loPI   C6A 4732   4.304   1.080   8.189  0.1250 -0.1844 -0.0107
  296loPI   C1B 4733   4.903   1.746   9.479  0.0561  0.0769  0.1821
  296loPI   C2B 4734   5.019   1.988   9.144  0.0948  0.2459 -0.1762
  296loPI   C3B 4735   5.046   2.064   8.732  0.1613 -0.3655 -0.2597
  296loPI   C4B 4736   5.003   1.998   8.277  0.0877  0.0212 -0.2597
  297loPI    C1 4737   5.269  15.381  10.249 -0.0725  0.2703  0.0311
  297loPI    C2 4738   4.950  15.312  10.480 -0.0410  0.0405  0.0074
  297loPI    C3 4739   5.310  15.362  10.646 -0.0738  0.2109  0.0284
  297loPI   PO4 4740   4.993  15.580  10.049 -0.2117 -0.3224  0.1260
  297loPI   GL1 4741   5.023  15.760   9.582 -0.0652  0.0253  0.1315
  297loPI   GL2 4742   4.693  15.744   9.394  0.0083  0.2722 -0.1817
  297loPI   C1A 4743   5.196  15.504   9.198 -0.3260  0.2131  0.3012
  297loPI   C2A 4744   5.576  15.434   8.849 -0.1000  0.0111  0.1346
  297loPI   C3A 4745   5.577  15.435   8.555 -0.0445  0.0687 -0.2968
  297loPI   C4A 4746   5.679  15.473   8.066 -0.0054  0.1218  0.3618
  297loPI   C5A 4747   5.654  15.311   7.706  0.0332 -0.0140  0.1911
  297loPI   C6A 4748   5.954  15.132   7.390  0.0580 -0.0913  0.1276
  297loPI   C1B 4749   4.847  15.838   8.892  0.0489  0.0511  0.1955
  297loPI   C2B 4750   4.931  16.013   8.482  0.2984  0.1360 -0.0516
  297loPI   C3B 4751   4.748  16.205   8.129 -0.0525  0.0461 -0.2804
  297loPI   C4B 4752   4.704  16.393   7.842  0.3072 -0.2792 -0.0318
  298loPI    C1 4753   5.615   9.153   9.926 -0.1783 -0.0593 -0.0188
  298loPI    C2 4754   5.622   9.457  10.185 -0.0250 -0.0657 -0.0148
  298loPI    C3 4755   5.610   9.080  10.319 -0.2353 -0.0621 -0.0198
  298loPI   PO4 4756   5.764   9.174   9.730 -0.2224  0.1096 -0.0375
  298loPI   GL1 4757   5.650   9.394   9.352  0.1333 -0.1970 -0.0576
  298loPI   GL2 4758   5.930   9.605   9.463 -0.3195 -0.0570  0.2210
  298loPI   C1A 4759   5.744   9.343   8.817 -0.2116  0.0322 -0.0938
  298loPI   C2A 4760   5.726   9.571   8.412 -0.0157  0.0872  0.2402
  298loPI   C3A 4761   5.500   9.591   8.035  0.0846  0.1868 -0.1277
  298loPI   C4A 4762   5.284   9.367   7.653  0.1426  0.0406 -0.0859
  298loPI   C5A 4763   5.042   9.268   7.398 -0.0400  0.1736 -0.0596
  298loPI   C6A 4764   4.629   9.423   7.241 -0.0487  0.1929  0.5032
  298loPI   C1B 4765   6.168   9.537   9.106  0.0981  0.2448 -0.1850
  298loPI   C2B 4766   6.296   9.718   8.641 -0.0499  0.4883 -0.0922
  298loPI   C3B 4767   6.222   9.908   8.285  0.1637  0.1232  0.0683
  298loPI   C4B 4768   6.247  10.242   8.047  0.0711 -0.1334 -0.2081
  299loPI    C1 4769   4.677  12.351  10.213  0.1097  0.0826 -0.1595
  299loPI    C2 4770   4.311  12.465  10.326  0.0504 -0.2207 -0.0363
  299loPI    C3 4771   4.596  12.409  10.601  0.1785 -0.0282 -0.1281
  299loPI   PO4 4772   4.699  12.539  10.006 -0.1222 -0.1022 -0.2426
  299loPI   GL1 4773   4.578  12.391   9.671 -0.0145  0.0932 -0.0736
  299loPI   GL2 4774   4.335  12.284   9.484  0.0305  0.1399  0.0679
  299loPI   C1A 4775   4.776  12.482   9.278  0.1174 -0.2375  0.2018
  299loPI   C2A 4776   4.737  12.507   8.837  0.0629 -0.0497  0.2625
  299loPI   C3A 4777   4.920  12.535   8.399  0.0026 -0.2680 -0.1229
  299loPI   C4A 4778   5.075  12.469   8.012 -0.1099 -0.0451 -0.0151
  299loPI   C5A 4779   5.189  12.551   7.633  0.0341 -0.1450  0.2525
  299loPI   C6A 4780   4.906  12.753   7.352  0.2670  0.0008 -0.0078
  299loPI   C1B 4781   4.328  12.351   9.077 -0.1414 -0.0376  0.1631
  299loPI   C2B 4782   4.320  12.377   8.594  0.1552  0.0584 -0.0972
  299loPI   C3B 4783   4.336  12.363   8.097  0.0515 -0.2465  0.0171
  299loPI   C4B 4784   4.538  12.551   7.766  0.2315 -0.0019 -0.2713
  300loPI    C1 4785   9.016  10.609  10.301  0.1126  0.1195 -0.1048
  300loPI    C2 4786   8.833  10.965  10.281 -0.1598  0.0064  0.2536
  300loPI    C3 4787   8.874  10.781  10.634  0.1434 -0.2368  0.0971
  300loPI   PO4 4788   8.895  10.492  10.163 -0.1611  0.1809  0.1437
  300loPI   GL1 4789   8.923  10.366   9.689 -0.2541  0.0595  0.3770
  300loPI   GL2 4790   8.880  10.079   9.470  0.2111 -0.2819 -0.4681
  300loPI   C1A 4791   8.704  10.454   9.247 -0.1806  0.2108  0.0352
  300loPI   C2A 4792   8.791  10.512   8.842  0.0738  0.2620  0.1624
  300loPI   C3A 4793   8.692  10.777   8.400 -0.0114 -0.1351 -0.1176
  300loPI   C4A 4794   8.899  10.947   8.086 -0.0621  0.0628  0.0793
  300loPI   C5A 4795   8.761  11.361   7.899  0.0329  0.1695  0.2418
  300loPI   C6A 4796   8.415  11.539   8.022 -0.0696  0.0672 -0.1642
  300loPI   C1B 4797   8.881  10.020   9.079 -0.1608  0.2367 -0.2129
  300loPI   C2B 4798   8.994  10.088   8.497 -0.1156 -0.1640 -0.4231
  300loPI   C3B 4799   8.861  10.013   7.977  0.3491 -0.0875 -0.0382
  300loPI   C4B 4800   8.915  10.056   7.599  0.2700  0.0513 -0.2053
  301loPI    C1 4801   4.389   8.526  10.179  0.1179  0.1733 -0.0541
  301loPI    C2 4802   4.647   8.710  10.423 -0.0114 -0.0322  0.2436
  301loPI    C3 4803   4.402   8.428  10.567 -0.1625 -0.0841 -0.1058
  301loPI   PO4 4804   4.285   8.702  10.051 -0.0642  0.3622  0.1418
  301loPI   GL1 4805   4.170   8.809   9.672 -0.0796  0.0303  0.1999
  301loPI   GL2 4806   4.412   8.999   9.481 -0.1616  0.0027  0.2468
  301loPI   C1A 4807   4.177   8.480   9.335  0.0353 -0.1230 -0.2580
  301loPI   C2A 4808   4.235   8.409   8.904  0.0100  0.1295 -0.1186
  301loPI   C3A 4809   4.290   8.267   8.482  0.0237 -0.0572 -0.1324
  301loPI   C4A 4810   4.441   8.181   8.079 -0.3772 -0.0012  0.1654
  301loPI   C5A 4811   4.620   7.956   7.783 -0.0513  0.0094 -0.2883
  301loPI   C6A 4812   5.084   7.752   7.691  0.0862 -0.2298  0.2495
  301loPI   C1B 4813   4.403   8.939   9.091  0.0666 -0.3179  0.1460
  301loPI   C2B 4814   4.407   8.859   8.749 -0.1072 -0.0943  0.2750
  301loPI   C3B 4815   4.684   8.682   8.424  0.0485 -0.1768 -0.1334
  301loPI   C4B 4816   4.736   8.603   7.984 -0.0763  0.0780  0.0431
  302loPI    C1 4817  13.005   4.504  10.791 -0.1018 -0.1821 -0.0484
  302loPI    C2 4818  13.189   4.853  10.858 -0.2257 -0.1223 -0.0164
  302loPI    C3 4819  13.236   4.550  11.115 -0.1161 -0.1304 -0.0454
  302loPI   PO4 4820  13.118   4.410  10.538  0.0963  0.2057 -0.0110
  302loPI   GL1 4821  13.098   4.593  10.201  0.0211 -0.1952  0.0212
  302loPI   GL2 4822  13.277   4.887  10.275  0.1049  0.0373 -0.0410
  302loPI   C1A 4823  13.362   4.414   9.930  0.1829  0.1561 -0.0372
  302loPI   C2A 4824  13.691   4.292   9.587  0.1587  0.1912 -0.0707
  302loPI   C3A 4825  13.793   4.061   9.202  0.0464 -0.1612 -0.0645
  302loPI   C4A 4826  13.773   4.061   8.696  0.1935  0.3855 -0.1165
  302loPI   C5A 4827  13.866   3.955   8.297  0.0039 -0.2215  0.1707
  302loPI   C6A 4828  13.960   3.724   7.923  0.3816 -0.1253  0.2553
  302loPI   C1B 4829  13.141   4.859   9.829 -0.1947 -0.0248  0.5850
  302loPI   C2B 4830  13.020   4.892   9.399 -0.0139  0.0468 -0.0212
  302loPI   C3B 4831  12.909   4.528   9.106 -0.0442  0.1591 -0.5056
  302loPI   C4B 4832  12.937   4.340   8.698 -0.2812  0.1253  0.2211
  303loPI    C1 4833  11.999   5.778  10.191 -0.3061  0.0642  0.0527
  303loPI    C2 4834  12.246   5.820  10.502 -0.1955 -0.1200 -0.0084
  303loPI    C3 4835  11.945   6.078  10.449 -0.0914  0.0331  0.1356
  303loPI   PO4 4836  11.875   5.530  10.120  0.2983 -0.0463 -0.2631
  303loPI   GL1 4837  11.788   5.428   9.782  0.1366 -0.2406  0.2953
  303loPI   GL2 4838  11.512   5.104   9.726  0.0673 -0.1265 -0.2984
  303loPI   C1A 4839  12.217   5.279   9.637  0.3220  0.0464 -0.0423
  303loPI   C2A 4840  12.312   4.950   9.558 -0.0154 -0.0339 -0.1104
  303loPI   C3A 4841  12.475   4.589   9.288  0.3339  0.2139 -0.0472
  303loPI   C4A 4842  12.498   4.494   8.822  0.2264 -0.1271 -0.5503
  303loPI   C5A 4843  12.630   4.517   8.365 -0.0814 -0.0962 -0.0053
  303loPI   C6A 4844  12.511   4.452   7.937  0.5456 -0.0195 -0.0833
  303loPI   C1B 4845  11.814   5.047   9.359  0.1822 -0.0091 -0.0515
  303loPI   C2B 4846  12.153   5.109   9.093  0.0478  0.3425 -0.0533
  303loPI   C3B 4847  12.128   4.892   8.766 -0.0372 -0.2071  0.1059
  303loPI   C4B 4848  12.061   4.399   8.716  0.0029 -0.0043 -0.2508
  304loPI    C1 4849  14.408   8.998   9.944 -0.1181 -0.1201 -0.1202
  304loPI    C2 4850  14.603   8.723  10.160  0.2324  0.1905 -0.0316
  304loPI    C3 4851  14.219   8.806  10.240  0.2305 -0.0119  0.1790
  304loPI   PO4 4852  14.645   9.171   9.834 -0.0384 -0.0199 -0.0141
  304loPI   GL1 4853  14.657   9.369   9.447 -0.0175  0.0347 -0.1295
  304loPI   GL2 4854  14.632   8.960   9.368 -0.3800  0.0223  0.0371
  304loPI   C1A 4855  14.689   9.533   8.962  0.1302  0.0221 -0.1651
  304loPI   C2A 4856  14.649   9.560   8.647 -0.0213 -0.0349 -0.0042
  304loPI   C3A 4857  14.833   9.847   8.459  0.2286 -0.1196 -0.0766
  304loPI   C4A 4858  15.012  10.158   8.104 -0.0705 -0.1053  0.0646
  304loPI   C5A 4859  15.304  10.021   7.795 -0.0567 -0.0326 -0.0427
  304loPI   C6A 4860  15.298  10.213   7.383 -0.3002  0.0896  0.1302
  304loPI   C1B 4861  14.656   8.996   8.843 -0.2426  0.0760  0.3033
  304loPI   C2B 4862  14.415   8.846   8.380  0.1081  0.1236  0.1592
  304loPI   C3B 4863  14.706   8.825   8.023  0.1572  0.2653  0.1177
  304loPI   C4B 4864  15.141   8.881   7.810 -0.3603 -0.0929 -0.3074
  305loPI    C1 4865   6.965   7.112  10.184 -0.2583 -0.1255 -0.0606
  305loPI    C2 4866   6.789   6.909  10.480  0.0004 -0.2208  0.0302
  305loPI    C3 4867   7.135   7.097  10.546 -0.1220  0.0612 -0.1158
  305loPI   PO4 4868   6.970   6.979   9.873  0.1797 -0.0152 -0.0246
  305loPI   GL1 4869   6.726   7.139   9.479 -0.0308  0.0179  0.2990
  305loPI   GL2 4870   6.495   7.191   9.575  0.0514 -0.3180 -0.0347
  305loPI   C1A 4871   6.755   7.115   9.018 -0.1607  0.0676 -0.1589
  305loPI   C2A 4872   6.487   7.187   8.601  0.1586 -0.3802  0.0709
  305loPI   C3A 4873   6.552   7.343   8.214  0.0555 -0.1099  0.3627
  305loPI   C4A 4874   6.878   7.692   8.000 -0.0215 -0.3672  0.1551
  305loPI   C5A 4875   7.022   8.127   8.035  0.0716 -0.1561 -0.3188
  305loPI   C6A 4876   7.100   8.535   7.694 -0.1744 -0.1499  0.0130
  305loPI   C1B 4877   6.180   7.104   9.196  0.1351 -0.4041  0.1191
  305loPI   C2B 4878   6.074   7.304   8.878 -0.1784 -0.0398 -0.0772
  305loPI   C3B 4879   6.004   7.579   8.517  0.0101 -0.1447 -0.0593
  305loPI   C4B 4880   5.633   7.673   8.296 -0.0037 -0.0165  0.0004
  306loPI    C1 4881   6.277   0.311  10.348 -0.2573  0.1544  0.0558
  306loPI    C2 4882   6.449   0.658  10.447  0.2663 -0.0288 -0.1742
  306loPI    C3 4883   6.492   0.339  10.684 -0.0767  0.0162 -0.0460
  306loPI   PO4 4884   6.352   0.265  10.049  0.0339 -0.3668 -0.2021
  306loPI   GL1 4885   6.579   0.115   9.880  0.2206 -0.1134  0.2018
  306loPI   GL2 4886   6.616  -0.270   9.858 -0.1038  0.2320 -0.2043
  306loPI   C1A 4887   6.486   0.347   9.428  0.2683 -0.0865  0.4267
  306loPI   C2A 4888   6.338   0.686   9.117  0.0367  0.0821  0.3293
  306loPI   C3A 4889   6.446   0.833   8.649  0.0023 -0.0700  0.0611
  306loPI   C4A 4890   6.681   1.102   8.217  0.2171  0.2485  0.0970
  306loPI   C5A 4891   6.933   1.482   8.015 -0.2763  0.4462  0.4170
  306loPI   C6A 4892   7.267   1.606   7.751 -0.0428  0.1066 -0.0182
  306loPI   C1B 4893   6.382  -0.230   9.405  0.0513  0.1287  0.1833
  306loPI   C2B 4894   6.363  -0.114   9.043  0.2526 -0.0885  0.0800
  306loPI   C3B 4895   6.305  -0.008   8.554  0.1528  0.0356 -0.1111
  306loPI   C4B 4896   6.505  -0.055   8.167  0.2517  0.1400  0.1053
  307loPI    C1 4897  15.003   4.137  10.308  0.0844 -0.0449  0.0799
  307loPI    C2 4898  14.922   4.316  10.657  0.0366 -0.0192  0.0557
  307loPI    C3 4899  14.862   3.922  10.614 -0.2728  0.0346 -0.0248
  307loPI   PO4 4900  15.109   4.342  10.097  0.2133 -0.1394 -0.2340
  307loPI   GL1 4901  15.258   4.347   9.822 -0.3371 -0.0081 -0.0847
  307loPI   GL2 4902  15.499   4.495   9.762  0.2456 -0.0102 -0.0545
  307loPI   C1A 4903  15.088   4.392   9.472  0.0494 -0.4029  0.1609
  307loPI   C2A 4904  15.028   4.420   9.039  0.2370  0.1003 -0.7202
  307loPI   C3A 4905  15.066   4.302   8.491 -0.1127 -0.3144  0.2532
  307loPI   C4A 4906  15.277   4.246   8.135  0.0324  0.0831  0.0866
  307loPI   C5A 4907  15.533   4.457   7.830  0.0513  0.1556 -0.1321
  307loPI   C6A 4908  15.555   4.778   7.555  0.0856  0.0235  0.0971
  307loPI   C1B 4909  15.832   4.455   9.523 -0.2023  0.0872  0.2630
  307loPI   C2B 4910  15.894   4.474   9.067 -0.1648  0.0809 -0.2488
  307loPI   C3B 4911  16.025   4.205   8.599  0.1665 -0.3471 -0.3598
  307loPI   C4B 4912  16.250   4.012   8.262  0.0794 -0.0185  0.2326
  308loPI    C1 4913   4.843  16.059  10.283  0.1435  0.1663  0.0075
  308loPI    C2 4914   5.023  15.825  10.554 -0.0852  0.2093  0.1993
  308loPI    C3 4915   4.649  15.745  10.437 -0.0934  0.3634  0.1170
  308loPI   PO4 4916   4.909  16.099   9.907  0.3271  0.2088 -0.4713
  308loPI   GL1 4917   4.996  16.339   9.597  0.0041 -0.0039 -0.0368
  308loPI   GL2 4918   4.731  16.235   9.463  0.0289 -0.0511  0.0930
  308loPI   C1A 4919   4.902  16.741   9.275 -0.3180 -0.0867 -0.2356
  308loPI   C2A 4920   5.107  16.927   8.948  0.0004 -0.2076 -0.0609
  308loPI   C3A 4921   5.230  16.868   8.489 -0.1134 -0.2268 -0.0007
  308loPI   C4A 4922   5.053  16.621   8.143 -0.0138 -0.2027 -0.2914
  308loPI   C5A 4923   5.214  16.304   7.935 -0.0318 -0.0294 -0.0679
  308loPI   C6A 4924   5.129  16.012   7.622 -0.0310 -0.4447  0.0494
  308loPI   C1B 4925   4.759  16.303   9.001  0.0210 -0.2106  0.3122
  308loPI   C2B 4926   4.711  16.436   8.598  0.1154  0.1062 -0.0282
  308loPI   C3B 4927   4.499  16.604   8.324  0.1795 -0.3696  0.1785
  308loPI   C4B 4928   4.460  16.842   8.036  0.2044  0.0903 -0.0422
  309loPI    C1 4929  15.683   6.300  10.193 -0.0914 -0.2339  0.0213
  309loPI    C2 4930  15.446   6.137  10.471 -0.1413 -0.0042  0.1157
  309loPI    C3 4931  15.826   6.229  10.560 -0.1160 -0.0599  0.0656
  309loPI   PO4 4932  15.452   6.286   9.948 -0.0041  0.0362  0.2991
  309loPI   GL1 4933  15.355   5.995   9.612 -0.3983 -0.2610 -0.4555
  309loPI   GL2 4934  15.778   6.022   9.688 -0.2038  0.0024 -0.3001
  309loPI   C1A 4935  15.351   5.988   9.213  0.0453  0.0899 -0.0684
  309loPI   C2A 4936  15.073   6.014   8.914 -0.2696 -0.1703 -0.2581
  309loPI   C3A 4937  14.796   6.116   8.783 -0.2776 -0.2614 -0.0060
  309loPI   C4A 4938  14.527   6.094   8.464 -0.0261 -0.0536 -0.2916
  309loPI   C5A 4939  14.175   6.454   8.385 -0.0632 -0.1431  0.1041
  309loPI   C6A 4940  13.882   6.778   8.427  0.2301  0.1468  0.2040
  309loPI   C1B 4941  15.768   5.803   9.283 -0.0207 -0.1089 -0.0224
  309loPI   C2B 4942  15.664   5.786   8.840  0.0351 -0.3925 -0.0095
  309loPI   C3B 4943  15.417   5.832   8.463 -0.0521  0.0891 -0.4894
  309loPI   C4B 4944  15.341   5.724   8.077  0.0174  0.4781 -0.1380
  310loPI    C1 4945  12.202  17.851  10.266  0.0372  0.1668 -0.0664
  310loPI    C2 4946  12.127  17.655  10.606 -0.0422 -0.0900 -0.2291
  310loPI    C3 4947  12.089  18.053  10.592 -0.2318 -0.0971  0.0084
  310loPI   PO4 4948  12.302  17.713  10.103  0.0174  0.2590  0.0164
  310loPI   GL1 4949  12.573  17.752   9.779  0.1141 -0.0663  0.1265
  310loPI   GL2 4950  12.902  17.723   9.643  0.2395  0.0137  0.0218
  310loPI   C1A 4951  12.489  17.723   9.387 -0.0628  0.2322  0.0127
  310loPI   C2A 4952  12.463  17.845   8.981 -0.0124 -0.0303 -0.2430
  310loPI   C3A 4953  12.654  18.067   8.587  0.1533 -0.1118  0.0641
  310loPI   C4A 4954  12.658  18.259   8.229  0.0074 -0.1978 -0.0386
  310loPI   C5A 4955  12.682  18.215   7.806 -0.2714 -0.4672  0.0153
  310loPI   C6A 4956  12.297  18.258   7.515  0.0475  0.3117  0.0239
  310loPI   C1B 4957  12.932  17.866   9.210  0.1777  0.2179  0.2827
  310loPI   C2B 4958  13.106  17.813   8.776  0.1557 -0.0999  0.0502
  310loPI   C3B 4959  13.200  17.963   8.393 -0.0862 -0.0315  0.1098
  310loPI   C4B 4960  13.184  17.905   8.037 -0.1805 -0.1225 -0.0612
  311loPI    C1 4961   1.478   1.403  10.328  0.2085 -0.0241  0.0671
  311loPI    C2 4962   1.520   1.538   9.954 -0.1113 -0.0249  0.0288
  311loPI    C3 4963   1.622   1.771  10.262  0.1454 -0.0212 -0.0565
  311loPI   PO4 4964   1.231   1.298  10.293 -0.0006  0.0695 -0.2434
  311loPI   GL1 4965   1.084   1.127   9.947 -0.3614 -0.2622  0.0319
  311loPI   GL2 4966   0.864   1.360   9.914 -0.4902  0.2764 -0.1506
  311loPI   C1A 4967   1.034   1.046   9.547  0.2261  0.1741  0.2232
  311loPI   C2A 4968   1.214   1.006   9.104 -0.1013  0.0373  0.1266
  311loPI   C3A 4969   1.415   1.129   8.792  0.0128 -0.0890  0.1152
  311loPI   C4A 4970   1.758   1.025   8.511 -0.0368  0.0282 -0.1290
  311loPI   C5A 4971   2.052   1.016   8.162  0.3251  0.3565  0.2378
  311loPI   C6A 4972   2.202   1.448   7.889  0.3763 -0.0745 -0.1119
  311loPI   C1B 4973   0.858   1.475   9.478  0.1883 -0.1758 -0.1748
  311loPI   C2B 4974   0.755   1.809   9.193  0.0043  0.2996 -0.1092
  311loPI   C3B 4975   0.542   1.646   8.777  0.1764  0.0062  0.0396
  311loPI   C4B 4976   0.549   1.571   8.353  0.1148  0.2637  0.1111
  312loPI    C1 4977   5.483   2.115  10.650  0.1149  0.1022  0.0054
  312loPI    C2 4978   5.308   1.769  10.549 -0.0831  0.0951  0.3526
  312loPI    C3 4979   5.662   1.768  10.736  0.0347  0.0920  0.1342
  312loPI   PO4 4980   5.565   2.313  10.365 -0.0293  0.2152  0.0832
  312loPI   GL1 4981   5.322   2.621  10.071  0.1392 -0.0147 -0.1537
  312loPI   GL2 4982   5.104   2.386   9.934 -0.3119  0.2440 -0.0276
  312loPI   C1A 4983   5.318   2.647   9.565 -0.2486  0.4704  0.2156
  312loPI   C2A 4984   5.437   2.750   9.132 -0.0424  0.1924 -0.3267
  312loPI   C3A 4985   5.419   2.831   8.736  0.1429  0.0354  0.0078
  312loPI   C4A 4986   5.688   3.024   8.348  0.0561 -0.1308 -0.0291
  312loPI   C5A 4987   5.577   3.239   7.918  0.3955  0.0319  0.0329
  312loPI   C6A 4988   5.692   3.513   7.514 -0.1569  0.1822 -0.1578
  312loPI   C1B 4989   5.196   2.099   9.633  0.3832 -0.2539 -0.0137
  312loPI   C2B 4990   5.464   2.223   9.306  0.0243  0.1650  0.1148
  312loPI   C3B 4991   5.502   2.165   8.864 -0.0547 -0.2504 -0.1746
  312loPI   C4B 4992   5.632   1.921   8.534  0.2016 -0.1487  0.0523
  313loPI    C1 4993  12.969   1.145  10.408 -0.1481 -0.0169 -0.0559
  313loPI    C2 4994  12.854   1.494  10.566 -0.0311  0.0612 -0.1425
  313loPI    C3 4995  13.111   1.261  10.764 -0.1569 -0.0051 -0.0563
  313loPI   PO4 4996  12.966   1.226  10.177 -0.1036 -0.4451 -0.0907
  313loPI   GL1 4997  13.364   1.250   9.773  0.0869  0.0433  0.0749
  313loPI   GL2 4998  13.725   1.217   9.868  0.2916  0.1412  0.0604
  313loPI   C1A 4999  13.254   1.034   9.370 -0.0433  0.1794  0.1754
  313loPI   C2A 5000  13.315   0.895   8.963 -0.3377  0.0590  0.0796
  313loPI   C3A 5001  13.209   0.913   8.493 -0.1873 -0.0117 -0.0385
  313loPI   C4A 5002  13.156   0.841   8.060 -0.1504 -0.0915 -0.5561
  313loPI   C5A 5003  13.095   0.482   7.818  0.0706 -0.0355  0.3185
  313loPI   C6A 5004  12.795   0.296   7.521  0.0435 -0.0562  0.1288
  313loPI   C1B 5005  13.746   1.355   9.463 -0.1033 -0.1590  0.0071
  313loPI   C2B 5006  13.672   1.264   9.124 -0.2069 -0.1324  0.0722
  313loPI   C3B 5007  13.704   1.127   8.746  0.0394 -0.1552 -0.2110
  313loPI   C4B 5008  13.733   1.189   8.307 -0.1891  0.2957 -0.2603
  314loPI    C1 5009  10.908  10.878  10.157 -0.1390  0.2342  0.1018
  314loPI    C2 5010  11.040  11.202  10.351  0.1802  0.1546  0.0245
  314loPI    C3 5011  10.953  10.868  10.554 -0.2709  0.3220  0.1195
  314loPI   PO4 5012  10.766  10.877   9.935  0.0479  0.2485  0.0276
  314loPI   GL1 5013  10.815  10.911   9.533 -0.4465  0.1346 -0.4927
  314loPI   GL2 5014  10.953  10.521   9.684 -0.3215 -0.1011 -0.0734
  314loPI   C1A 5015  10.777  10.562   9.197  0.1515  0.1153 -0.1754
  314loPI   C2A 5016  10.835  10.390   8.792 -0.2216  0.0771  0.2757
  314loPI   C3A 5017  10.996  10.545   8.465 -0.0595 -0.1780  0.0390
  314loPI   C4A 5018  11.060  10.453   8.130 -0.1990  0.2985  0.0133
  314loPI   C5A 5019  11.401  10.376   7.841  0.3939 -0.1141  0.1171
  314loPI   C6A 5020  11.260  10.100   7.548 -0.0685  0.1797 -0.2795
  314loPI   C1B 5021  11.207  10.336   9.352  0.0520 -0.0644  0.1604
  314loPI   C2B 5022  11.237  10.219   8.934 -0.2294 -0.0115 -0.0822
  314loPI   C3B 5023  11.476  10.453   8.632 -0.0947  0.2087  0.5157
  314loPI   C4B 5024  11.716  10.617   8.341  0.0923  0.1875  0.3751
  315loPI    C1 5025  17.326   9.153  10.187  0.1350 -0.1436 -0.1755
  315loPI    C2 5026  17.725   9.172  10.172  0.1455  0.0129  0.1908
  315loPI    C3 5027  17.546   8.942  10.445 -0.0156  0.1790  0.2270
  315loPI   PO4 5028  17.245   9.187  10.040  0.0918 -0.2772  0.4313
  315loPI   GL1 5029  17.202   9.136   9.636 -0.2709 -0.1359 -0.0985
  315loPI   GL2 5030  17.023   9.240   9.505  0.2335 -0.2545 -0.2622
  315loPI   C1A 5031  17.063   8.822   9.364  0.1060  0.0738  0.1432
  315loPI   C2A 5032  17.178   8.823   8.873  0.0211  0.0447 -0.0523
  315loPI   C3A 5033  17.220   8.999   8.498 -0.0481 -0.0520 -0.1072
  315loPI   C4A 5034  17.306   9.021   8.020 -0.5090  0.0993 -0.0475
  315loPI   C5A 5035  17.540   9.162   7.646  0.2251  0.2253 -0.1666
  315loPI   C6A 5036  17.639   9.564   7.466 -0.1801 -0.0150  0.1704
  315loPI   C1B 5037  16.999   9.238   9.094  0.0346 -0.0893 -0.0467
  315loPI   C2B 5038  16.971   9.400   8.628 -0.2087 -0.2802 -0.2282
  315loPI   C3B 5039  17.073   9.403   8.260  0.3470  0.0198 -0.1198
  315loPI   C4B 5040  17.035   9.270   7.757  0.2312 -0.0549 -0.1971
  316loPI    C1 5041  10.109  12.099  10.440  0.0644 -0.0240 -0.0839
  316loPI    C2 5042  10.313  11.845  10.672 -0.1313  0.1050  0.2369
  316loPI    C3 5043  10.238  12.216  10.800 -0.2781  0.1659 -0.0184
  316loPI   PO4 5044   9.925  11.936  10.337 -0.2552  0.1315 -0.2865
  316loPI   GL1 5045   9.940  11.981   9.942  0.1892  0.1573 -0.1657
  316loPI   GL2 5046   9.671  12.221   9.886  0.2002  0.0930 -0.0610
  316loPI   C1A 5047  10.111  11.948   9.553  0.3153  0.1136 -0.0958
  316loPI   C2A 5048  10.299  11.955   9.085 -0.0900  0.0464 -0.0213
  316loPI   C3A 5049  10.140  11.865   8.711 -0.0745  0.0221 -0.1885
  316loPI   C4A 5050  10.036  11.749   8.325  0.0138  0.1676  0.3470
  316loPI   C5A 5051   9.691  11.561   7.993 -0.1284  0.0882 -0.0507
  316loPI   C6A 5052   9.550  11.465   7.597  0.1170 -0.0661  0.0108
  316loPI   C1B 5053   9.721  12.330   9.488 -0.0812  0.0835 -0.4180
  316loPI   C2B 5054   9.793  12.278   9.120 -0.2067 -0.3835 -0.2356
  316loPI   C3B 5055  10.043  12.301   8.784  0.2448 -0.0745 -0.1743
  316loPI   C4B 5056   9.984  12.237   8.371 -0.1031  0.4427  0.1583
  317loPI    C1 5057  16.505   4.229  10.242  0.0664 -0.0989 -0.0051
  317loPI    C2 5058  16.184   4.023  10.121 -0.0225  0.1570 -0.2143
  317loPI    C3 5059  16.245   4.088  10.511 -0.0735 -0.1323 -0.1561
  317loPI   PO4 5060  16.550   4.385  10.086  0.2325  0.1326 -0.2939
  317loPI   GL1 5061  16.304   4.415   9.761 -0.1486 -0.0342 -0.2714
  317loPI   GL2 5062  16.262   4.742   9.692  0.0521 -0.3902 -0.3201
  317loPI   C1A 5063  16.343   4.317   9.400  0.0062 -0.0127 -0.2602
  317loPI   C2A 5064  16.330   4.115   9.122  0.0710  0.2340  0.2179
  317loPI   C3A 5065  16.419   4.408   8.823  0.0644 -0.0772 -0.0757
  317loPI   C4A 5066  16.419   4.526   8.507  0.1916  0.0457 -0.0638
  317loPI   C5A 5067  16.113   4.469   8.111 -0.1991  0.0556  0.0843
  317loPI   C6A 5068  16.110   4.639   7.690 -0.1055  0.1087  0.2003
  317loPI   C1B 5069  16.233   4.919   9.286  0.1107 -0.0790  0.2100
  317loPI   C2B 5070  16.105   4.854   8.866  0.2925 -0.2153  0.2025
  317loPI   C3B 5071  16.174   5.115   8.499  0.3859 -0.1056  0.0816
  317loPI   C4B 5072  16.172   5.224   8.085 -0.0531 -0.0339  0.0289
  318loPI    C1 5073   2.304   1.003  10.721  0.2521  0.0815  0.1975
  318loPI    C2 5074   2.171   0.638  10.819  0.0195  0.1180  0.0255
  318loPI    C3 5075   2.435   0.824  11.054  0.0381 -0.1054  0.1842
  318loPI   PO4 5076   2.384   0.988  10.432 -0.2400 -0.0853  0.1273
  318loPI   GL1 5077   2.556   0.859  10.027 -0.1700  0.2869  0.1433
  318loPI   GL2 5078   2.769   1.048   9.906 -0.1218 -0.1776 -0.0363
  318loPI   C1A 5079   2.771   0.578   9.769 -0.1560 -0.2489  0.2045
  318loPI   C2A 5080   2.771   0.522   9.403  0.3100 -0.0706  0.0673
  318loPI   C3A 5081   2.743   0.580   8.974  0.1050  0.1842 -0.2035
  318loPI   C4A 5082   2.796   0.580   8.579  0.3385  0.2828  0.3277
  318loPI   C5A 5083   2.734   0.474   8.083 -0.2552  0.1671 -0.0911
  318loPI   C6A 5084   2.629   0.225   7.662 -0.1190 -0.0980  0.0573
  318loPI   C1B 5085   2.603   1.029   9.523  0.1004 -0.3471  0.0219
  318loPI   C2B 5086   2.691   1.046   9.006 -0.0534  0.0828  0.1391
  318loPI   C3B 5087   2.380   0.888   8.692  0.0795 -0.2377 -0.0445
  318loPI   C4B 5088   2.257   0.544   8.397 -0.0126 -0.2010  0.0282
  319loPI    C1 5089   4.910   5.163  10.261  0.2216  0.2737 -0.0914
  319loPI    C2 5090   4.979   4.860  10.513  0.0814  0.1832 -0.1605
  319loPI    C3 5091   4.821   5.201  10.649  0.1599  0.1949 -0.0975
  319loPI   PO4 5092   4.939   5.072  10.041 -0.2602 -0.2756  0.0308
  319loPI   GL1 5093   5.119   4.778   9.806 -0.1345 -0.0853  0.2646
  319loPI   GL2 5094   5.350   5.059   9.777  0.0702  0.1005 -0.4276
  319loPI   C1A 5095   5.177   4.654   9.331  0.2136  0.1089 -0.1979
  319loPI   C2A 5096   5.348   4.588   8.866  0.1474  0.0811 -0.1279
  319loPI   C3A 5097   5.260   4.608   8.483 -0.0959 -0.0968 -0.0495
  319loPI   C4A 5098   5.208   4.717   8.038  0.1352  0.1159  0.1631
  319loPI   C5A 5099   5.642   4.576   7.870 -0.3425  0.3105 -0.0085
  319loPI   C6A 5100   6.079   4.527   7.769  0.4351 -0.4304 -0.2479
  319loPI   C1B 5101   5.244   5.177   9.404 -0.1949  0.1727 -0.1787
  319loPI   C2B 5102   5.340   5.114   8.984  0.3023  0.2222 -0.3731
  319loPI   C3B 5103   5.634   5.024   8.643  0.1086  0.1416 -0.1633
  319loPI   C4B 5104   5.706   4.903   8.225  0.0084  0.2549 -0.1911
  320loPI    C1 5105   2.380   7.697  10.238  0.1452 -0.1034 -0.0267
  320loPI    C2 5106   2.510   7.448   9.954 -0.1507 -0.3038  0.0089
  320loPI    C3 5107   2.744   7.746  10.081  0.0182 -0.2639 -0.3813
  320loPI   PO4 5108   2.171   7.848  10.151  0.1288 -0.1283 -0.1087
  320loPI   GL1 5109   2.011   7.996   9.811 -0.0341 -0.1013  0.2336
  320loPI   GL2 5110   1.862   7.732   9.590  0.0017 -0.0638 -0.1305
  320loPI   C1A 5111   2.297   7.845   9.363  0.0069  0.2963 -0.0066
  320loPI   C2A 5112   2.223   7.524   9.082 -0.1159  0.1882  0.3463
  320loPI   C3A 5113   2.193   7.389   8.691 -0.2526 -0.1457 -0.0686
  320loPI   C4A 5114   2.518   7.386   8.245 -0.3492 -0.1352 -0.0146
  320loPI   C5A 5115   2.788   7.696   7.934 -0.1914  0.2545 -0.1811
  320loPI   C6A 5116   2.876   7.961   7.580  0.2264  0.0720 -0.1059
  320loPI   C1B 5117   1.785   7.855   9.169 -0.1780  0.0235  0.0809
  320loPI   C2B 5118   1.827   7.702   8.796  0.0724  0.2744  0.1854
  320loPI   C3B 5119   1.827   7.564   8.362 -0.2841 -0.4182  0.0011
  320loPI   C4B 5120   2.122   7.594   8.057 -0.1289  0.0486  0.1438
  321loPI    C1 5121   1.983   2.069  10.708 -0.2724  0.1916  0.0520
  321loPI    C2 5122   2.242   1.918  10.973 -0.1895  0.0766 -0.0939
  321loPI    C3 5123   1.849   1.889  11.039 -0.1692  0.0477  0.0161
  321loPI   PO4 5124   2.058   1.854  10.448  0.1302 -0.3643  0.2676
  321loPI   GL1 5125   2.134   1.985  10.069  0.3131  0.1226  0.1938
  321loPI   GL2 5126   2.035   1.770   9.935 -0.1760  0.0003  0.1308
  321loPI   C1A 5127   2.188   2.106   9.558  0.0259 -0.0756  0.2418
  321loPI   C2A 5128   2.269   2.177   9.086  0.0016 -0.0028 -0.1849
  321loPI   C3A 5129   2.240   2.285   8.688  0.0681  0.2874  0.0091
  321loPI   C4A 5130   2.146   2.330   8.194  0.0481  0.0527  0.1960
  321loPI   C5A 5131   2.439   2.406   7.772 -0.0414  0.2180  0.1949
  321loPI   C6A 5132   2.921   2.545   7.826 -0.1073 -0.1452  0.0130
  321loPI   C1B 5133   1.803   1.799   9.563  0.2066  0.1089 -0.0219
  321loPI   C2B 5134   1.807   1.982   9.209 -0.0151  0.0627  0.0070
  321loPI   C3B 5135   1.766   2.309   8.848  0.0355  0.1749  0.1309
  321loPI   C4B 5136   1.707   2.452   8.420  0.0530 -0.2242  0.2179
  322loPI    C1 5137   7.131  13.095   9.945 -0.3177  0.0293 -0.4967
  322loPI    C2 5138   7.431  13.265   9.743 -0.0066  0.0277 -0.0512
  322loPI    C3 5139   7.378  12.868   9.727 -0.1487  0.0555 -0.3352
  322loPI   PO4 5140   6.953  13.184   9.875 -0.2083 -0.0321  0.2611
  322loPI   GL1 5141   7.003  13.505   9.601 -0.3613  0.1004  0.2521
  322loPI   GL2 5142   6.724  13.585   9.598  0.0801  0.2728 -0.1375
  322loPI   C1A 5143   7.273  13.346   9.306  0.0373 -0.2322  0.1742
  322loPI   C2A 5144   7.246  13.402   8.940  0.0653 -0.0377 -0.0005
  322loPI   C3A 5145   7.294  13.480   8.479  0.2728 -0.0298 -0.0436
  322loPI   C4A 5146   7.275  13.762   8.083 -0.1404  0.1193  0.3363
  322loPI   C5A 5147   7.029  13.943   7.670 -0.0435  0.0345 -0.4536
  322loPI   C6A 5148   6.676  13.776   7.312  0.2688  0.0678  0.0968
  322loPI   C1B 5149   6.753  13.613   9.186  0.1559 -0.6879 -0.3037
  322loPI   C2B 5150   6.803  13.545   8.695 -0.0537  0.1452 -0.0781
  322loPI   C3B 5151   6.835  13.526   8.231  0.2054  0.1574 -0.0016
  322loPI   C4B 5152   6.854  13.380   7.782 -0.1118 -0.1449 -0.2121
  323loPI    C1 5153   6.076   4.516  10.529 -0.0320  0.1205  0.0796
  323loPI    C2 5154   5.978   4.897  10.602  0.0959  0.1204  0.2568
  323loPI    C3 5155   6.281   4.726  10.800  0.1152 -0.0383  0.0932
  323loPI   PO4 5156   6.038   4.490  10.264 -0.0818 -0.0298  0.0164
  323loPI   GL1 5157   6.021   4.805   9.763  0.0868 -0.0725 -0.4255
  323loPI   GL2 5158   5.971   5.167   9.728 -0.2211  0.0478  0.0816
  323loPI   C1A 5159   6.263   4.644   9.433 -0.0910  0.2874 -0.1824
  323loPI   C2A 5160   6.229   4.614   9.060 -0.0288  0.0805  0.0025
  323loPI   C3A 5161   6.599   4.619   8.794  0.1874  0.0582 -0.0463
  323loPI   C4A 5162   6.685   4.851   8.365  0.1849 -0.0027  0.0044
  323loPI   C5A 5163   6.501   4.832   7.886  0.2222  0.1396 -0.0780
  323loPI   C6A 5164   6.583   4.402   7.732 -0.2401 -0.0448  0.3248
  323loPI   C1B 5165   6.292   5.119   9.448 -0.1419 -0.2421  0.3494
  323loPI   C2B 5166   6.597   4.938   9.204 -0.0716 -0.3833 -0.2836
  323loPI   C3B 5167   7.088   5.144   9.293  0.0659  0.0826 -0.1379
  323loPI   C4B 5168   7.057   5.600   9.381 -0.0015  0.5144  0.1517
  324loPI    C1 5169  13.096   3.916  10.820 -0.0163  0.2945  0.1330
  324loPI    C2 5170  13.060   3.668  11.132  0.3722  0.0425 -0.0151
  324loPI    C3 5171  13.161   4.050  11.192  0.4066  0.0054  0.1708
  324loPI   PO4 5172  12.879   3.883  10.613 -0.0545 -0.0396  0.0258
  324loPI   GL1 5173  12.723   4.026  10.243  0.0562  0.0859 -0.1322
  324loPI   GL2 5174  12.677   3.771  10.032 -0.3059  0.0789 -0.0279
  324loPI   C1A 5175  12.545   4.200   9.836  0.0752  0.1595 -0.1996
  324loPI   C2A 5176  12.507   4.076   9.337 -0.1404 -0.0428  0.0057
  324loPI   C3A 5177  12.484   4.042   8.899 -0.0394 -0.1255 -0.2131
  324loPI   C4A 5178  12.574   4.048   8.441  0.1347 -0.4174  0.3630
  324loPI   C5A 5179  12.590   4.002   8.047 -0.0446 -0.3995 -0.2302
  324loPI   C6A 5180  12.773   4.162   7.626  0.0962  0.0333  0.5008
  324loPI   C1B 5181  12.941   3.859   9.641 -0.0474  0.0482 -0.0994
  324loPI   C2B 5182  12.954   3.943   9.141 -0.0045  0.0949 -0.0017
  324loPI   C3B 5183  13.030   3.847   8.650  0.1770 -0.1289 -0.2858
  324loPI   C4B 5184  12.964   3.694   8.293  0.0790  0.1938  0.0377
  325loPI    C1 5185   3.942   7.395  10.172  0.0797 -0.0427 -0.0923
  325loPI    C2 5186   4.174   7.263  10.469 -0.0582 -0.2174 -0.0603
  325loPI    C3 5187   4.097   7.654  10.434  0.2370 -0.1576 -0.0704
  325loPI   PO4 5188   3.995   7.372   9.904  0.1407  0.0116  0.0238
  325loPI   GL1 5189   4.016   7.119   9.564 -0.0759  0.0150 -0.0112
  325loPI   GL2 5190   3.573   7.231   9.641 -0.0229 -0.0811 -0.1584
  325loPI   C1A 5191   4.111   7.066   9.193  0.0969  0.0316 -0.1115
  325loPI   C2A 5192   4.025   6.981   8.772  0.2257  0.0449  0.1973
  325loPI   C3A 5193   3.936   7.059   8.380 -0.3913  0.1224  0.0423
  325loPI   C4A 5194   3.888   6.988   7.928 -0.2393 -0.1852  0.0709
  325loPI   C5A 5195   3.908   6.951   7.483 -0.2030 -0.0087 -0.5671
  325loPI   C6A 5196   4.222   6.800   7.304  0.0164  0.3041 -0.0266
  325loPI   C1B 5197   3.579   7.305   9.128 -0.0094  0.3587  0.0198
  325loPI   C2B 5198   3.589   7.270   8.763 -0.1687  0.0770 -0.2968
  325loPI   C3B 5199   3.677   7.431   8.431  0.3856  0.0848  0.1265
  325loPI   C4B 5200   3.728   7.484   8.065  0.0737 -0.3083 -0.2142
  326loPI    C1 5201   9.867  15.790  10.277 -0.2345 -0.1361  0.1660
  326loPI    C2 5202  10.013  15.884  10.638 -0.0931  0.1375  0.0405
  326loPI    C3 5203  10.018  16.154  10.343 -0.3496 -0.0330 -0.1247
  326loPI   PO4 5204   9.948  15.627  10.193 -0.3059  0.0244 -0.2663
  326loPI   GL1 5205   9.831  15.374   9.786  0.0459  0.0166 -0.1907
  326loPI   GL2 5206   9.936  15.123   9.598 -0.2235 -0.2015 -0.1825
  326loPI   C1A 5207   9.756  15.688   9.489  0.0040 -0.0371  0.1423
  326loPI   C2A 5208   9.859  15.905   9.084  0.0065 -0.0169  0.3304
  326loPI   C3A 5209   9.728  16.013   8.693  0.0236 -0.3945  0.1618
  326loPI   C4A 5210   9.620  16.095   8.189 -0.0512 -0.2184  0.2882
  326loPI   C5A 5211   9.716  15.935   7.825  0.0628  0.0466 -0.0322
  326loPI   C6A 5212  10.061  15.959   7.632  0.3064 -0.1078 -0.1279
  326loPI   C1B 5213   9.923  15.251   9.222 -0.2434  0.4141  0.1395
  326loPI   C2B 5214   9.816  15.453   8.814 -0.0491  0.0911 -0.1181
  326loPI   C3B 5215   9.583  15.646   8.420 -0.0186 -0.1704  0.1306
  326loPI   C4B 5216   9.412  15.573   8.056  0.0334 -0.1952 -0.2847
  327loPI    C1 5217  17.569  14.620  10.888 -0.1794 -0.1450  0.0406
  327loPI    C2 5218  17.482  14.767  11.249 -0.4202 -0.1612 -0.0092
  327loPI    C3 5219  17.537  14.374  11.202 -0.0857 -0.1258  0.0653
  327loPI   PO4 5220  17.379  14.818  10.745  0.1925  0.0307 -0.3192
  327loPI   GL1 5221  17.323  14.876  10.345 -0.0733 -0.1102 -0.3363
  327loPI   GL2 5222  17.584  14.649  10.328 -0.4032  0.0772  0.0450
  327loPI   C1A 5223  17.184  15.071   9.961 -0.0037  0.3289 -0.1902
  327loPI   C2A 5224  17.184  14.900   9.543  0.1503  0.2598 -0.1361
  327loPI   C3A 5225  17.303  14.796   9.102  0.0233 -0.0590 -0.2823
  327loPI   C4A 5226  17.461  14.856   8.728  0.1933  0.0012  0.0406
  327loPI   C5A 5227  17.426  14.681   8.333  0.1024 -0.1821  0.3144
  327loPI   C6A 5228  17.561  14.409   7.968  0.1478  0.0976 -0.2023
  327loPI   C1B 5229  17.451  14.624   9.931 -0.0411  0.2013  0.0041
  327loPI   C2B 5230  17.715  14.768   9.558  0.0380 -0.1781  0.0147
  327loPI   C3B 5231  17.822  14.843   9.122  0.0559 -0.1686 -0.0905
  327loPI   C4B 5232  18.062  14.873   8.786  0.2487 -0.0184 -0.1001
  328loPI    C1 5233  12.882  10.588  10.046 -0.2786  0.1279 -0.2275
  328loPI    C2 5234  12.728  10.372  10.346  0.1884 -0.0409 -0.1007
  328loPI    C3 5235  12.571  10.729  10.255 -0.2871 -0.2169  0.0007
  328loPI   PO4 5236  12.841  10.560   9.799  0.1880 -0.1140 -0.0398
  328loPI   GL1 5237  12.722  10.710   9.425  0.1718  0.0034  0.1274
  328loPI   GL2 5238  12.881  10.957   9.475 -0.1389  0.1972 -0.4308
  328loPI   C1A 5239  12.718  10.818   8.986 -0.1295  0.2691 -0.0490
  328loPI   C2A 5240  12.666  10.990   8.574 -0.5100  0.1578 -0.4195
  328loPI   C3A 5241  12.451  11.183   8.333  0.1279  0.1423  0.1494
  328loPI   C4A 5242  12.211  11.362   8.130  0.0285 -0.1193 -0.0498
  328loPI   C5A 5243  11.986  11.631   8.004 -0.1013 -0.0245 -0.1790
  328loPI   C6A 5244  11.789  11.636   7.683 -0.0436 -0.1372  0.0011
  328loPI   C1B 5245  12.875  11.284   9.165  0.1149 -0.0557 -0.2296
  328loPI   C2B 5246  12.964  11.542   8.818 -0.0490  0.1758 -0.1765
  328loPI   C3B 5247  12.683  11.599   8.440 -0.2492  0.1591 -0.1004
  328loPI   C4B 5248  12.740  11.776   8.007 -0.2888 -0.1377  0.1016
  329loPI    C1 5249  14.077  10.730  10.393  0.0368 -0.2595 -0.1568
  329loPI    C2 5250  14.420  10.650  10.204  0.2180  0.0547  0.0310
  329loPI    C3 5251  14.401  10.954  10.464 -0.2158  0.0682 -0.0105
  329loPI   PO4 5252  13.908  10.712  10.298  0.0391 -0.1137  0.2589
  329loPI   GL1 5253  13.901  10.583   9.870 -0.1444 -0.0142  0.5155
  329loPI   GL2 5254  14.205  10.329   9.905 -0.1472  0.3433  0.3036
  329loPI   C1A 5255  13.727  10.439   9.417  0.1430 -0.0755 -0.1796
  329loPI   C2A 5256  13.626  10.421   9.033  0.0925 -0.0506 -0.0645
  329loPI   C3A 5257  13.242  10.237   8.831 -0.0696  0.3023 -0.0570
  329loPI   C4A 5258  13.291  10.053   8.390 -0.3788  0.0826 -0.3978
  329loPI   C5A 5259  13.373  10.043   8.023 -0.1065 -0.2995  0.6640
  329loPI   C6A 5260  13.329   9.937   7.613  0.2997 -0.1110 -0.1876
  329loPI   C1B 5261  14.214  10.542   9.430  0.0127  0.1583 -0.1795
  329loPI   C2B 5262  14.293  10.660   9.080  0.1503 -0.1256 -0.1066
  329loPI   C3B 5263  14.419  10.809   8.672  0.1633  0.1832 -0.0426
  329loPI   C4B 5264  14.265  10.979   8.454  0.0177 -0.1121  0.2087
  330loPI    C1 5265   9.249   4.891  10.362 -0.2133  0.1017  0.1895
  330loPI    C2 5266   9.463   4.743  10.667 -0.0358  0.0588  0.0461
  330loPI    C3 5267   9.201   4.510  10.475 -0.0671  0.0541  0.0946
  330loPI   PO4 5268   9.373   5.103  10.227  0.0048  0.1323 -0.2196
  330loPI   GL1 5269   9.485   5.373   9.868  0.0424 -0.3766 -0.1653
  330loPI   GL2 5270   9.495   5.063   9.715 -0.1531 -0.0165 -0.1236
  330loPI   C1A 5271   9.341   5.435   9.421  0.2457  0.1539  0.0636
  330loPI   C2A 5272   9.399   5.367   9.025 -0.2141  0.1379  0.0128
  330loPI   C3A 5273   9.290   5.486   8.600  0.0157 -0.0236  0.0688
  330loPI   C4A 5274   9.654   5.381   8.356 -0.1430 -0.1355  0.3386
  330loPI   C5A 5275   9.951   5.544   8.342 -0.1395  0.0699 -0.1704
  330loPI   C6A 5276  10.251   5.453   8.058 -0.1964 -0.1563 -0.0238
  330loPI   C1B 5277   9.817   5.171   9.263  0.1391 -0.3280  0.2473
  330loPI   C2B 5278   9.843   5.224   8.856  0.1991 -0.0262  0.0438
  330loPI   C3B 5279  10.111   5.102   8.534  0.0134 -0.2140 -0.2449
  330loPI   C4B 5280  10.172   4.910   8.193 -0.3323 -0.1912 -0.1145
  331loPI    C1 5281  17.728   2.213  10.083 -0.0501  0.1093 -0.1837
  331loPI    C2 5282  17.883   2.529  10.273  0.0966  0.1168 -0.3141
  331loPI    C3 5283  18.032   2.163  10.338 -0.2066  0.0426 -0.0072
  331loPI   PO4 5284  17.751   2.214   9.813  0.1263 -0.0756 -0.0009
  331loPI   GL1 5285  17.835   2.486   9.457  0.0131 -0.2232 -0.3147
  331loPI   GL2 5286  18.096   2.275   9.380  0.0295 -0.2388  0.1466
  331loPI   C1A 5287  17.741   2.704   9.063  0.1637 -0.2637 -0.1392
  331loPI   C2A 5288  17.720   2.550   8.692 -0.0495  0.4070 -0.0452
  331loPI   C3A 5289  17.856   2.519   8.288  0.0488  0.1818 -0.0822
  331loPI   C4A 5290  18.179   2.615   7.950 -0.1987  0.1950  0.0757
  331loPI   C5A 5291  18.264   2.964   7.703  0.1363 -0.1520  0.1627
  331loPI   C6A 5292  18.174   3.476   7.552 -0.3358 -0.0766 -0.0859
  331loPI   C1B 5293  17.900   2.133   9.021  0.0002  0.0012  0.0156
  331loPI   C2B 5294  17.817   1.923   8.679 -0.1185  0.1921 -0.1241
  331loPI   C3B 5295  17.694   1.946   8.320  0.2027  0.0555 -0.2678
  331loPI   C4B 5296  17.622   2.091   7.971 -0.1472  0.0784  0.0729
  332loPI    C1 5297   7.406   1.894  10.290  0.1618  0.1512  0.0926
  332loPI    C2 5298   7.090   1.802  10.517 -0.1104  0.0265 -0.3238
  332loPI    C3 5299   7.354   2.075  10.643 -0.4207  0.1875 -0.0012
  332loPI   PO4 5300   7.331   1.889  10.071 -0.0628  0.0956  0.1239
  332loPI   GL1 5301   7.615   2.050   9.671  0.3350  0.2814 -0.1946
  332loPI   GL2 5302   7.721   1.765   9.728  0.1061 -0.0159  0.0704
  332loPI   C1A 5303   7.845   2.141   9.197  0.1758  0.1763  0.2522
  332loPI   C2A 5304   8.052   2.078   8.906 -0.0263 -0.0419 -0.1549
  332loPI   C3A 5305   8.461   1.870   8.851 -0.0073 -0.0669  0.2489
  332loPI   C4A 5306   8.436   1.570   8.544  0.1480 -0.0666  0.0511
  332loPI   C5A 5307   8.393   1.731   8.109 -0.2715 -0.0106 -0.1945
  332loPI   C6A 5308   8.249   1.709   7.750 -0.0644  0.0662 -0.0225
  332loPI   C1B 5309   7.579   1.501   9.469  0.1545 -0.3539 -0.0951
  332loPI   C2B 5310   7.707   1.373   9.158 -0.0956  0.1104 -0.2317
  332loPI   C3B 5311   7.751   1.075   8.997  0.2056 -0.0731 -0.0572
  332loPI   C4B 5312   7.667   0.748   8.773 -0.1453  0.0819 -0.2067
  333loPI    C1 5313   0.499   3.645  10.556 -0.0747  0.4957 -0.0309
  333loPI    C2 5314   0.801   3.437  10.715 -0.3151  0.0305 -0.1635
  333loPI    C3 5315   0.774   3.831  10.778  0.2681  0.0660 -0.0819
  333loPI   PO4 5316   0.408   3.462  10.326 -0.0663 -0.0388 -0.0801
  333loPI   GL1 5317   0.362   3.288   9.947  0.1839 -0.1425  0.3922
  333loPI   GL2 5318   0.133   2.959   9.858 -0.0889  0.1451 -0.1126
  333loPI   C1A 5319   0.135   3.415   9.532 -0.1150  0.1579 -0.0911
  333loPI   C2A 5320   0.139   3.130   9.137 -0.1591  0.0624  0.0444
  333loPI   C3A 5321   0.278   2.876   8.811  0.0486 -0.3096 -0.0761
  333loPI   C4A 5322   0.211   2.643   8.328 -0.1511 -0.0244  0.0892
  333loPI   C5A 5323   0.367   2.393   7.979 -0.0809 -0.1514  0.1078
  333loPI   C6A 5324   0.272   2.528   7.541  0.0756  0.3957  0.1709
  333loPI   C1B 5325  -0.207   2.974   9.481 -0.2276 -0.1844  0.2429
  333loPI   C2B 5326  -0.210   2.756   9.037  0.1796  0.4923 -0.0178
  333loPI   C3B 5327  -0.185   2.798   8.622 -0.0570 -0.3680 -0.1006
  333loPI   C4B 5328  -0.207   2.886   8.331  0.1213  0.0441 -0.2220
  334loPI    C1 5329  11.415   0.413  10.281  0.1869  0.3289  0.1189
  334loPI    C2 5330  11.674   0.239  10.532 -0.0524 -0.3330 -0.0732
  334loPI    C3 5331  11.306   0.332  10.657  0.0032 -0.1646 -0.0327
  334loPI   PO4 5332  11.472   0.657  10.208 -0.2169 -0.0322 -0.4091
  334loPI   GL1 5333  11.726   0.719   9.788  0.2055 -0.1581  0.1403
  334loPI   GL2 5334  11.564   0.933   9.760 -0.5725  0.2044  0.3995
  334loPI   C1A 5335  11.821   0.513   9.404 -0.2811  0.1954 -0.1877
  334loPI   C2A 5336  11.885   0.529   9.010  0.2739 -0.0126  0.0506
  334loPI   C3A 5337  11.641   0.778   8.667 -0.0326 -0.1951 -0.1078
  334loPI   C4A 5338  11.720   1.072   8.430 -0.1583 -0.0427  0.1664
  334loPI   C5A 5339  11.901   1.333   8.154 -0.1848 -0.0032 -0.2038
  334loPI   C6A 5340  11.925   1.689   7.841 -0.1861 -0.2654 -0.0452
  334loPI   C1B 5341  11.765   0.952   9.325 -0.1117 -0.1284  0.1319
  334loPI   C2B 5342  11.799   1.173   8.927  0.0167  0.0210  0.1061
  334loPI   C3B 5343  11.957   1.542   8.636  0.0735 -0.1036 -0.0380
  334loPI   C4B 5344  12.031   1.828   8.312 -0.0484  0.0271 -0.1093
  335loPI    C1 5345  18.278  14.966  10.865 -0.2280  0.0019 -0.1175
  335loPI    C2 5346  18.120  15.331  10.907  0.0458  0.0895  0.1985
  335loPI    C3 5347  17.942  15.015  11.076 -0.1051  0.0982  0.0587
  335loPI   PO4 5348  18.278  14.897  10.540 -0.3862  0.2887  0.1232
  335loPI   GL1 5349  18.114  15.127  10.120 -0.3025 -0.1262 -0.3759
  335loPI   GL2 5350  17.815  15.031  10.030  0.1662 -0.3358 -0.0944
  335loPI   C1A 5351  18.169  15.157   9.673  0.2954 -0.2229  0.2769
  335loPI   C2A 5352  18.067  15.215   9.279  0.1521 -0.0467 -0.1151
  335loPI   C3A 5353  18.016  15.338   8.935  0.1927  0.2469 -0.1930
  335loPI   C4A 5354  17.742  15.293   8.622 -0.0471 -0.1738  0.3958
  335loPI   C5A 5355  17.794  15.089   8.363  0.1787  0.1437 -0.0526
  335loPI   C6A 5356  17.990  14.610   8.377 -0.1940 -0.1431  0.0951
  335loPI   C1B 5357  17.604  15.296   9.738 -0.0843  0.0357 -0.0261
  335loPI   C2B 5358  17.614  15.460   9.301 -0.0289 -0.0047  0.1254
  335loPI   C3B 5359  17.582  15.669   8.932 -0.1557  0.0062  0.0598
  335loPI   C4B 5360  17.533  15.789   8.538 -0.1063 -0.0449  0.1996
  336loPI    C1 5361   9.581   6.165  10.344  0.0152  0.1288  0.0640
  336loPI    C2 5362   9.237   6.087  10.534 -0.0813  0.0183 -0.1525
  336loPI    C3 5363   9.583   6.077  10.735 -0.1996  0.0933  0.0585
  336loPI   PO4 5364   9.503   6.350  10.228 -0.0572 -0.0010 -0.0024
  336loPI   GL1 5365   9.234   6.328   9.877  0.1134 -0.2487 -0.2549
  336loPI   GL2 5366   8.992   6.121   9.814 -0.0322 -0.0987 -0.0524
  336loPI   C1A 5367   9.195   6.398   9.426 -0.1226 -0.0736 -0.1449
  336loPI   C2A 5368   9.016   6.444   8.983  0.0526  0.5167 -0.1964
  336loPI   C3A 5369   9.093   6.389   8.533 -0.0391 -0.0620 -0.0046
  336loPI   C4A 5370   9.290   6.368   8.155 -0.1972 -0.1502 -0.3928
  336loPI   C5A 5371   9.233   6.531   7.748 -0.0379 -0.0443  0.0085
  336loPI   C6A 5372   8.776   6.447   7.708 -0.3792 -0.0839 -0.0132
  336loPI   C1B 5373   8.931   6.015   9.343  0.1272  0.0818 -0.2038
  336loPI   C2B 5374   8.656   6.026   9.007  0.1424 -0.1232 -0.2616
  336loPI   C3B 5375   8.664   6.217   8.671  0.1596 -0.1076  0.2094
  336loPI   C4B 5376   8.696   6.257   8.223  0.0150 -0.0244 -0.0057
  337loPI    C1 5377   3.645   4.940  10.624  0.0876 -0.0248 -0.0025
  337loPI    C2 5378   3.915   4.892  10.915  0.1807  0.0769 -0.0714
  337loPI    C3 5379   3.551   4.732  10.952  0.2619 -0.0926  0.0059
  337loPI   PO4 5380   3.819   4.962  10.355  0.2241 -0.0040  0.1614
  337loPI   GL1 5381   3.958   4.948   9.934  0.1411  0.2054  0.0539
  337loPI   GL2 5382   3.641   4.963   9.909  0.0551  0.1691  0.2553
  337loPI   C1A 5383   4.087   5.012   9.485 -0.0097 -0.2003  0.3999
  337loPI   C2A 5384   4.328   5.035   9.057 -0.0718  0.0352 -0.1471
  337loPI   C3A 5385   4.473   5.237   8.659  0.2839  0.1299 -0.0603
  337loPI   C4A 5386   4.721   5.481   8.185 -0.1126  0.1229 -0.5791
  337loPI   C5A 5387   4.489   5.528   7.810 -0.1696  0.1259 -0.0427
  337loPI   C6A 5388   4.608   5.821   7.431 -0.0373 -0.2190  0.1054
  337loPI   C1B 5389   3.696   5.279   9.584 -0.2433 -0.0011  0.0700
  337loPI   C2B 5390   3.619   5.708   9.401 -0.0894 -0.1815 -0.0088
  337loPI   C3B 5391   3.933   5.864   8.952 -0.1578  0.0557  0.0917
  337loPI   C4B 5392   4.050   6.059   8.538  0.0888 -0.1088  0.0333
  338loPI    C1 5393   8.101   4.144  10.604  0.0804  0.0094  0.0953
  338loPI    C2 5394   7.978   3.770  10.675  0.0643 -0.0498 -0.2281
  338loPI    C3 5395   7.983   4.039  10.971 -0.4913 -0.1438 -0.1216
  338loPI   PO4 5396   8.126   4.168  10.309 -0.0617  0.1951  0.1529
  338loPI   GL1 5397   7.905   4.107   9.845 -0.2411 -0.0085 -0.2326
  338loPI   GL2 5398   7.800   4.494   9.871 -0.2247  0.3664  0.0840
  338loPI   C1A 5399   7.736   4.113   9.441 -0.0023 -0.0659 -0.0446
  338loPI   C2A 5400   7.834   4.192   9.009 -0.1990 -0.3796  0.2505
  338loPI   C3A 5401   8.060   4.425   8.716  0.0450  0.0669  0.1577
  338loPI   C4A 5402   8.071   4.416   8.274 -0.1736 -0.0945 -0.1625
  338loPI   C5A 5403   8.391   4.399   7.909 -0.0438  0.0433  0.2982
  338loPI   C6A 5404   8.657   4.408   7.584 -0.0006  0.0226 -0.2704
  338loPI   C1B 5405   7.970   4.566   9.460  0.1365 -0.2928  0.1288
  338loPI   C2B 5406   8.255   4.442   9.154 -0.2610  0.0085  0.1466
  338loPI   C3B 5407   8.535   4.342   8.790 -0.0755  0.0412  0.0415
  338loPI   C4B 5408   8.582   4.251   8.344  0.0485  0.2124  0.2655
  339loPI    C1 5409  13.735  18.579  10.251 -0.1253 -0.1042 -0.1473
  339loPI    C2 5410  13.710  18.743  10.615 -0.2552  0.1483 -0.2675
  339loPI    C3 5411  13.842  18.368  10.574  0.0981  0.2367  0.0080
  339loPI   PO4 5412  13.571  18.708  10.131 -0.0136 -0.3584 -0.2039
  339loPI   GL1 5413  13.599  18.911   9.704  0.0712 -0.0740  0.0316
  339loPI   GL2 5414  13.342  18.972   9.659  0.3651 -0.0213  0.4465
  339loPI   C1A 5415  13.706  18.770   9.279  0.1280  0.0882 -0.1741
  339loPI   C2A 5416  13.725  18.944   8.875  0.0434  0.0414 -0.0978
  339loPI   C3A 5417  13.917  19.033   8.523 -0.1638 -0.0600 -0.1801
  339loPI   C4A 5418  13.956  19.115   8.079  0.0440 -0.0970  0.2717
  339loPI   C5A 5419  13.699  19.043   7.667  0.0792 -0.0930  0.3260
  339loPI   C6A 5420  13.278  18.824   7.686  0.1258 -0.4313  0.5453
  339loPI   C1B 5421  13.174  18.918   9.266 -0.1999  0.0780  0.3828
  339loPI   C2B 5422  13.215  18.790   8.815 -0.0051  0.1403  0.1783
  339loPI   C3B 5423  13.478  18.772   8.492 -0.1330 -0.2304  0.0393
  339loPI   C4B 5424  13.657  18.712   7.997  0.0901  0.0174  0.0311
  340loPI    C1 5425   1.138  13.844  10.080  0.1576 -0.1768  0.2828
  340loPI    C2 5426   0.817  13.607  10.054  0.0125  0.0382  0.0779
  340loPI    C3 5427   1.084  13.550  10.346 -0.2030 -0.1514  0.2422
  340loPI   PO4 5428   1.185  13.806   9.794  0.2178  0.2045  0.0754
  340loPI   GL1 5429   1.383  13.506   9.472  0.1462  0.0675 -0.0934
  340loPI   GL2 5430   1.638  13.242   9.587  0.0107  0.2275 -0.2901
  340loPI   C1A 5431   1.159  13.199   9.274  0.2062  0.2234 -0.4810
  340loPI   C2A 5432   0.851  13.384   8.926 -0.0036  0.1077 -0.0440
  340loPI   C3A 5433   0.770  13.734   8.754 -0.0697 -0.1832 -0.0564
  340loPI   C4A 5434   0.677  13.778   8.386  0.0812 -0.1523  0.3618
  340loPI   C5A 5435   0.717  13.909   7.988  0.0179 -0.1755  0.1219
  340loPI   C6A 5436   0.727  14.356   7.821  0.0253  0.3188  0.0199
  340loPI   C1B 5437   1.689  13.278   9.122 -0.0807  0.1637  0.1263
  340loPI   C2B 5438   1.776  13.064   8.785 -0.0936  0.1266 -0.4268
  340loPI   C3B 5439   1.977  12.966   8.392 -0.1197 -0.1055  0.0926
  340loPI   C4B 5440   1.991  12.732   8.041  0.1261  0.1208 -0.2851
  341loPI    C1 5441   6.557  14.923  10.018 -0.1048 -0.2276  0.1240
  341loPI    C2 5442   6.855  15.107  10.210 -0.1426 -0.1192  0.0797
  341loPI    C3 5443   6.506  15.046  10.395 -0.0888 -0.2592  0.1364
  341loPI   PO4 5444   6.528  15.152   9.652 -0.3134  0.1334 -0.0840
  341loPI   GL1 5445   6.665  15.093   9.325  0.1709 -0.1236  0.1588
  341loPI   GL2 5446   6.850  15.301   9.320 -0.0281 -0.1240  0.0376
  341loPI   C1A 5447   6.539  15.079   8.956 -0.0091  0.3564  0.5119
  341loPI   C2A 5448   6.605  15.209   8.569  0.1860  0.1282 -0.4162
  341loPI   C3A 5449   6.620  15.166   8.175 -0.2349  0.0894 -0.0011
  341loPI   C4A 5450   6.818  15.041   7.875  0.0469  0.1208 -0.0326
  341loPI   C5A 5451   6.890  15.156   7.497  0.1563 -0.2384  0.2552
  341loPI   C6A 5452   7.056  15.090   7.116 -0.1077 -0.1648 -0.0199
  341loPI   C1B 5453   6.988  15.403   8.834 -0.0982  0.0647 -0.3389
  341loPI   C2B 5454   7.133  15.243   8.487 -0.1648  0.2485  0.0516
  341loPI   C3B 5455   7.197  15.224   8.031 -0.2456  0.1463  0.1565
  341loPI   C4B 5456   7.102  15.623   7.733 -0.0450 -0.3313 -0.1803
  342loPI    C1 5457  17.754   7.419   9.987 -0.1011  0.2200  0.0360
  342loPI    C2 5458  17.678   7.081  10.187 -0.1109  0.1306 -0.1181
  342loPI    C3 5459  17.867   7.382  10.369 -0.0987  0.0409  0.0189
  342loPI   PO4 5460  17.746   7.320   9.647  0.0536  0.0237 -0.1890
  342loPI   GL1 5461  18.007   7.377   9.376 -0.2762  0.0032 -0.0626
  342loPI   GL2 5462  17.662   7.529   9.215 -0.0478  0.0857  0.4398
  342loPI   C1A 5463  18.289   7.556   8.990  0.0357 -0.2207  0.0258
  342loPI   C2A 5464  18.394   7.631   8.543 -0.1589 -0.0077 -0.0775
  342loPI   C3A 5465  18.253   7.597   8.094  0.0523  0.0860  0.1106
  342loPI   C4A 5466  18.489   7.529   7.667  0.0118  0.0863 -0.1776
  342loPI   C5A 5467  18.930   7.785   7.637 -0.1941  0.0433 -0.1946
  342loPI   C6A 5468  19.047   8.177   7.409  0.3676  0.0753 -0.0238
  342loPI   C1B 5469  17.837   7.633   8.807 -0.0856  0.2458 -0.1611
  342loPI   C2B 5470  17.760   7.655   8.353 -0.0473 -0.0253  0.0199
  342loPI   C3B 5471  17.625   7.617   7.843  0.3040 -0.1728  0.0821
  342loPI   C4B 5472  17.922   7.304   7.587  0.1558  0.2728  0.1643
  343loPI    C1 5473  17.272   3.474  10.645 -0.4353 -0.1569  0.0710
  343loPI    C2 5474  17.220   3.762  10.917  0.0205  0.1110 -0.1129
  343loPI    C3 5475  17.479   3.465  10.987 -0.0768  0.0201 -0.1350
  343loPI   PO4 5476  17.201   3.617  10.388 -0.0144  0.0563  0.1823
  343loPI   GL1 5477  17.063   3.698   9.974  0.0719  0.0073  0.0676
  343loPI   GL2 5478  16.853   3.485   9.761  0.1339 -0.3680  0.1395
  343loPI   C1A 5479  17.087   3.852   9.561 -0.0180  0.1006  0.0338
  343loPI   C2A 5480  17.165   3.889   9.063  0.0060  0.1110  0.1210
  343loPI   C3A 5481  17.052   3.653   8.682  0.0703 -0.0575  0.1389
  343loPI   C4A 5482  17.155   3.654   8.232  0.1108 -0.0226 -0.0974
  343loPI   C5A 5483  17.144   3.494   7.809 -0.0003  0.2421 -0.2010
  343loPI   C6A 5484  17.204   3.653   7.512  0.2717 -0.2161 -0.0665
  343loPI   C1B 5485  16.673   3.678   9.355  0.0852 -0.0621  0.1618
  343loPI   C2B 5486  16.575   3.640   8.896 -0.3095  0.1832  0.1221
  343loPI   C3B 5487  16.531   3.654   8.528  0.0805  0.2936 -0.2485
  343loPI   C4B 5488  16.544   3.327   8.295 -0.0194  0.0171 -0.1219
  344loPI    C1 5489  11.055   0.081  10.321  0.2243 -0.2900  0.0376
  344loPI    C2 5490  10.741  -0.009  10.089  0.1800 -0.0774  0.0129
  344loPI    C3 5491  10.737  -0.103  10.478  0.0323  0.0365  0.0396
  344loPI   PO4 5492  11.280  -0.016  10.073 -0.0867 -0.0951 -0.2033
  344loPI   GL1 5493  11.283   0.149   9.698 -0.2334  0.2003  0.1066
  344loPI   GL2 5494  11.306   0.432   9.807  0.0751  0.1420  0.2204
  344loPI   C1A 5495  11.627   0.067   9.402  0.0292 -0.4959  0.0111
  344loPI   C2A 5496  11.629   0.057   8.969 -0.0972  0.1005  0.0645
  344loPI   C3A 5497  11.729   0.236   8.589 -0.2074 -0.2181  0.2466
  344loPI   C4A 5498  11.528   0.407   8.293  0.1305 -0.0500 -0.0184
  344loPI   C5A 5499  11.241   0.231   8.183 -0.3254  0.2016 -0.1542
  344loPI   C6A 5500  10.887   0.318   7.910  0.2241 -0.1943  0.0105
  344loPI   C1B 5501  11.354   0.540   9.392 -0.0722 -0.0804  0.2242
  344loPI   C2B 5502  11.377   0.649   9.046  0.0190  0.0222 -0.1701
  344loPI   C3B 5503  11.241   0.355   8.773  0.1057  0.0811 -0.1161
  344loPI   C4B 5504  11.265  -0.099   8.599 -0.0869 -0.3377  0.0715
  345loPI    C1 5505  18.287   2.284   9.905 -0.0523 -0.0383  0.2783
  345loPI    C2 5506  18.472   2.572   9.698  0.1110 -0.1404  0.2802
  345loPI    C3 5507  18.108   2.637   9.850  0.0762  0.0061  0.1368
  345loPI   PO4 5508  18.503   2.022  10.001  0.1426  0.0806 -0.1265
  345loPI   GL1 5509  18.623   1.885   9.588 -0.0064 -0.0593 -0.1275
  345loPI   GL2 5510  18.975   1.948   9.667 -0.1422 -0.1279 -0.1346
  345loPI   C1A 5511  18.389   1.820   9.183 -0.3608 -0.1167 -0.4454
  345loPI   C2A 5512  18.328   1.803   8.741 -0.0960  0.3591 -0.0872
  345loPI   C3A 5513  18.243   1.715   8.364 -0.1462  0.1922  0.1349
  345loPI   C4A 5514  17.965   1.581   8.059 -0.0007 -0.0722 -0.1063
  345loPI   C5A 5515  17.642   1.603   7.782 -0.0599  0.0563  0.1212
  345loPI   C6A 5516  17.448   1.423   7.452  0.1681  0.0396  0.1367
  345loPI   C1B 5517  18.972   1.847   9.180  0.2202  0.1145  0.0747
  345loPI   C2B 5518  18.776   1.701   8.871 -0.2028  0.1545  0.2369
  345loPI   C3B 5519  18.796   1.776   8.432  0.0741 -0.0727  0.2438
  345loPI   C4B 5520  18.973   1.542   8.097 -0.0803  0.0279  0.2940
  346loPI    C1 5521   8.279   9.450  10.204  0.2348  0.0674  0.0244
  346loPI    C2 5522   8.280   9.589  10.579  0.1095  0.1335  0.0007
  346loPI    C3 5523   8.610   9.615  10.355  0.1721  0.1314  0.0926
  346loPI   PO4 5524   8.026   9.407  10.199  0.0786 -0.2230 -0.1554
  346loPI   GL1 5525   7.823   9.215   9.778 -0.0012 -0.1099  0.0389
  346loPI   GL2 5526   8.124   9.111   9.773 -0.4139 -0.1284  0.1018
  346loPI   C1A 5527   7.784   9.186   9.393 -0.2064 -0.1530  0.3624
  346loPI   C2A 5528   8.021   9.133   8.953 -0.1248  0.0504 -0.1929
  346loPI   C3A 5529   7.973   9.268   8.430 -0.3001  0.1456  0.2457
  346loPI   C4A 5530   7.860   9.058   8.042  0.1657  0.2300 -0.0146
  346loPI   C5A 5531   7.443   9.143   7.870  0.0989  0.4529 -0.0597
  346loPI   C6A 5532   7.081   9.357   7.698 -0.1863 -0.0346  0.0904
  346loPI   C1B 5533   8.259   9.376   9.421 -0.0725  0.2948 -0.2501
  346loPI   C2B 5534   8.426   9.480   9.017 -0.1116 -0.1532  0.2444
  346loPI   C3B 5535   8.474   9.439   8.656  0.0294  0.0051 -0.0821
  346loPI   C4B 5536   8.490   9.432   8.265  0.1697  0.2360  0.3857
  347loPI    C1 5537   4.425  11.725  10.144  0.2335  0.0385 -0.0438
  347loPI    C2 5538   4.399  11.943  10.479  0.0558  0.0268 -0.0491
  347loPI    C3 5539   4.112  11.679  10.389  0.1324 -0.0123 -0.1815
  347loPI   PO4 5540   4.452  11.868   9.985  0.1108  0.0129  0.3038
  347loPI   GL1 5541   4.609  11.850   9.571 -0.3431 -0.1771  0.0254
  347loPI   GL2 5542   4.567  11.506   9.499  0.1509  0.1875  0.2482
  347loPI   C1A 5543   4.778  11.989   9.309 -0.3018 -0.1050 -0.3344
  347loPI   C2A 5544   4.817  12.006   8.900 -0.1218  0.3157 -0.0164
  347loPI   C3A 5545   4.807  12.101   8.528 -0.1525 -0.1057  0.0613
  347loPI   C4A 5546   4.756  12.101   8.045  0.0858  0.0002  0.2212
  347loPI   C5A 5547   4.824  12.217   7.555 -0.3493 -0.0833  0.2034
  347loPI   C6A 5548   4.966  12.125   7.131  0.2484  0.0227  0.0714
  347loPI   C1B 5549   4.739  11.527   9.067 -0.2788 -0.2123  0.1527
  347loPI   C2B 5550   4.717  11.503   8.682 -0.0362 -0.1184  0.0274
  347loPI   C3B 5551   4.665  11.625   8.269  0.0318 -0.1591  0.2597
  347loPI   C4B 5552   4.989  11.680   8.005  0.1337  0.4245  0.1396
  348loPI    C1 5553   8.843   6.947  10.621  0.1461 -0.0079 -0.0734
  348loPI    C2 5554   8.989   7.063  10.975  0.1140  0.0548 -0.0807
  348loPI    C3 5555   8.595   7.010  10.928  0.1208  0.0208 -0.0996
  348loPI   PO4 5556   8.906   7.096  10.430 -0.4524  0.1326 -0.0583
  348loPI   GL1 5557   8.950   7.212  10.026  0.3748 -0.0710  0.1852
  348loPI   GL2 5558   8.835   6.843  10.007  0.1131 -0.2305 -0.0811
  348loPI   C1A 5559   8.722   7.138   9.636  0.0065 -0.0434 -0.0093
  348loPI   C2A 5560   8.339   7.251   9.580 -0.2443 -0.2181  0.0290
  348loPI   C3A 5561   7.925   7.283   9.443  0.1870  0.1708 -0.4263
  348loPI   C4A 5562   7.910   7.402   9.049 -0.0979 -0.3488 -0.0032
  348loPI   C5A 5563   7.776   7.658   8.714  0.3397  0.2337  0.1585
  348loPI   C6A 5564   7.729   7.747   8.261 -0.0101 -0.2126  0.1494
  348loPI   C1B 5565   8.881   6.614   9.686 -0.3315  0.0963 -0.2042
  348loPI   C2B 5566   8.990   6.817   9.277 -0.1335 -0.1852  0.1157
  348loPI   C3B 5567   8.717   7.050   9.103  0.0247  0.0596  0.1147
  348loPI   C4B 5568   8.394   7.271   9.031  0.1166 -0.0832  0.1484
  349loPI    C1 5569  14.691   1.527  10.427 -0.0911 -0.1365  0.0396
  349loPI    C2 5570  14.777   1.846  10.652 -0.1141 -0.1280  0.0363
  349loPI    C3 5571  14.570   1.541  10.808 -0.2238 -0.0749 -0.0040
  349loPI   PO4 5572  14.865   1.410  10.196 -0.0081  0.1123 -0.1412
  349loPI   GL1 5573  14.797   1.449   9.839 -0.1227  0.1379 -0.1471
  349loPI   GL2 5574  14.967   1.658   9.577 -0.0325 -0.1769  0.1058
  349loPI   C1A 5575  14.806   1.226   9.311 -0.4115  0.1096  0.0511
  349loPI   C2A 5576  14.551   1.369   8.967  0.2401  0.2308 -0.0986
  349loPI   C3A 5577  14.469   1.501   8.525 -0.0498 -0.2829 -0.2772
  349loPI   C4A 5578  14.362   1.638   8.127  0.3632  0.0677 -0.1417
  349loPI   C5A 5579  14.160   1.834   7.848 -0.2462 -0.0712  0.0559
  349loPI   C6A 5580  14.264   2.051   7.494  0.0049 -0.1044 -0.0392
  349loPI   C1B 5581  14.878   1.681   9.164 -0.1030 -0.0768 -0.1056
  349loPI   C2B 5582  14.904   1.792   8.718 -0.1089  0.0127  0.1038
  349loPI   C3B 5583  14.943   1.991   8.356  0.1447 -0.0701  0.0294
  349loPI   C4B 5584  14.909   2.067   7.996 -0.3241 -0.1004 -0.1232
  350loPI    C1 5585   6.675  16.282  10.395 -0.3610  0.0003 -0.0880
  350loPI    C2 5586   6.723  16.652  10.538  0.0403 -0.0923  0.0320
  350loPI    C3 5587   6.421  16.425  10.669 -0.2093  0.1889 -0.0435
  350loPI   PO4 5588   6.628  16.353  10.004  0.2247 -0.0621 -0.0061
  350loPI   GL1 5589   6.712  16.415   9.579  0.4177 -0.0995  0.3214
  350loPI   GL2 5590   6.485  16.527   9.561  0.0490 -0.0588  0.1328
  350loPI   C1A 5591   6.852  16.241   9.162 -0.0218  0.3160 -0.0674
  350loPI   C2A 5592   6.858  16.333   8.761 -0.1429  0.1710  0.0589
  350loPI   C3A 5593   6.810  16.412   8.387 -0.0104  0.2914  0.0469
  350loPI   C4A 5594   6.753  16.436   7.992 -0.2482 -0.2738 -0.1183
  350loPI   C5A 5595   6.633  16.433   7.642  0.1046 -0.1186 -0.2172
  350loPI   C6A 5596   6.236  16.538   7.407  0.0299 -0.0332 -0.0417
  350loPI   C1B 5597   6.357  16.639   9.120  0.1711 -0.1922  0.0841
  350loPI   C2B 5598   6.441  16.610   8.713 -0.1591  0.0771  0.3411
  350loPI   C3B 5599   6.398  16.671   8.244  0.2886 -0.0536 -0.1146
  350loPI   C4B 5600   6.197  16.396   8.044 -0.0576  0.1571 -0.1084
  351loPI    C1 5601  10.990   9.057  10.451  0.1353  0.3590 -0.0653
  351loPI    C2 5602  11.007   8.986  10.844  0.0340  0.1292 -0.1005
  351loPI    C3 5603  10.703   9.196  10.691 -0.0685 -0.0090 -0.0882
  351loPI   PO4 5604  11.047   8.808  10.380 -0.1036  0.2208 -0.2274
  351loPI   GL1 5605  10.884   8.600   9.960 -0.3680 -0.2210 -0.0812
  351loPI   GL2 5606  11.286   8.640   9.944 -0.1970 -0.0752  0.0663
  351loPI   C1A 5607  10.819   8.495   9.552 -0.1858 -0.1478 -0.0373
  351loPI   C2A 5608  10.600   8.452   9.114  0.1462 -0.1879 -0.1467
  351loPI   C3A 5609  10.445   8.522   8.716  0.3041  0.0286  0.3317
  351loPI   C4A 5610  10.280   8.387   8.290  0.0518  0.3364  0.0745
  351loPI   C5A 5611  10.240   8.307   7.841 -0.3066  0.0792 -0.3435
  351loPI   C6A 5612  10.032   8.058   7.530  0.1701 -0.2638 -0.3034
  351loPI   C1B 5613  11.112   8.881   9.533 -0.2523 -0.2803 -0.0930
  351loPI   C2B 5614  10.792   8.917   9.205 -0.2094 -0.2100 -0.1164
  351loPI   C3B 5615  10.887   8.813   8.842  0.1838  0.0689 -0.0503
  351loPI   C4B 5616  10.943   8.892   8.396 -0.0046 -0.0933 -0.0670
  352loPI    C1 5617   2.316  15.251   9.802 -0.3906 -0.2138 -0.0027
  352loPI    C2 5618   2.438  15.307  10.179 -0.1242 -0.1776 -0.0916
  352loPI    C3 5619   2.060  15.197  10.104 -0.2127 -0.0645  0.1772
  352loPI   PO4 5620   2.528  15.065   9.699  0.0808  0.1904  0.3070
  352loPI   GL1 5621   2.572  15.107   9.317 -0.0590 -0.0815  0.1721
  352loPI   GL2 5622   2.836  15.261   9.261 -0.2796 -0.3728  0.0048
  352loPI   C1A 5623   2.485  14.974   8.912 -0.2133  0.0066  0.1181
  352loPI   C2A 5624   2.515  15.175   8.482  0.2798  0.0519  0.1250
  352loPI   C3A 5625   2.594  15.280   8.059  0.1717 -0.0358 -0.0485
  352loPI   C4A 5626   2.583  15.527   7.730 -0.0275 -0.0051  0.2524
  352loPI   C5A 5627   2.284  15.796   7.497 -0.1265 -0.1986 -0.2146
  352loPI   C6A 5628   2.159  16.160   7.574  0.3446  0.0809  0.0538
  352loPI   C1B 5629   2.873  15.233   8.796  0.0373  0.0925  0.1164
  352loPI   C2B 5630   2.925  15.470   8.463 -0.1395 -0.0793  0.0101
  352loPI   C3B 5631   2.923  15.752   8.033  0.1686 -0.1750 -0.1070
  352loPI   C4B 5632   3.222  16.105   7.844  0.1333 -0.2199 -0.3960
  353loPI    C1 5633   9.190  16.365  10.194 -0.0986  0.0663  0.1696
  353loPI    C2 5634   9.543  16.398  10.380 -0.0783  0.1699  0.1129
  353loPI    C3 5635   9.370  16.039  10.342  0.0313  0.1159  0.1219
  353loPI   PO4 5636   9.234  16.463   9.940  0.0763 -0.1307  0.0805
  353loPI   GL1 5637   9.422  16.347   9.592  0.1201  0.0309 -0.1389
  353loPI   GL2 5638   9.772  16.242   9.417 -0.0756 -0.1526 -0.1916
  353loPI   C1A 5639   9.327  16.737   9.343  0.0108 -0.2157 -0.0375
  353loPI   C2A 5640   9.351  16.766   8.921 -0.1322  0.2734 -0.1431
  353loPI   C3A 5641   9.350  16.860   8.444 -0.0057  0.0563 -0.3782
  353loPI   C4A 5642   9.171  16.837   8.100 -0.0135  0.1653  0.0201
  353loPI   C5A 5643   8.959  17.045   7.773  0.0498  0.0730  0.0366
  353loPI   C6A 5644   8.796  17.252   7.462 -0.0533  0.3852  0.0170
  353loPI   C1B 5645   9.415  16.292   9.090  0.1057  0.3019 -0.0078
  353loPI   C2B 5646   9.319  16.339   8.610  0.5516  0.0217  0.1842
  353loPI   C3B 5647   9.133  16.254   8.202  0.0145  0.2793  0.0246
  353loPI   C4B 5648   9.147  15.996   7.761 -0.1862 -0.1382  0.2676
  354loPI    C1 5649  14.852  11.468   9.929 -0.1986  0.0276  0.1939
  354loPI    C2 5650  14.795  11.353  10.308  0.4124 -0.1266  0.2495
  354loPI    C3 5651  15.075  11.626  10.221  0.0248  0.1866 -0.0575
  354loPI   PO4 5652  14.652  11.291   9.818 -0.1552 -0.0543 -0.0627
  354loPI   GL1 5653  14.543  11.103   9.474  0.1767 -0.0153  0.0103
  354loPI   GL2 5654  14.276  11.113   9.281  0.0626 -0.1677 -0.0623
  354loPI   C1A 5655  14.670  11.041   9.024 -0.0902 -0.2252  0.0542
  354loPI   C2A 5656  14.928  11.059   8.597 -0.0795 -0.2224  0.1876
  354loPI   C3A 5657  14.861  11.212   8.128 -0.1100  0.0907  0.4066
  354loPI   C4A 5658  14.888  11.050   7.705  0.0736  0.1784 -0.2151
  354loPI   C5A 5659  14.923  10.861   7.328  0.0685  0.0964  0.1418
  354loPI   C6A 5660  14.805  10.461   7.241  0.2231  0.0125 -0.0644
  354loPI   C1B 5661  14.167  11.293   8.959  0.3327  0.2365  0.0707
  354loPI   C2B 5662  13.988  11.387   8.555  0.2021  0.1588  0.1254
  354loPI   C3B 5663  13.927  11.408   8.137  0.1885  0.0755 -0.5590
  354loPI   C4B 5664  13.982  11.507   7.798  0.0357 -0.0005 -0.0292
  355loPI    C1 5665  17.332   1.594  10.131  0.2164 -0.0595 -0.0883
  355loPI    C2 5666  17.499   1.239  10.052 -0.0571 -0.1546 -0.2509
  355loPI    C3 5667  17.105   1.265  10.116 -0.0331  0.1150 -0.2023
  355loPI   PO4 5668  17.439   1.754   9.970  0.3631  0.3191 -0.0482
  355loPI   GL1 5669  17.501   1.852   9.558 -0.3807  0.2587 -0.0372
  355loPI   GL2 5670  17.882   1.793   9.412 -0.3800  0.1420  0.0731
  355loPI   C1A 5671  17.448   1.858   9.070  0.0197  0.0335 -0.0791
  355loPI   C2A 5672  17.397   1.650   8.636 -0.1748 -0.0735 -0.1137
  355loPI   C3A 5673  17.343   1.603   8.213  0.2485  0.0156 -0.0705
  355loPI   C4A 5674  17.081   1.496   8.003  0.1047  0.2325  0.3001
  355loPI   C5A 5675  16.919   1.606   7.630 -0.1987  0.4132 -0.0643
  355loPI   C6A 5676  16.523   1.579   7.387 -0.1416  0.0474  0.1923
  355loPI   C1B 5677  17.711   1.397   9.224 -0.2352  0.1468  0.1017
  355loPI   C2B 5678  17.507   1.140   8.802 -0.0135 -0.0188 -0.0330
  355loPI   C3B 5679  17.627   0.841   8.572 -0.0590 -0.0274 -0.2856
  355loPI   C4B 5680  17.439   0.653   8.309  0.1449  0.1175 -0.2666
  356loPI    C1 5681  15.330   1.481  10.056 -0.3633  0.0427  0.0422
  356loPI    C2 5682  15.514   1.148  10.180 -0.3819  0.0210  0.0114
  356loPI    C3 5683  15.572   1.493  10.374  0.0170  0.1043 -0.2423
  356loPI   PO4 5684  15.388   1.482   9.810 -0.1080  0.4585 -0.0052
  356loPI   GL1 5685  15.289   1.376   9.413  0.2935 -0.3582 -0.2140
  356loPI   GL2 5686  15.342   1.022   9.392  0.3067  0.0558  0.2768
  356loPI   C1A 5687  15.330   1.506   8.949 -0.1864  0.2964 -0.1862
  356loPI   C2A 5688  15.358   1.597   8.432 -0.1567 -0.0985 -0.0963
  356loPI   C3A 5689  15.594   1.619   8.112 -0.3017 -0.1817  0.1140
  356loPI   C4A 5690  15.634   1.599   7.641  0.1306  0.1822 -0.0122
  356loPI   C5A 5691  15.516   1.388   7.274  0.0194 -0.0288  0.3442
  356loPI   C6A 5692  15.198   1.277   6.949 -0.1280  0.0842 -0.0788
  356loPI   C1B 5693  15.061   1.095   8.893 -0.0719  0.2458 -0.0329
  356loPI   C2B 5694  14.931   1.270   8.550 -0.0489 -0.2227  0.0168
  356loPI   C3B 5695  14.833   1.467   8.185 -0.4365  0.1898 -0.0951
  356loPI   C4B 5696  14.712   1.220   7.823 -0.2152 -0.2653  0.1653
  357loPI    C1 5697   5.339   7.514   9.883 -0.1374  0.0535 -0.0382
  357loPI    C2 5698   5.659   7.381   9.683 -0.1059  0.1360 -0.0431
  357loPI    C3 5699   5.660   7.385  10.083 -0.1493  0.0188 -0.0411
  357loPI   PO4 5700   5.283   7.696   9.786  0.1625 -0.1308 -0.1059
  357loPI   GL1 5701   5.144   7.836   9.282 -0.0957 -0.1898  0.3343
  357loPI   GL2 5702   5.079   8.138   9.174  0.0807  0.0417  0.0693
  357loPI   C1A 5703   5.161   7.886   8.769  0.0193  0.0592 -0.0318
  357loPI   C2A 5704   5.125   7.731   8.422  0.0076  0.0914 -0.2699
  357loPI   C3A 5705   5.285   7.437   8.038 -0.1808 -0.0390  0.0768
  357loPI   C4A 5706   5.690   7.314   7.770 -0.0337 -0.1215 -0.3237
  357loPI   C5A 5707   6.039   7.315   7.475 -0.2999 -0.0680  0.1092
  357loPI   C6A 5708   5.881   7.329   7.116 -0.2268 -0.2790 -0.1013
  357loPI   C1B 5709   5.235   8.369   8.800  0.0972  0.0862  0.2326
  357loPI   C2B 5710   5.207   8.648   8.433 -0.0445  0.3758  0.1698
  357loPI   C3B 5711   5.400   8.533   7.970  0.3306  0.0439  0.2091
  357loPI   C4B 5712   5.374   8.807   7.579 -0.1263 -0.0997  0.1932
  358loPI    C1 5713  15.456  16.139  10.365 -0.0754 -0.0224  0.1448
  358loPI    C2 5714  15.452  16.186  10.762  0.0410 -0.0786  0.1532
  358loPI    C3 5715  15.800  16.139  10.570 -0.0091  0.0268  0.0350
  358loPI   PO4 5716  15.227  15.923  10.293 -0.4825 -0.2051  0.2521
  358loPI   GL1 5717  14.996  16.053   9.908  0.0920 -0.0599  0.0085
  358loPI   GL2 5718  14.779  16.351   9.975 -0.1094  0.0271  0.0404
  358loPI   C1A 5719  14.924  16.014   9.537  0.1492  0.0613 -0.2288
  358loPI   C2A 5720  14.995  16.065   9.046  0.1248  0.0965  0.1811
  358loPI   C3A 5721  15.059  16.110   8.628  0.2187 -0.1140 -0.1918
  358loPI   C4A 5722  15.196  15.969   8.170  0.1191 -0.2063 -0.3293
  358loPI   C5A 5723  14.873  15.809   7.945 -0.3982 -0.0754 -0.0672
  358loPI   C6A 5724  14.911  15.362   7.717  0.1681 -0.0094  0.0435
  358loPI   C1B 5725  14.718  16.486   9.689  0.3589  0.3141  0.1957
  358loPI   C2B 5726  14.903  16.527   9.326  0.0905  0.2686 -0.2821
  358loPI   C3B 5727  14.850  16.526   8.872  0.1709 -0.0420  0.4109
  358loPI   C4B 5728  14.512  16.449   8.763 -0.2314  0.0378 -0.2183
  359loPI    C1 5729   2.951   7.426  10.440 -0.1571 -0.1561 -0.0174
  359loPI    C2 5730   3.109   7.636  10.742  0.0259 -0.2399 -0.0537
  359loPI    C3 5731   2.724   7.685  10.645  0.0197 -0.0582  0.0572
  359loPI   PO4 5732   3.130   7.474  10.223 -0.2327  0.1087  0.1433
  359loPI   GL1 5733   3.072   7.345   9.869 -0.1409  0.0176  0.0814
  359loPI   GL2 5734   2.917   7.132   9.892 -0.2336 -0.1350 -0.0506
  359loPI   C1A 5735   3.242   7.511   9.421  0.2436 -0.0037 -0.0429
  359loPI   C2A 5736   3.089   7.508   8.930  0.1457  0.1289 -0.0161
  359loPI   C3A 5737   3.213   7.448   8.410  0.0101  0.1102 -0.2807
  359loPI   C4A 5738   3.272   7.559   7.973  0.2201  0.0081  0.1577
  359loPI   C5A 5739   3.452   7.656   7.596 -0.3650  0.1956 -0.0876
  359loPI   C6A 5740   3.888   7.496   7.628  0.1334  0.0215  0.2989
  359loPI   C1B 5741   3.016   7.046   9.459 -0.1144  0.0017 -0.0953
  359loPI   C2B 5742   3.192   6.996   9.008  0.1869  0.0664 -0.1274
  359loPI   C3B 5743   3.198   6.935   8.586 -0.3098 -0.3681  0.4894
  359loPI   C4B 5744   3.498   7.011   8.216  0.2410  0.0405  0.1282
  360loPI    C1 5745   3.506  18.449  10.724  0.0923  0.0862 -0.1969
  360loPI    C2 5746   3.670  18.725  10.963 -0.0253  0.1069 -0.1394
  360loPI    C3 5747   3.888  18.414  10.838 -0.0079  0.0104  0.1260
  360loPI   PO4 5748   3.336  18.607  10.586  0.0912  0.3101  0.1139
  360loPI   GL1 5749   3.298  18.900  10.185  0.2441 -0.1916 -0.1672
  360loPI   GL2 5750   3.267  18.603  10.035 -0.2009 -0.1562 -0.0921
  360loPI   C1A 5751   3.271  19.136   9.886 -0.1689  0.2178 -0.3191
  360loPI   C2A 5752   3.258  19.228   9.458 -0.0478  0.0304 -0.2797
  360loPI   C3A 5753   3.239  19.540   9.122  0.0852  0.2551  0.3087
  360loPI   C4A 5754   3.085  19.821   8.747 -0.2376 -0.1909  0.1001
  360loPI   C5A 5755   2.804  19.916   8.478 -0.1446 -0.3665  0.0544
  360loPI   C6A 5756   2.578  19.810   8.111  0.1466  0.0437 -0.0049
  360loPI   C1B 5757   3.465  18.692   9.673 -0.0175  0.0039  0.3303
  360loPI   C2B 5758   3.639  18.779   9.197  0.1961  0.5162 -0.1054
  360loPI   C3B 5759   3.726  18.882   8.811 -0.1692  0.1433  0.1219
  360loPI   C4B 5760   3.721  19.133   8.353  0.0350 -0.0924 -0.1588
  361loPI    C1 5761  17.296   7.206   9.950  0.0774  0.0569  0.1801
  361loPI    C2 5762  16.989   7.448   9.864  0.0576 -0.0032  0.0793
  361loPI    C3 5763  17.232   7.534  10.170  0.0385  0.1328  0.0570
  361loPI   PO4 5764  17.262   6.979   9.865 -0.2152 -0.0578  0.0931
  361loPI   GL1 5765  17.277   6.816   9.501 -0.1367  0.3013 -0.0464
  361loPI   GL2 5766  17.578   7.002   9.272  0.1678  0.2231 -0.1804
  361loPI   C1A 5767  17.233   6.760   9.049  0.2822  0.0520  0.0347
  361loPI   C2A 5768  17.126   6.876   8.677  0.0836  0.1043  0.0349
  361loPI   C3A 5769  16.992   7.008   8.320  0.0706  0.3209  0.0479
  361loPI   C4A 5770  16.884   7.117   7.833  0.1716  0.1108  0.2799
  361loPI   C5A 5771  16.782   7.394   7.519 -0.0149  0.2581 -0.0346
  361loPI   C6A 5772  16.606   7.490   7.113  0.0850 -0.0466 -0.1837
  361loPI   C1B 5773  17.544   7.195   8.873  0.5108 -0.0684  0.0021
  361loPI   C2B 5774  17.506   7.194   8.421  0.0663 -0.0808  0.0129
  361loPI   C3B 5775  17.470   7.113   7.984 -0.1296 -0.1491 -0.2313
  361loPI   C4B 5776  17.327   7.254   7.591 -0.2844 -0.5057 -0.2802
  362loPI    C1 5777  11.335  10.282   9.961  0.1363 -0.0209 -0.1823
  362loPI    C2 5778  11.160  10.477  10.262  0.0721 -0.0419 -0.2058
  362loPI    C3 5779  11.093  10.086  10.212  0.5472 -0.1721  0.1075
  362loPI   PO4 5780  11.526  10.392   9.911 -0.1365  0.0281  0.0480
  362loPI   GL1 5781  11.634  10.551   9.493 -0.3714 -0.2108 -0.1796
  362loPI   GL2 5782  11.969  10.497   9.482 -0.0998 -0.2326 -0.0997
  362loPI   C1A 5783  11.277  10.812   9.290  0.0298 -0.1089  0.1747
  362loPI   C2A 5784  11.214  10.797   8.834  0.1341 -0.0740 -0.0002
  362loPI   C3A 5785  11.368  10.959   8.421 -0.2571  0.2947  0.1918
  362loPI   C4A 5786  11.330  10.919   7.961 -0.3146 -0.3149  0.0410
  362loPI   C5A 5787  11.062  11.056   7.627 -0.1018 -0.1781  0.0597
  362loPI   C6A 5788  10.652  11.029   7.480 -0.1454  0.0745  0.0778
  362loPI   C1B 5789  11.889  10.792   9.175 -0.1365  0.3056 -0.1100
  362loPI   C2B 5790  11.693  10.961   8.814 -0.0461 -0.0448 -0.0076
  362loPI   C3B 5791  11.887  11.131   8.449 -0.0256  0.0216  0.1177
  362loPI   C4B 5792  11.753  11.163   8.168 -0.0343  0.2052 -0.2810
  363loPI    C1 5793   5.965   1.251  10.444 -0.0465  0.1664 -0.1045
  363loPI    C2 5794   5.891   1.331  10.829 -0.2397  0.0456 -0.1150
  363loPI    C3 5795   6.078   0.992  10.728  0.0418  0.1963 -0.1119
  363loPI   PO4 5796   5.756   1.428  10.340 -0.0575  0.0135 -0.2212
  363loPI   GL1 5797   5.692   1.495   9.982  0.1838 -0.0836  0.1060
  363loPI   GL2 5798   5.881   1.655   9.824 -0.0163 -0.1784 -0.2733
  363loPI   C1A 5799   5.745   1.258   9.554  0.3526 -0.0641  0.1056
  363loPI   C2A 5800   5.758   1.226   9.095  0.2324 -0.1399 -0.2616
  363loPI   C3A 5801   5.665   1.234   8.603 -0.2866 -0.2153  0.0733
  363loPI   C4A 5802   5.522   1.086   8.201 -0.0048  0.3572  0.0374
  363loPI   C5A 5803   5.284   1.198   7.858 -0.0902 -0.2243  0.0701
  363loPI   C6A 5804   5.531   1.423   7.523  0.4806  0.0228 -0.1225
  363loPI   C1B 5805   5.694   1.792   9.515  0.2732 -0.2199 -0.0528
  363loPI   C2B 5806   5.483   1.668   9.140 -0.1496  0.0037  0.0039
  363loPI   C3B 5807   5.335   1.565   8.754 -0.0411  0.3093 -0.0015
  363loPI   C4B 5808   5.262   1.526   8.355  0.0911 -0.3276 -0.0344
  364loPI    C1 5809  17.748  15.663  10.662 -0.2076 -0.2230  0.4047
  364loPI    C2 5810  18.127  15.780  10.713 -0.1384 -0.1088 -0.2807
  364loPI    C3 5811  17.826  16.025  10.813 -0.0381 -0.1657  0.1837
  364loPI   PO4 5812  17.839  15.552  10.444  0.2250  0.1009  0.1970
  364loPI   GL1 5813  17.865  15.734   9.999 -0.2146 -0.0139 -0.0686
  364loPI   GL2 5814  17.973  15.553   9.896 -0.0726  0.0169 -0.2113
  364loPI   C1A 5815  17.496  15.819   9.640 -0.2087  0.0369  0.0530
  364loPI   C2A 5816  17.231  15.882   9.266 -0.1003  0.2095 -0.0261
  364loPI   C3A 5817  17.302  16.099   8.831  0.0738  0.0809 -0.2630
  364loPI   C4A 5818  17.281  16.230   8.422  0.0338  0.2897  0.1334
  364loPI   C5A 5819  17.521  16.195   8.039  0.0980  0.4449  0.3866
  364loPI   C6A 5820  17.704  16.238   7.747  0.2621  0.2443  0.1590
  364loPI   C1B 5821  18.007  15.689   9.550  0.1639 -0.0060  0.1256
  364loPI   C2B 5822  18.094  15.796   9.175  0.4672 -0.4696 -0.1690
  364loPI   C3B 5823  18.095  15.827   8.761  0.1138 -0.1401 -0.0639
  364loPI   C4B 5824  18.043  15.550   8.334 -0.1706 -0.1349 -0.0322
  365loPI    C1 5825   6.014   8.695  10.291 -0.1979 -0.1324 -0.0879
  365loPI    C2 5826   6.374   8.576  10.418 -0.2315 -0.3223 -0.1683
  365loPI    C3 5827   6.053   8.521  10.649 -0.1674  0.1306  0.0395
  365loPI   PO4 5828   6.086   8.820  10.056  0.1403 -0.1280 -0.2573
  365loPI   GL1 5829   6.127   8.809   9.577  0.0298 -0.0629  0.0016
  365loPI   GL2 5830   6.247   9.087   9.673 -0.0036 -0.3098  0.3619
  365loPI   C1A 5831   6.326   8.578   9.242  0.0722 -0.0001  0.1235
  365loPI   C2A 5832   6.358   8.553   8.819 -0.0911 -0.2574 -0.2347
  365loPI   C3A 5833   6.481   8.470   8.377 -0.2246  0.0318 -0.1493
  365loPI   C4A 5834   6.452   8.617   8.007  0.1161  0.2230 -0.0262
  365loPI   C5A 5835   6.411   8.636   7.495 -0.3487 -0.1096  0.0695
  365loPI   C6A 5836   6.204   8.311   7.336 -0.1147 -0.1098 -0.2905
  365loPI   C1B 5837   6.594   9.021   9.309  0.0985 -0.0488 -0.0328
  365loPI   C2B 5838   6.663   8.997   8.873  0.0928  0.0168 -0.2739
  365loPI   C3B 5839   6.710   8.953   8.399 -0.1026 -0.1306  0.0553
  365loPI   C4B 5840   6.870   8.947   7.953 -0.0672 -0.2041 -0.1964
  366loPI    C1 5841  16.698  17.880  10.463 -0.2163  0.1918 -0.0783
  366loPI    C2 5842  16.547  17.910  10.832  0.1595  0.1196  0.0862
  366loPI    C3 5843  16.686  18.236  10.645  0.0689  0.1381  0.0503
  366loPI   PO4 5844  16.904  17.642  10.399 -0.3820 -0.1941  0.2314
  366loPI   GL1 5845  17.078  17.585   9.953 -0.1865 -0.3585 -0.1145
  366loPI   GL2 5846  16.785  17.804   9.947  0.2088  0.2171 -0.2196
  366loPI   C1A 5847  16.860  17.501   9.575 -0.1465  0.2597 -0.1771
  366loPI   C2A 5848  16.979  17.324   9.180  0.2562  0.0099  0.0369
  366loPI   C3A 5849  17.028  17.244   8.859  0.1734  0.1964  0.0925
  366loPI   C4A 5850  17.088  17.210   8.402 -0.1406 -0.1856 -0.1383
  366loPI   C5A 5851  17.232  17.617   8.111  0.3151 -0.0394 -0.0576
  366loPI   C6A 5852  17.376  17.459   7.811 -0.0249  0.0342 -0.0683
  366loPI   C1B 5853  16.991  17.950   9.618  0.0325 -0.0386 -0.0201
  366loPI   C2B 5854  17.081  17.926   9.275  0.0009  0.1432  0.0460
  366loPI   C3B 5855  17.248  17.720   8.975  0.1458  0.0867  0.1616
  366loPI   C4B 5856  17.294  17.628   8.618  0.1462  0.3498 -0.2322
  367loPI    C1 5857  18.158   5.532   9.971  0.0626  0.1340 -0.0656
  367loPI    C2 5858  18.002   5.174  10.055  0.1020  0.0637 -0.2853
  367loPI    C3 5859  18.356   5.279  10.209  0.0025  0.0853 -0.0671
  367loPI   PO4 5860  17.924   5.722   9.954 -0.3580  0.1759 -0.1158
  367loPI   GL1 5861  17.951   5.823   9.517  0.0023 -0.0123  0.1315
  367loPI   GL2 5862  18.085   5.574   9.482 -0.0443 -0.1039  0.1524
  367loPI   C1A 5863  17.660   6.000   9.109 -0.2908  0.0637  0.2514
  367loPI   C2A 5864  17.697   6.095   8.743  0.0321 -0.1468  0.3198
  367loPI   C3A 5865  17.704   6.174   8.373 -0.1019 -0.1097 -0.1662
  367loPI   C4A 5866  17.625   6.155   7.925 -0.1381  0.2293 -0.2598
  367loPI   C5A 5867  17.592   6.247   7.474  0.0029  0.0245 -0.0350
  367loPI   C6A 5868  17.591   6.405   7.079 -0.0576 -0.0178 -0.3107
  367loPI   C1B 5869  17.829   5.524   9.089  0.2841  0.0827  0.0532
  367loPI   C2B 5870  17.738   5.591   8.690  0.0467 -0.2650 -0.1150
  367loPI   C3B 5871  17.581   5.584   8.293  0.0368 -0.1173  0.3694
  367loPI   C4B 5872  17.726   5.679   7.923  0.0159  0.1047  0.1394
  368loPI    C1 5873   6.356   1.515  10.259  0.0872  0.0446 -0.3071
  368loPI    C2 5874   6.396   1.118  10.283  0.1239  0.0493 -0.2908
  368loPI    C3 5875   6.477   1.347  10.601 -0.0449  0.0578 -0.2535
  368loPI   PO4 5876   6.447   1.596  10.068 -0.0016 -0.0530  0.0197
  368loPI   GL1 5877   6.339   1.395   9.718 -0.1307 -0.0432 -0.1130
  368loPI   GL2 5878   6.186   1.235   9.851  0.0752 -0.0933  0.0590
  368loPI   C1A 5879   6.137   1.602   9.355  0.0389  0.1082 -0.1847
  368loPI   C2A 5880   5.976   1.630   8.940 -0.0906 -0.2275 -0.0847
  368loPI   C3A 5881   5.981   1.650   8.528 -0.3313  0.3203  0.2599
  368loPI   C4A 5882   5.725   1.563   8.189  0.2104  0.0343  0.0518
  368loPI   C5A 5883   5.394   1.730   7.928 -0.2073  0.0258  0.0736
  368loPI   C6A 5884   5.272   2.078   7.679  0.1124 -0.0807 -0.1080
  368loPI   C1B 5885   6.203   1.073   9.400  0.0887 -0.0914 -0.3805
  368loPI   C2B 5886   6.359   1.215   9.011  0.1247  0.4600 -0.1235
  368loPI   C3B 5887   6.272   1.301   8.539 -0.0534  0.1166 -0.1386
  368loPI   C4B 5888   6.191   1.239   8.141  0.0738  0.0301  0.2001
  369loPI    C1 5889  13.893   1.740  10.376  0.0481  0.1362  0.0310
  369loPI    C2 5890  14.102   1.967  10.121  0.0027  0.1371 -0.0053
  369loPI    C3 5891  14.279   1.819  10.447  0.0805  0.0753 -0.0753
  369loPI   PO4 5892  13.814   1.539  10.210  0.1403  0.0030 -0.0790
  369loPI   GL1 5893  13.690   1.711   9.862  0.1298 -0.3634 -0.1651
  369loPI   GL2 5894  13.898   1.738   9.746 -0.1509 -0.0811 -0.0241
  369loPI   C1A 5895  13.379   1.687   9.503 -0.3159 -0.1111 -0.0703
  369loPI   C2A 5896  13.436   1.804   9.014  0.2841 -0.0918 -0.2909
  369loPI   C3A 5897  13.465   1.934   8.555 -0.1803  0.0688  0.0965
  369loPI   C4A 5898  13.313   1.994   8.149  0.3849  0.3829 -0.2405
  369loPI   C5A 5899  13.379   2.312   7.871 -0.3093  0.2188  0.1189
  369loPI   C6A 5900  13.568   2.673   8.031  0.1637  0.1099 -0.1486
  369loPI   C1B 5901  13.819   1.833   9.291 -0.1580  0.0338 -0.0850
  369loPI   C2B 5902  13.992   2.028   8.826  0.0594  0.0171  0.1767
  369loPI   C3B 5903  14.082   2.360   8.576  0.1372 -0.1060 -0.1494
  369loPI   C4B 5904  14.042   2.638   8.247 -0.0400  0.1112  0.0703
  370loPI    C1 5905   0.542   6.609   9.877  0.1607  0.0225  0.0380
  370loPI    C2 5906   0.758   6.629  10.213 -0.0547  0.1260  0.1724
  370loPI    C3 5907   0.380   6.498  10.226 -0.1612  0.4118  0.0190
  370loPI   PO4 5908   0.774   6.554   9.667  0.0212 -0.0685  0.1617
  370loPI   GL1 5909   0.834   6.503   9.347  0.0434  0.2169  0.1187
  370loPI   GL2 5910   0.906   6.843   9.191 -0.3188 -0.0679  0.1266
  370loPI   C1A 5911   0.835   6.183   9.076 -0.0721 -0.1947 -0.1356
  370loPI   C2A 5912   0.742   5.899   8.803 -0.2373 -0.1891  0.0157
  370loPI   C3A 5913   1.039   5.595   8.441 -0.0185 -0.1611 -0.2407
  370loPI   C4A 5914   1.149   5.507   8.051 -0.0927 -0.0220  0.0256
  370loPI   C5A 5915   1.379   5.462   7.689  0.0234 -0.0416 -0.0781
  370loPI   C6A 5916   1.419   5.319   7.210 -0.1631  0.2041  0.1087
  370loPI   C1B 5917   0.746   6.850   8.768  0.3346  0.1467  0.1316
  370loPI   C2B 5918   0.624   6.789   8.398  0.2095  0.0955  0.0566
  370loPI   C3B 5919   0.859   6.532   8.133 -0.2525  0.0239 -0.0368
  370loPI   C4B 5920   0.942   6.510   7.677  0.0844 -0.2076 -0.0826
  371loPI    C1 5921  18.764   2.499  10.220  0.1305  0.2191  0.3034
  371loPI    C2 5922  18.399   2.615  10.336 -0.0107 -0.0406  0.1277
  371loPI    C3 5923  18.549   2.267  10.464  0.0760 -0.0487  0.0059
  371loPI   PO4 5924  18.830   2.544  10.019  0.0696  0.0560 -0.0548
  371loPI   GL1 5925  18.925   2.454   9.572 -0.1945  0.1119 -0.1951
  371loPI   GL2 5926  19.116   2.720   9.402 -0.1952  0.0646  0.0883
  371loPI   C1A 5927  18.688   2.279   9.284  0.1091 -0.0965  0.1382
  371loPI   C2A 5928  18.646   2.236   8.775 -0.1627 -0.2628 -0.1040
  371loPI   C3A 5929  18.730   2.273   8.341 -0.2535  0.0339 -0.1171
  371loPI   C4A 5930  18.732   2.458   7.945 -0.0296  0.1329 -0.0237
  371loPI   C5A 5931  18.601   2.652   7.525 -0.0477  0.0362 -0.0019
  371loPI   C6A 5932  18.473   2.975   7.285 -0.1536  0.1032 -0.2087
  371loPI   C1B 5933  19.471   2.709   9.198  0.1082  0.3001 -0.0287
  371loPI   C2B 5934  19.585   2.661   8.741 -0.0029 -0.2437  0.1937
  371loPI   C3B 5935  19.565   2.501   8.311  0.2174  0.2419 -0.1436
  371loPI   C4B 5936  19.789   2.654   7.885 -0.1129 -0.3048  0.1404
  372loPI    C1 5937  11.307  15.633   9.926  0.1845 -0.0739  0.1823
  372loPI    C2 5938  11.082  15.924  10.083 -0.0174 -0.2370  0.1998
  372loPI    C3 5939  11.479  15.968  10.060 -0.0688  0.1496 -0.0401
  372loPI   PO4 5940  11.190  15.552   9.744 -0.1958  0.2866  0.1977
  372loPI   GL1 5941  10.953  15.717   9.441  0.0598  0.0920 -0.0494
  372loPI   GL2 5942  11.317  15.645   9.317 -0.2148 -0.2505 -0.0091
  372loPI   C1A 5943  10.787  15.483   9.140  0.0965  0.2474 -0.0740
  372loPI   C2A 5944  10.625  15.332   8.736 -0.0819  0.1897  0.2752
  372loPI   C3A 5945  10.713  15.232   8.358 -0.0177 -0.0489 -0.0314
  372loPI   C4A 5946  10.824  15.382   7.966  0.0721  0.3033 -0.2077
  372loPI   C5A 5947  10.895  15.366   7.544  0.2664 -0.0195  0.2116
  372loPI   C6A 5948  10.884  15.242   7.147  0.0061 -0.1521  0.2468
  372loPI   C1B 5949  11.165  15.686   8.838  0.1507  0.1104 -0.0413
  372loPI   C2B 5950  11.155  15.586   8.340 -0.1135 -0.0843 -0.3180
  372loPI   C3B 5951  11.321  15.641   7.952 -0.2435 -0.1744 -0.0800
  372loPI   C4B 5952  11.308  15.822   7.578  0.1846 -0.3740 -0.1427
  373loPI    C1 5953  18.835  14.015  10.311  0.0204  0.0197 -0.0130
  373loPI    C2 5954  18.876  14.330  10.068 -0.0883  0.2767  0.2941
  373loPI    C3 5955  19.108  14.297  10.392  0.0185 -0.0347  0.1888
  373loPI   PO4 5956  18.553  13.965  10.262  0.1932  0.1168  0.0118
  373loPI   GL1 5957  18.372  14.157   9.938 -0.1390  0.5624  0.0906
  373loPI   GL2 5958  18.119  13.952   9.963 -0.1041  0.2387  0.0090
  373loPI   C1A 5959  18.608  14.313   9.562 -0.0983  0.1559  0.3894
  373loPI   C2A 5960  18.550  14.334   9.176 -0.1043  0.0853 -0.0845
  373loPI   C3A 5961  18.787  14.199   8.774  0.0541  0.0234  0.1116
  373loPI   C4A 5962  18.821  14.422   8.359  0.3673  0.0202 -0.4945
  373loPI   C5A 5963  18.940  14.664   8.065  0.0329 -0.0220  0.0243
  373loPI   C6A 5964  18.839  15.014   7.831  0.2147 -0.2228  0.1584
  373loPI   C1B 5965  17.991  13.835   9.561 -0.0153  0.2229 -0.1105
  373loPI   C2B 5966  17.823  13.884   9.179 -0.1638 -0.3157  0.0731
  373loPI   C3B 5967  17.855  13.989   8.702  0.3254  0.0817 -0.0583
  373loPI   C4B 5968  18.011  14.037   8.239  0.3371  0.0333 -0.0392
  374loPI    C1 5969   6.659   5.229  10.360  0.0480  0.0176 -0.0944
  374loPI    C2 5970   6.778   4.980  10.649 -0.1146 -0.0209 -0.0594
  374loPI    C3 5971   6.886   5.365  10.660 -0.1209 -0.0221  0.0525
  374loPI   PO4 5972   6.719   5.063  10.120 -0.1995  0.1626  0.3393
  374loPI   GL1 5973   6.775   4.727   9.780 -0.0330 -0.1393 -0.1057
  374loPI   GL2 5974   6.478   4.496   9.845  0.2063 -0.2593 -0.1585
  374loPI   C1A 5975   6.988   4.688   9.423 -0.2902 -0.1012  0.1774
  374loPI   C2A 5976   7.117   4.688   8.979 -0.0498 -0.1576 -0.0044
  374loPI   C3A 5977   7.012   5.045   8.806  0.0544  0.0576 -0.2974
  374loPI   C4A 5978   7.053   5.216   8.371  0.0798  0.5119  0.2463
  374loPI   C5A 5979   7.004   5.040   7.919  0.1938 -0.1389  0.0878
  374loPI   C6A 5980   6.945   4.776   7.609 -0.4225  0.2346 -0.0451
  374loPI   C1B 5981   6.481   4.212   9.377  0.1391 -0.1292  0.0299
  374loPI   C2B 5982   6.447   4.131   8.964 -0.1011 -0.0461 -0.1430
  374loPI   C3B 5983   6.292   4.266   8.575 -0.2389  0.0028  0.1548
  374loPI   C4B 5984   6.005   4.395   8.258  0.0131 -0.1629  0.0268
  375loPI    C1 5985   1.616  17.424  10.630 -0.0234 -0.0562  0.0591
  375loPI    C2 5986   1.577  17.498  11.021 -0.1269 -0.1901  0.0746
  375loPI    C3 5987   1.643  17.124  10.893  0.2477 -0.0981 -0.0132
  375loPI   PO4 5988   1.411  17.590  10.431 -0.1906  0.1074  0.0280
  375loPI   GL1 5989   1.312  17.737   9.960 -0.4906  0.2701 -0.0894
  375loPI   GL2 5990   1.624  17.842   9.869  0.2754 -0.0034 -0.1767
  375loPI   C1A 5991   1.038  17.694   9.603 -0.0088  0.3560  0.2612
  375loPI   C2A 5992   0.896  17.725   9.163  0.0630  0.1863  0.1557
  375loPI   C3A 5993   0.967  17.515   8.750  0.4038  0.1754  0.3886
  375loPI   C4A 5994   1.126  17.334   8.342 -0.1263 -0.1176 -0.1578
  375loPI   C5A 5995   1.193  17.288   7.857 -0.0969 -0.2470  0.0439
  375loPI   C6A 5996   1.010  17.396   7.467 -0.4127  0.0495  0.1127
  375loPI   C1B 5997   1.684  17.660   9.412 -0.1149 -0.3128  0.1301
  375loPI   C2B 5998   1.419  17.679   9.144 -0.1563  0.1352  0.1502
  375loPI   C3B 5999   1.709  17.624   8.772  0.0477 -0.0511 -0.0963
  375loPI   C4B 6000   2.097  17.594   8.630 -0.0445 -0.1262 -0.1490
  376loPI    C1 6001  16.079  11.500  10.386 -0.1127 -0.3647  0.1816
  376loPI    C2 6002  15.940  11.613  10.744 -0.3016 -0.2876  0.0858
  376loPI    C3 6003  16.320  11.493  10.705 -0.1252  0.2047  0.2143
  376loPI   PO4 6004  16.042  11.696  10.209  0.0835  0.2032 -0.0742
  376loPI   GL1 6005  16.112  11.707   9.720 -0.4215  0.0491  0.1242
  376loPI   GL2 6006  15.892  11.923   9.763  0.0192 -0.0365  0.0626
  376loPI   C1A 6007  15.822  11.613   9.400 -0.3144 -0.0109  0.2151
  376loPI   C2A 6008  15.978  11.631   9.058  0.0386  0.0023  0.0384
  376loPI   C3A 6009  16.071  11.607   8.665 -0.2203 -0.3327 -0.1052
  376loPI   C4A 6010  16.171  11.709   8.263  0.0585  0.2630 -0.2496
  376loPI   C5A 6011  16.088  12.151   8.087  0.2352  0.1547  0.1489
  376loPI   C6A 6012  15.899  12.360   7.827  0.0278  0.3332  0.0742
  376loPI   C1B 6013  15.910  12.082   9.373  0.1578  0.0721 -0.0654
  376loPI   C2B 6014  16.109  12.106   8.978  0.0246 -0.1567  0.1903
  376loPI   C3B 6015  16.010  12.265   8.584 -0.0992  0.1546  0.2865
  376loPI   C4B 6016  15.964  12.574   8.296  0.0341 -0.0219 -0.0585
  377loPI    C1 6017  13.360  18.292  10.397 -0.1583 -0.2317  0.1496
  377loPI    C2 6018  13.460  18.081  10.721 -0.0471  0.0149  0.2783
  377loPI    C3 6019  13.258  18.424  10.760 -0.3887 -0.1559  0.0592
  377loPI   PO4 6020  13.367  18.153  10.196 -0.1197  0.1229  0.4045
  377loPI   GL1 6021  13.301  18.045   9.773  0.1872  0.1654 -0.3191
  377loPI   GL2 6022  13.670  17.891   9.773 -0.0283  0.1691 -0.6813
  377loPI   C1A 6023  13.438  17.790   9.366  0.2532  0.0188 -0.0555
  377loPI   C2A 6024  13.666  17.756   9.064  0.2259 -0.0278  0.1157
  377loPI   C3A 6025  13.643  17.784   8.570  0.0922  0.0286 -0.0450
  377loPI   C4A 6026  13.833  17.860   8.197 -0.2297  0.0885  0.1113
  377loPI   C5A 6027  13.934  17.572   7.879 -0.1853 -0.0915  0.1109
  377loPI   C6A 6028  14.382  17.457   7.886 -0.2671 -0.2506 -0.1302
  377loPI   C1B 6029  13.964  17.656   9.452  0.1274 -0.3384 -0.0497
  377loPI   C2B 6030  14.083  17.524   9.081 -0.2625 -0.0831 -0.0259
  377loPI   C3B 6031  14.218  17.566   8.703 -0.3779  0.1464  0.1728
  377loPI   C4B 6032  14.167  17.558   8.398  0.1382 -0.0011 -0.0565
  378loPI    C1 6033  12.446   0.894  10.259 -0.2405 -0.2598 -0.1348
  378loPI    C2 6034  12.740   0.723  10.470  0.0200 -0.2366 -0.4704
  378loPI    C3 6035  12.362   0.602  10.519  0.0136  0.0411  0.2992
  378loPI   PO4 6036  12.575   0.924  10.032 -0.1355 -0.3345 -0.0014
  378loPI   GL1 6037  12.718   0.735   9.660 -0.3015 -0.1349 -0.0393
  378loPI   GL2 6038  12.827   1.122   9.682 -0.1307  0.3180  0.2645
  378loPI   C1A 6039  12.934   0.575   9.308  0.1946 -0.0707  0.2148
  378loPI   C2A 6040  13.028   0.436   8.928 -0.3599  0.1712  0.1367
  378loPI   C3A 6041  13.309   0.380   8.578  0.2723 -0.0329 -0.2625
  378loPI   C4A 6042  13.482   0.386   8.182  0.4103 -0.0435  0.0551
  378loPI   C5A 6043  13.561   0.652   7.860 -0.0567  0.0141  0.0029
  378loPI   C6A 6044  13.872   0.956   7.643  0.0052  0.1731  0.3567
  378loPI   C1B 6045  12.752   1.036   9.285  0.0701  0.2693  0.3273
  378loPI   C2B 6046  12.779   0.948   8.851  0.1441  0.2015  0.0895
  378loPI   C3B 6047  12.667   0.683   8.382  0.1199  0.0088 -0.1630
  378loPI   C4B 6048  12.405   0.512   7.956  0.0950 -0.1241 -0.1126
  379loPI    C1 6049  12.916   3.477  10.361  0.1853 -0.1694 -0.0810
  379loPI    C2 6050  13.031   3.121  10.502 -0.0582 -0.1714  0.1194
  379loPI    C3 6051  13.129   3.455  10.699 -0.0243 -0.1432  0.0547
  379loPI   PO4 6052  12.625   3.374  10.297 -0.0197 -0.2552 -0.0461
  379loPI   GL1 6053  12.401   3.216  10.020  0.2975 -0.0076 -0.0724
  379loPI   GL2 6054  12.092   3.191  10.060 -0.1025 -0.0685 -0.1186
  379loPI   C1A 6055  12.431   3.431   9.630 -0.1326 -0.1300  0.0295
  379loPI   C2A 6056  12.641   3.551   9.259  0.1989  0.2429 -0.1334
  379loPI   C3A 6057  12.615   3.480   8.856 -0.1721  0.1588 -0.0597
  379loPI   C4A 6058  12.441   3.514   8.498  0.0629  0.0606 -0.0878
  379loPI   C5A 6059  12.265   3.624   8.081 -0.1231 -0.0046  0.3770
  379loPI   C6A 6060  12.088   3.480   7.643 -0.1659 -0.0158 -0.1071
  379loPI   C1B 6061  12.110   2.854   9.688 -0.0877 -0.2107 -0.3161
  379loPI   C2B 6062  12.091   2.714   9.172 -0.2401 -0.1995 -0.1850
  379loPI   C3B 6063  12.136   2.469   8.847 -0.1515  0.0952  0.2168
  379loPI   C4B 6064  12.062   2.341   8.514  0.1528 -0.3019  0.2699
  380loPI    C1 6065   0.661   8.063   9.930  0.0316  0.0394  0.0650
  380loPI    C2 6066   0.818   8.244  10.251 -0.0514  0.0307  0.1109
  380loPI    C3 6067   0.689   7.866  10.277  0.1418 -0.0439  0.0093
  380loPI   PO4 6068   0.622   8.281   9.718 -0.1225  0.0299 -0.1329
  380loPI   GL1 6069   0.701   8.306   9.280  0.2455  0.0849 -0.0179
  380loPI   GL2 6070   0.375   8.386   9.323  0.0599  0.3428  0.1563
  380loPI   C1A 6071   0.777   8.543   8.899  0.1506 -0.0589 -0.3540
  380loPI   C2A 6072   1.023   8.353   8.623  0.2801  0.2351 -0.1550
  380loPI   C3A 6073   1.169   8.266   8.086 -0.3979 -0.0272  0.0955
  380loPI   C4A 6074   1.072   8.441   7.772 -0.0681 -0.0777 -0.1662
  380loPI   C5A 6075   0.818   8.822   7.772 -0.1578 -0.1509  0.2617
  380loPI   C6A 6076   1.048   9.220   7.647 -0.0724 -0.0868  0.1248
  380loPI   C1B 6077   0.384   8.173   8.924  0.1325 -0.2833 -0.0519
  380loPI   C2B 6078   0.469   8.178   8.531  0.2583  0.0665  0.0867
  380loPI   C3B 6079   0.500   8.450   8.341  0.0090  0.4610  0.2963
  380loPI   C4B 6080   0.853   8.562   8.208 -0.1359  0.0464 -0.0509
  381loPI    C1 6081  10.543   6.517  10.195 -0.0111 -0.0124  0.1532
  381loPI    C2 6082  10.674   6.709  10.521  0.1623 -0.0855  0.1276
  381loPI    C3 6083  10.492   6.355  10.557 -0.0464  0.0244  0.1648
  381loPI   PO4 6084  10.543   6.732  10.027 -0.1579 -0.1299 -0.1000
  381loPI   GL1 6085  10.349   7.043   9.642  0.2775  0.0854 -0.0540
  381loPI   GL2 6086  10.350   7.343   9.503  0.1610  0.1214  0.0032
  381loPI   C1A 6087  10.581   6.767   9.427 -0.1453  0.0362 -0.1330
  381loPI   C2A 6088  10.670   6.729   9.077 -0.0239  0.0574  0.1899
  381loPI   C3A 6089  10.594   6.422   8.714 -0.0332 -0.1673  0.1583
  381loPI   C4A 6090  10.622   6.068   8.429  0.0629 -0.0512  0.1652
  381loPI   C5A 6091  10.483   5.764   8.352  0.1068 -0.2106  0.2839
  381loPI   C6A 6092  10.287   5.530   8.722 -0.0344 -0.0987  0.2264
  381loPI   C1B 6093  10.428   7.200   9.119 -0.0238 -0.2318 -0.0459
  381loPI   C2B 6094  10.395   7.031   8.759 -0.1150  0.0249  0.0578
  381loPI   C3B 6095  10.612   6.750   8.399  0.1660 -0.2048  0.1597
  381loPI   C4B 6096  10.625   6.760   7.948  0.2090 -0.0868  0.0652
  382loPI    C1 6097  15.503   8.942  10.142  0.2391 -0.0448  0.0433
  382loPI    C2 6098  15.204   8.681  10.096  0.0962  0.1430 -0.1107
  382loPI    C3 6099  15.582   8.552  10.101  0.0140 -0.0991  0.1086
  382loPI   PO4 6100  15.474   9.168  10.004  0.0485 -0.0457  0.1581
  382loPI   GL1 6101  15.678   9.233   9.676 -0.1838 -0.1041  0.1061
  382loPI   GL2 6102  15.911   8.955   9.825  0.0289 -0.2277  0.1419
  382loPI   C1A 6103  15.505   9.495   9.318 -0.0045  0.1847  0.3341
  382loPI   C2A 6104  15.546   9.447   8.908  0.2303 -0.3397  0.1532
  382loPI   C3A 6105  15.496   9.309   8.475 -0.1052  0.0354  0.0322
  382loPI   C4A 6106  15.542   9.214   7.934 -0.0869  0.1903 -0.0364
  382loPI   C5A 6107  15.580   8.783   7.660  0.0932  0.1101 -0.0659
  382loPI   C6A 6108  15.584   8.335   7.300 -0.2228  0.0233 -0.1919
  382loPI   C1B 6109  16.100   9.008   9.460  0.2043 -0.1916  0.0723
  382loPI   C2B 6110  16.103   9.237   9.112  0.1753 -0.1372  0.0370
  382loPI   C3B 6111  15.977   9.273   8.663  0.0054 -0.1527 -0.0147
  382loPI   C4B 6112  15.964   9.082   8.246  0.1845 -0.0941  0.0336
  383loPI    C1 6113   9.602   2.677  10.623  0.1489  0.0628 -0.0558
  383loPI    C2 6114   9.652   2.315  10.461  0.0276  0.0179  0.0055
  383loPI    C3 6115   9.388   2.366  10.757 -0.0135  0.1729 -0.0577
  383loPI   PO4 6116   9.619   2.866  10.377 -0.0715  0.0831  0.2067
  383loPI   GL1 6117   9.474   2.880   9.943 -0.0224  0.2454  0.1881
  383loPI   GL2 6118   9.758   2.670   9.874  0.1860  0.1886  0.1227
  383loPI   C1A 6119   9.461   2.880   9.545  0.0860 -0.2360  0.0522
  383loPI   C2A 6120   9.635   2.806   9.178 -0.0338  0.1994 -0.3310
  383loPI   C3A 6121   9.620   2.872   8.786  0.1360 -0.1679 -0.0066
  383loPI   C4A 6122   9.658   2.911   8.299 -0.2245 -0.0560  0.1828
  383loPI   C5A 6123   9.958   2.834   8.002  0.2058  0.1689 -0.0275
  383loPI   C6A 6124  10.279   3.118   8.111  0.1732 -0.2870  0.2311
  383loPI   C1B 6125  10.018   2.841   9.622  0.0827 -0.1131  0.1038
  383loPI   C2B 6126  10.243   2.801   9.307  0.3388 -0.2398 -0.0014
  383loPI   C3B 6127  10.109   2.705   8.888 -0.0191 -0.1026 -0.2190
  383loPI   C4B 6128  10.082   2.643   8.426  0.0790 -0.0058  0.0968
  384loPI    C1 6129   3.082   1.726  10.491  0.0547  0.0450  0.1723
  384loPI    C2 6130   3.465   1.613  10.488  0.0983  0.1906 -0.1497
  384loPI    C3 6131   3.296   1.737  10.829  0.3295  0.1033 -0.0011
  384loPI   PO4 6132   2.907   1.547  10.469  0.0557  0.1480  0.0765
  384loPI   GL1 6133   2.721   1.505  10.084  0.0120 -0.3775  0.2328
  384loPI   GL2 6134   2.477   1.396  10.143 -0.2378 -0.0641 -0.2303
  384loPI   C1A 6135   2.831   1.579   9.614  0.1338 -0.1628 -0.0301
  384loPI   C2A 6136   2.650   1.421   9.269 -0.0891 -0.0034  0.1306
  384loPI   C3A 6137   2.556   1.501   8.929  0.1381 -0.1702  0.3276
  384loPI   C4A 6138   2.440   1.485   8.509 -0.2676  0.3737  0.1776
  384loPI   C5A 6139   2.792   1.630   8.254 -0.2309 -0.4181 -0.0038
  384loPI   C6A 6140   3.176   1.891   8.231  0.1035  0.0252  0.5615
  384loPI   C1B 6141   2.378   1.512   9.695  0.1154  0.0625 -0.2186
  384loPI   C2B 6142   2.169   1.661   9.318 -0.1013  0.0641  0.0584
  384loPI   C3B 6143   2.110   1.742   8.845 -0.0281  0.0086  0.0427
  384loPI   C4B 6144   1.880   1.952   8.406  0.1045  0.0652 -0.0718
  385loPI    C1 6145  14.521  15.913  10.139  0.0779 -0.1249  0.0101
  385loPI    C2 6146  14.382  15.921  10.514 -0.0709 -0.1555 -0.0437
  385loPI    C3 6147  14.760  16.028  10.439 -0.1042  0.0604  0.0865
  385loPI   PO4 6148  14.335  16.018  10.063 -0.3500  0.1229 -0.0358
  385loPI   GL1 6149  14.318  16.117   9.680  0.0540  0.1400 -0.1138
  385loPI   GL2 6150  14.437  15.821   9.621 -0.2806 -0.2511 -0.2477
  385loPI   C1A 6151  14.436  16.198   9.279 -0.3495 -0.0406  0.1849
  385loPI   C2A 6152  14.545  15.940   8.810 -0.0025  0.1908  0.1813
  385loPI   C3A 6153  14.649  16.022   8.379 -0.0453 -0.0191  0.1505
  385loPI   C4A 6154  14.844  16.381   8.123  0.1699  0.0221 -0.1321
  385loPI   C5A 6155  14.770  16.579   7.777  0.0710  0.0770  0.0881
  385loPI   C6A 6156  14.543  16.931   7.579 -0.0578 -0.4625 -0.5184
  385loPI   C1B 6157  14.443  15.638   9.196 -0.1362 -0.3287  0.2984
  385loPI   C2B 6158  14.317  15.518   8.702  0.0516  0.1665 -0.3258
  385loPI   C3B 6159  14.161  15.639   8.271  0.1199 -0.2674 -0.3242
  385loPI   C4B 6160  13.892  15.547   7.900 -0.1347 -0.0514 -0.0643
  386loPI    C1 6161   3.914   6.768  10.173  0.1961 -0.3635  0.4108
  386loPI    C2 6162   3.598   6.653  10.389 -0.1873 -0.1215 -0.0040
  386loPI    C3 6163   3.799   6.985  10.488 -0.1946 -0.1577  0.1345
  386loPI   PO4 6164   3.863   6.793   9.977 -0.1429 -0.2585  0.1008
  386loPI   GL1 6165   3.878   6.643   9.616  0.1586 -0.0511  0.0944
  386loPI   GL2 6166   3.938   6.352   9.718 -0.0032 -0.1422 -0.1318
  386loPI   C1A 6167   4.043   6.579   9.268 -0.0387 -0.1538  0.1069
  386loPI   C2A 6168   4.036   6.491   8.793 -0.1128 -0.0814  0.2515
  386loPI   C3A 6169   4.265   6.426   8.256  0.0036  0.2588  0.0205
  386loPI   C4A 6170   4.421   6.447   7.811  0.0490 -0.0582 -0.3184
  386loPI   C5A 6171   4.261   6.129   7.574  0.3009  0.0221  0.1182
  386loPI   C6A 6172   3.783   6.003   7.310 -0.1221  0.3960  0.0509
  386loPI   C1B 6173   4.196   6.133   9.455  0.2957  0.0901  0.1886
  386loPI   C2B 6174   4.387   6.188   9.093  0.0807 -0.2680  0.0458
  386loPI   C3B 6175   4.506   6.301   8.693  0.1586 -0.1806  0.0287
  386loPI   C4B 6176   4.745   6.053   8.553 -0.0975  0.1451 -0.2253
  387loPI    C1 6177   8.938  13.545  10.414  0.0029 -0.2061 -0.0092
  387loPI    C2 6178   8.609  13.754  10.504 -0.0176 -0.1545 -0.2015
  387loPI    C3 6179   8.697  13.423  10.710 -0.1187 -0.0954 -0.0614
  387loPI   PO4 6180   8.953  13.578  10.171 -0.0900  0.0492  0.0350
  387loPI   GL1 6181   8.790  13.425   9.802  0.4484  0.2016 -0.0154
  387loPI   GL2 6182   8.624  13.616   9.608 -0.0318 -0.1429 -0.0774
  387loPI   C1A 6183   9.181  13.307   9.603  0.2750  0.0917  0.1723
  387loPI   C2A 6184   9.355  13.305   9.188 -0.5181  0.0702 -0.1023
  387loPI   C3A 6185   9.495  13.538   8.739  0.1268  0.0107 -0.0611
  387loPI   C4A 6186   9.562  13.561   8.267 -0.1165  0.1002  0.2173
  387loPI   C5A 6187   9.907  13.694   7.885  0.1843 -0.0481 -0.0759
  387loPI   C6A 6188  10.093  13.898   7.493 -0.4099 -0.0705 -0.1240
  387loPI   C1B 6189   8.924  13.565   9.286  0.1476 -0.0164 -0.1265
  387loPI   C2B 6190   9.019  13.615   8.892  0.1514 -0.3925 -0.1428
  387loPI   C3B 6191   8.850  13.944   8.657  0.1002  0.0018  0.0777
  387loPI   C4B 6192   8.930  14.375   8.669 -0.0615 -0.0284  0.0471
  388loPI    C1 6193  15.259   7.866  10.218 -0.0137 -0.1098  0.0948
  388loPI    C2 6194  14.904   7.755  10.070  0.0232 -0.0493 -0.0400
  388loPI    C3 6195  14.982   7.706  10.459 -0.1122 -0.1145 -0.0205
  388loPI   PO4 6196  15.258   8.162  10.184 -0.2216  0.0163  0.1594
  388loPI   GL1 6197  15.191   8.293   9.797  0.1372  0.2191  0.1603
  388loPI   GL2 6198  15.107   7.992   9.663 -0.2425  0.2721 -0.2304
  388loPI   C1A 6199  15.196   8.414   9.397 -0.0435 -0.3274  0.1229
  388loPI   C2A 6200  15.263   8.314   9.048  0.1455 -0.0676 -0.2647
  388loPI   C3A 6201  14.900   8.250   8.816  0.2788  0.0731 -0.4125
  388loPI   C4A 6202  14.836   8.512   8.355  0.1354  0.0302  0.1454
  388loPI   C5A 6203  15.053   8.408   7.907  0.0826  0.0576 -0.0278
  388loPI   C6A 6204  15.080   8.528   7.437  0.1692  0.1235  0.0839
  388loPI   C1B 6205  14.825   7.939   9.315 -0.1460 -0.0208 -0.0546
  388loPI   C2B 6206  14.578   7.905   8.903 -0.4793  0.3356 -0.0943
  388loPI   C3B 6207  14.577   8.127   8.433  0.2331  0.0349 -0.2425
  388loPI   C4B 6208  14.425   8.410   8.070 -0.3198 -0.1425 -0.0677
  389loPI    C1 6209  15.994   5.280  10.226 -0.1086 -0.2778 -0.1167
  389loPI    C2 6210  15.611   5.353  10.135 -0.1233 -0.1531  0.0418
  389loPI    C3 6211  15.710   5.227  10.502 -0.0032 -0.1006  0.0280
  389loPI   PO4 6212  16.138   5.262   9.931  0.0795 -0.1298 -0.3712
  389loPI   GL1 6213  15.899   5.411   9.658  0.0259 -0.0175 -0.0589
  389loPI   GL2 6214  16.158   5.461   9.476  0.1516 -0.2986  0.0941
  389loPI   C1A 6215  15.764   5.274   9.249 -0.0482  0.0800 -0.1755
  389loPI   C2A 6216  15.997   5.410   8.903 -0.0196 -0.1532 -0.0870
  389loPI   C3A 6217  15.924   5.536   8.395 -0.4997  0.0846 -0.0126
  389loPI   C4A 6218  15.676   5.360   8.055 -0.0388  0.1936 -0.1728
  389loPI   C5A 6219  15.404   5.313   7.800 -0.0152 -0.0055 -0.0361
  389loPI   C6A 6220  15.097   5.497   7.637  0.0043 -0.0363 -0.3358
  389loPI   C1B 6221  16.410   5.431   9.207 -0.0612 -0.1597  0.0367
  389loPI   C2B 6222  16.469   5.556   8.757  0.2901  0.3751 -0.2421
  389loPI   C3B 6223  16.515   5.508   8.314  0.2320  0.1425  0.0351
  389loPI   C4B 6224  16.672   5.277   7.966 -0.2263 -0.2901  0.0245
  390loPI    C1 6225  10.197   1.266  10.638  0.0704  0.2180  0.0059
  390loPI    C2 6226  10.533   1.264  10.854  0.0625  0.0715  0.0178
  390loPI    C3 6227  10.196   1.114  11.008  0.0618 -0.0535 -0.1035
  390loPI   PO4 6228  10.216   1.292  10.425  0.1530  0.1818  0.0797
  390loPI   GL1 6229  10.222   1.513  10.087  0.1761  0.1230 -0.1213
  390loPI   GL2 6230  10.044   1.597   9.890  0.1640  0.1880 -0.1516
  390loPI   C1A 6231  10.517   1.400   9.706 -0.1801  0.2677  0.3276
  390loPI   C2A 6232  10.550   1.096   9.501  0.2248 -0.2125  0.0900
  390loPI   C3A 6233  10.497   1.135   9.034  0.0524  0.2346  0.1206
  390loPI   C4A 6234  10.337   1.006   8.557  0.0756 -0.2854 -0.0622
  390loPI   C5A 6235  10.340   0.661   8.239 -0.0521 -0.4108 -0.0179
  390loPI   C6A 6236  10.373   0.352   7.980 -0.0636  0.1784 -0.0845
  390loPI   C1B 6237  10.007   1.836   9.538  0.0628 -0.2625  0.2553
  390loPI   C2B 6238   9.830   1.851   9.175  0.0371  0.0792 -0.4321
  390loPI   C3B 6239   9.813   1.867   8.713 -0.2996 -0.1722  0.1216
  390loPI   C4B 6240   9.748   1.838   8.323  0.0419  0.2258 -0.0312
  391loPI    C1 6241   6.867   1.417  10.294 -0.0030  0.0712  0.0014
  391loPI    C2 6242   6.895   1.023  10.360 -0.0767  0.0698  0.0257
  391loPI    C3 6243   6.968   1.282  10.657  0.1613  0.0807 -0.0401
  391loPI   PO4 6244   7.078   1.471  10.059  0.0628  0.2283 -0.2960
  391loPI   GL1 6245   7.137   1.708   9.675 -0.3891  0.1845  0.0935
  391loPI   GL2 6246   6.810   1.565   9.650  0.0540  0.0127  0.1302
  391loPI   C1A 6247   7.291   1.909   9.267  0.0188 -0.2857  0.0553
  391loPI   C2A 6248   7.649   1.782   8.905  0.2125  0.1784  0.1590
  391loPI   C3A 6249   7.562   1.469   8.658 -0.3170 -0.0648  0.0312
  391loPI   C4A 6250   7.315   1.066   8.655 -0.5706  0.1234 -0.1316
  391loPI   C5A 6251   7.271   0.806   8.374  0.0006  0.1720  0.2104
  391loPI   C6A 6252   7.210   0.527   8.100 -0.0020 -0.1657 -0.0777
  391loPI   C1B 6253   6.879   1.389   9.236 -0.1327 -0.0197 -0.3286
  391loPI   C2B 6254   7.215   1.490   8.991 -0.0276  0.4546  0.1943
  391loPI   C3B 6255   7.202   1.896   8.804  0.2367  0.3954 -0.3530
  391loPI   C4B 6256   6.906   1.947   8.468  0.0154  0.2150  0.1305
  392loPI    C1 6257  15.624   2.011  10.272 -0.2210 -0.0673  0.0750
  392loPI    C2 6258  15.404   1.915  10.592 -0.0542  0.0799  0.2361
  392loPI    C3 6259  15.802   1.878  10.604 -0.0512  0.0307  0.0244
  392loPI   PO4 6260  15.551   1.912  10.035  0.1139 -0.1513 -0.1368
  392loPI   GL1 6261  15.401   2.028   9.773 -0.0303  0.2540 -0.1489
  392loPI   GL2 6262  15.392   2.308   9.608 -0.1165 -0.0787  0.0691
  392loPI   C1A 6263  15.337   1.921   9.334  0.1367 -0.0391  0.0283
  392loPI   C2A 6264  15.298   2.015   8.983 -0.0357  0.0642  0.3321
  392loPI   C3A 6265  15.445   2.084   8.589  0.1824 -0.0709 -0.0524
  392loPI   C4A 6266  15.453   2.077   8.216  0.0798  0.0255 -0.1843
  392loPI   C5A 6267  15.418   2.078   7.757  0.1519 -0.0566 -0.0500
  392loPI   C6A 6268  15.552   2.016   7.352  0.0312 -0.0896 -0.1455
  392loPI   C1B 6269  15.403   2.458   9.254  0.0165  0.4183  0.0158
  392loPI   C2B 6270  15.405   2.529   8.842  0.0962 -0.0476  0.6303
  392loPI   C3B 6271  15.737   2.582   8.522  0.2549  0.3665  0.0644
  392loPI   C4B 6272  15.810   2.535   8.136  0.0296 -0.0084 -0.3279
  393loPI    C1 6273  12.957  13.664   9.939 -0.0348 -0.3019 -0.1245
  393loPI    C2 6274  12.740  13.423  10.173 -0.0839 -0.0903  0.0510
  393loPI    C3 6275  12.579  13.759  10.027  0.0228 -0.0991 -0.0897
  393loPI   PO4 6276  13.057  13.524   9.726 -0.3117  0.0394 -0.0508
  393loPI   GL1 6277  13.062  13.700   9.290 -0.0533 -0.0444 -0.0365
  393loPI   GL2 6278  12.718  13.662   9.370  0.2541 -0.0825 -0.1462
  393loPI   C1A 6279  13.126  13.839   8.892 -0.1276  0.1624  0.2739
  393loPI   C2A 6280  13.107  14.002   8.494  0.2518  0.0325 -0.1843
  393loPI   C3A 6281  13.136  13.976   8.017  0.2241  0.0580  0.1248
  393loPI   C4A 6282  13.050  13.744   7.653 -0.1106 -0.1559 -0.0308
  393loPI   C5A 6283  13.008  13.562   7.219  0.1349 -0.0005 -0.2240
  393loPI   C6A 6284  12.951  13.508   6.742  0.1662  0.0526 -0.0893
  393loPI   C1B 6285  12.624  13.868   8.890  0.2554  0.0793 -0.2668
  393loPI   C2B 6286  12.529  13.923   8.506 -0.1457  0.2080 -0.1049
  393loPI   C3B 6287  12.839  13.572   8.498 -0.0896 -0.1408 -0.0367
  393loPI   C4B 6288  13.060  13.443   8.244  0.1154 -0.0323  0.3072
  394loPI    C1 6289   8.614  13.124  10.351  0.1699  0.0046 -0.1534
  394loPI    C2 6290   8.275  12.952  10.475  0.2348  0.0403  0.0795
  394loPI    C3 6291   8.602  12.938  10.705  0.4181 -0.0704 -0.1823
  394loPI   PO4 6292   8.551  13.121  10.121 -0.1996 -0.2647  0.3636
  394loPI   GL1 6293   8.711  12.924   9.747 -0.0436  0.0980  0.2663
  394loPI   GL2 6294   8.939  12.738   9.715  0.0742 -0.0648  0.0609
  394loPI   C1A 6295   8.727  13.118   9.366  0.1489  0.4476  0.1100
  394loPI   C2A 6296   8.721  13.187   8.961 -0.1568 -0.3085 -0.0782
  394loPI   C3A 6297   8.664  13.041   8.495  0.1063 -0.1791  0.0972
  394loPI   C4A 6298   8.679  12.936   8.120 -0.0457 -0.1984 -0.2790
  394loPI   C5A 6299   8.800  12.677   7.840 -0.0163 -0.0673  0.0382
  394loPI   C6A 6300   8.732  12.786   7.529  0.5589  0.2585  0.0700
  394loPI   C1B 6301   9.182  12.858   9.361  0.0298 -0.1325  0.0711
  394loPI   C2B 6302   9.126  12.912   8.985  0.4018 -0.0729 -0.0055
  394loPI   C3B 6303   9.097  13.180   8.652  0.0745  0.2873 -0.0600
  394loPI   C4B 6304   9.100  13.497   8.405  0.1368 -0.1872  0.5047
  395loPI    C1 6305  12.204  13.674  10.382  0.0099  0.1267  0.0374
  395loPI    C2 6306  12.158  13.277  10.384 -0.1848  0.1482  0.0872
  395loPI    C3 6307  12.018  13.496  10.688 -0.2783  0.2761 -0.0463
  395loPI   PO4 6308  12.072  13.736  10.106 -0.1568 -0.1334  0.0777
  395loPI   GL1 6309  12.233  13.711   9.636  0.1312 -0.0143 -0.1399
  395loPI   GL2 6310  11.972  14.029   9.638 -0.2447  0.1328  0.0080
  395loPI   C1A 6311  11.880  13.643   9.293  0.0855  0.1324  0.3466
  395loPI   C2A 6312  11.872  13.604   8.842 -0.1747 -0.0463  0.0556
  395loPI   C3A 6313  12.108  13.647   8.489 -0.2907 -0.0128  0.1154
  395loPI   C4A 6314  12.479  13.465   8.213 -0.0126 -0.0654 -0.1018
  395loPI   C5A 6315  12.615  13.451   7.789 -0.0351 -0.0958 -0.1281
  395loPI   C6A 6316  13.013  13.267   7.658  0.0224  0.0398  0.1572
  395loPI   C1B 6317  12.181  14.036   9.207  0.1860  0.3021 -0.2123
  395loPI   C2B 6318  12.232  14.207   8.848 -0.1139  0.1065  0.5181
  395loPI   C3B 6319  12.184  14.210   8.401 -0.3388  0.3225 -0.0576
  395loPI   C4B 6320  12.308  14.347   7.933  0.0411  0.0173  0.3186
  396loPI    C1 6321  12.182   9.784  10.268  0.0272  0.0122 -0.0206
  396loPI    C2 6322  12.403   9.992  10.528 -0.2165  0.3504 -0.0770
  396loPI    C3 6323  12.010   9.945  10.591 -0.1727 -0.0683 -0.0847
  396loPI   PO4 6324  12.191   9.829  10.040 -0.2347  0.0611  0.2186
  396loPI   GL1 6325  12.188   9.705   9.668  0.1713 -0.2217  0.2509
  396loPI   GL2 6326  12.459   9.599   9.596  0.0231 -0.0481 -0.0782
  396loPI   C1A 6327  11.851   9.611   9.360  0.0868 -0.1338  0.2731
  396loPI   C2A 6328  11.740   9.568   8.911 -0.0793  0.2697  0.0311
  396loPI   C3A 6329  11.834   9.611   8.470 -0.0651  0.0345 -0.0807
  396loPI   C4A 6330  11.796   9.573   8.060  0.0251 -0.1966  0.0977
  396loPI   C5A 6331  11.602   9.657   7.635  0.2267 -0.1331  0.2425
  396loPI   C6A 6332  11.266   9.391   7.381  0.1328 -0.1399 -0.0364
  396loPI   C1B 6333  12.287   9.453   9.210  0.1246 -0.2286 -0.0429
  396loPI   C2B 6334  12.272   9.143   8.802 -0.0320  0.1587  0.0008
  396loPI   C3B 6335  12.226   9.305   8.355 -0.1912 -0.0966  0.0269
  396loPI   C4B 6336  12.256   9.284   7.971  0.0206  0.4156 -0.1777
  397loPI    C1 6337   9.690   1.059  10.491  0.3521 -0.1056 -0.0867
  397loPI    C2 6338   9.746   0.872  10.840 -0.0768 -0.2348 -0.0800
  397loPI    C3 6339   9.712   1.270  10.829  0.1888 -0.2078 -0.0108
  397loPI   PO4 6340   9.776   0.951  10.329  0.3019  0.3601  0.0890
  397loPI   GL1 6341   9.872   1.107   9.975  0.2179 -0.0645  0.0573
  397loPI   GL2 6342   9.796   0.785   9.850  0.4577  0.0620  0.0744
  397loPI   C1A 6343  10.035   1.219   9.575 -0.0231  0.0368  0.0107
  397loPI   C2A 6344  10.110   1.435   9.217 -0.2360 -0.0205 -0.1362
  397loPI   C3A 6345   9.973   1.405   8.749  0.2363 -0.2571 -0.2118
  397loPI   C4A 6346   9.906   1.207   8.357  0.1188  0.1655 -0.0813
  397loPI   C5A 6347  10.295   1.096   8.008 -0.2353 -0.0849  0.1689
  397loPI   C6A 6348  10.298   0.831   7.683 -0.0118  0.2013 -0.0410
  397loPI   C1B 6349   9.664   0.868   9.361 -0.3419 -0.1631 -0.0389
  397loPI   C2B 6350   9.573   0.989   8.845 -0.0332 -0.1421 -0.1105
  397loPI   C3B 6351   9.392   0.954   8.458  0.1188 -0.1974 -0.2117
  397loPI   C4B 6352   9.164   1.117   8.135 -0.0059  0.2834  0.1194
  398loPI    C1 6353  10.056   1.992  10.326 -0.0164  0.2466  0.1917
  398loPI    C2 6354   9.992   1.744  10.633 -0.1588 -0.0423 -0.0656
  398loPI    C3 6355  10.356   1.770  10.470 -0.1430 -0.0806 -0.0368
  398loPI   PO4 6356   9.908   2.033  10.142 -0.0402  0.2825 -0.1379
  398loPI   GL1 6357   9.822   2.153   9.783  0.1764  0.4216 -0.0076
  398loPI   GL2 6358  10.104   2.284   9.744 -0.1424  0.0428 -0.3796
  398loPI   C1A 6359   9.676   2.349   9.455  0.0628  0.0833  0.3007
  398loPI   C2A 6360   9.679   2.338   9.047 -0.0448 -0.0758  0.1215
  398loPI   C3A 6361   9.733   2.391   8.659  0.1289 -0.0665 -0.1398
  398loPI   C4A 6362   9.725   2.374   8.197 -0.0645  0.0236 -0.1631
  398loPI   C5A 6363   9.833   2.162   7.841  0.1697 -0.3611 -0.0999
  398loPI   C6A 6364   9.741   2.334   7.543 -0.0886  0.0333  0.0560
  398loPI   C1B 6365  10.143   2.315   9.328  0.1158  0.2268  0.2863
  398loPI   C2B 6366  10.256   2.135   8.942 -0.2557 -0.0507  0.2232
  398loPI   C3B 6367  10.167   2.177   8.439 -0.1069  0.1126 -0.0882
  398loPI   C4B 6368  10.318   2.056   8.034  0.2376  0.4640 -0.1454
  399loPI    C1 6369   3.976  12.907  10.365 -0.0152 -0.1910 -0.0859
  399loPI    C2 6370   3.707  12.932  10.660 -0.0076  0.2737 -0.1112
  399loPI    C3 6371   3.868  12.579  10.566 -0.2513  0.0679  0.2222
  399loPI   PO4 6372   3.870  13.059  10.136  0.3756 -0.2417 -0.2131
  399loPI   GL1 6373   3.882  13.090   9.704  0.3082  0.1730  0.0288
  399loPI   GL2 6374   4.124  13.186   9.536 -0.0065 -0.0670 -0.1197
  399loPI   C1A 6375   3.583  13.135   9.361 -0.1106 -0.0664  0.1209
  399loPI   C2A 6376   3.516  12.968   8.942 -0.0997 -0.0891  0.1905
  399loPI   C3A 6377   3.450  12.833   8.545 -0.0399 -0.1942 -0.0618
  399loPI   C4A 6378   3.253  12.807   8.110 -0.0876 -0.0827  0.2342
  399loPI   C5A 6379   2.806  12.878   7.906 -0.1238  0.0917  0.1155
  399loPI   C6A 6380   2.558  12.873   7.582 -0.2768 -0.1560 -0.1943
  399loPI   C1B 6381   4.106  13.175   9.157  0.2871  0.3400 -0.0460
  399loPI   C2B 6382   4.021  13.112   8.792 -0.1275  0.0556 -0.1033
  399loPI   C3B 6383   3.982  13.183   8.384  0.0307  0.1256 -0.2219
  399loPI   C4B 6384   3.640  13.123   8.156 -0.0656  0.2989 -0.2935
  400loPI    C1 6385   0.533   7.380  10.121  0.0339  0.0034  0.0352
  400loPI    C2 6386   0.367   7.017  10.141  0.1810 -0.1009 -0.4852
  400loPI    C3 6387   0.169   7.335  10.281  0.0184 -0.3657 -0.0956
  400loPI   PO4 6388   0.550   7.509   9.860 -0.0717  0.3762  0.0449
  400loPI   GL1 6389   0.476   7.400   9.470  0.3862  0.1626  0.1503
  400loPI   GL2 6390   0.364   7.091   9.646 -0.2671 -0.0204  0.1568
  400loPI   C1A 6391   0.150   7.588   9.205 -0.1260 -0.0752 -0.0225
  400loPI   C2A 6392   0.209   7.733   8.740 -0.3486  0.0536  0.0869
  400loPI   C3A 6393   0.450   7.680   8.306  0.0949  0.0968  0.1966
  400loPI   C4A 6394   0.461   7.541   7.866 -0.2612  0.1086  0.1333
  400loPI   C5A 6395   0.575   7.181   7.598 -0.2318  0.1997 -0.2017
  400loPI   C6A 6396   0.875   6.945   7.324  0.1921 -0.0202 -0.1799
  400loPI   C1B 6397   0.415   7.055   9.164  0.1463  0.1349  0.1867
  400loPI   C2B 6398   0.443   7.326   8.829 -0.0804  0.1264  0.1709
  400loPI   C3B 6399   0.417   7.247   8.494 -0.0009 -0.2421  0.1342
  400loPI   C4B 6400   0.402   7.119   8.085  0.2297  0.1467  0.0847
  401loPI    C1 6401   5.124  10.228  10.045  0.3855 -0.0806  0.0998
  401loPI    C2 6402   5.419  10.396  10.257  0.2109  0.1334  0.1773
  401loPI    C3 6403   5.166  10.142  10.434  0.0627  0.3149  0.2299
  401loPI   PO4 6404   5.220  10.160   9.814  0.0708  0.0490 -0.0135
  401loPI   GL1 6405   5.568  10.259   9.477 -0.2009 -0.1389 -0.3297
  401loPI   GL2 6406   5.628   9.993   9.392 -0.1282 -0.0865  0.1056
  401loPI   C1A 6407   5.614  10.342   9.029 -0.3347 -0.0001  0.3483
  401loPI   C2A 6408   5.404  10.404   8.652  0.0697  0.1365  0.3036
  401loPI   C3A 6409   5.193  10.403   8.189 -0.3395 -0.0803  0.2430
  401loPI   C4A 6410   5.426  10.476   7.806  0.1842 -0.1637  0.1233
  401loPI   C5A 6411   5.674  10.855   7.545  0.6099  0.1733  0.2505
  401loPI   C6A 6412   5.932  10.817   7.189 -0.1522 -0.0908  0.0195
  401loPI   C1B 6413   5.578   9.743   8.963 -0.1066  0.1009 -0.0085
  401loPI   C2B 6414   5.426   9.945   8.564 -0.0593  0.2355 -0.0310
  401loPI   C3B 6415   5.586  10.082   8.192 -0.0016 -0.0166  0.0958
  401loPI   C4B 6416   5.773  10.132   7.803  0.1451  0.0008 -0.0558
  402loPI    C1 6417  14.230   0.716  10.614  0.0078  0.0680  0.2276
  402loPI    C2 6418  13.880   0.869  10.734 -0.0754  0.0001  0.0748
  402loPI    C3 6419  14.048   0.569  10.939 -0.2290 -0.1329  0.0088
  402loPI   PO4 6420  14.162   0.671  10.383 -0.2282 -0.2751  0.1150
  402loPI   GL1 6421  14.209   0.721   9.869 -0.1023  0.3240  0.2867
  402loPI   GL2 6422  14.025   0.522   9.618 -0.2162  0.0737  0.2295
  402loPI   C1A 6423  14.449   0.245   9.647 -0.1742 -0.1321  0.1152
  402loPI   C2A 6424  14.587   0.094   9.252 -0.2425  0.0161 -0.1305
  402loPI   C3A 6425  14.598   0.103   8.830  0.2678 -0.3293 -0.3079
  402loPI   C4A 6426  14.409   0.007   8.405 -0.1220  0.2079 -0.3147
  402loPI   C5A 6427  14.325  -0.115   7.955  0.2454 -0.0757 -0.1619
  402loPI   C6A 6428  14.063  -0.231   7.662  0.1105  0.0850  0.4126
  402loPI   C1B 6429  14.064   0.372   9.198 -0.1527 -0.0366  0.2513
  402loPI   C2B 6430  14.269   0.468   8.710  0.3040  0.0959 -0.1001
  402loPI   C3B 6431  14.343   0.598   8.361 -0.1145  0.1739  0.3079
  402loPI   C4B 6432  14.488   0.327   8.009 -0.1761 -0.2234  0.1964
  403loPI    C1 6433   8.965   3.978  10.708 -0.2231 -0.0759  0.2116
  403loPI    C2 6434   8.821   3.625  10.830 -0.1441 -0.1190  0.1810
  403loPI    C3 6435   8.875   3.921  11.093 -0.0676 -0.1796  0.2340
  403loPI   PO4 6436   8.929   3.987  10.422  0.1477  0.0291  0.0636
  403loPI   GL1 6437   9.102   4.141   9.970  0.2169  0.1281 -0.1272
  403loPI   GL2 6438   9.291   4.477   9.992  0.2118 -0.3533 -0.2869
  403loPI   C1A 6439   8.866   4.354   9.672  0.0557  0.0566 -0.2369
  403loPI   C2A 6440   8.824   4.312   9.221 -0.1736  0.0439  0.0808
  403loPI   C3A 6441   9.039   4.508   8.946 -0.3506 -0.0777 -0.2545
  403loPI   C4A 6442   8.919   4.559   8.475 -0.0820 -0.4822  0.3574
  403loPI   C5A 6443   8.864   4.623   8.073 -0.1911 -0.0942  0.0532
  403loPI   C6A 6444   8.896   4.785   7.746  0.1978  0.2855 -0.0583
  403loPI   C1B 6445   9.334   4.590   9.573 -0.1899  0.0032  0.0076
  403loPI   C2B 6446   9.391   4.834   9.166  0.0505  0.1179  0.0112
  403loPI   C3B 6447   9.380   4.902   8.670  0.2553  0.0617  0.3040
  403loPI   C4B 6448   9.196   5.001   8.297 -0.2022 -0.1131 -0.0855
  404loPI    C1 6449  11.009   6.055  10.128  0.2424  0.1510 -0.0498
  404loPI    C2 6450  10.929   6.210  10.488  0.1107  0.0424 -0.0313
  404loPI    C3 6451  11.301   6.227  10.341  0.1665  0.0821  0.1121
  404loPI   PO4 6452  10.940   6.136   9.979 -0.0773 -0.2163  0.0027
  404loPI   GL1 6453  10.581   5.860   9.712 -0.0034 -0.1390  0.0050
  404loPI   GL2 6454  10.507   6.152   9.731  0.1266  0.0697 -0.0691
  404loPI   C1A 6455  10.855   5.835   9.330  0.0180  0.1314 -0.0413
  404loPI   C2A 6456  11.190   5.907   9.098 -0.1222  0.2851  0.1077
  404loPI   C3A 6457  11.531   5.715   8.799  0.0135  0.0269  0.2076
  404loPI   C4A 6458  11.779   5.755   8.495  0.0177 -0.0449 -0.2703
  404loPI   C5A 6459  11.992   5.784   8.023 -0.2197  0.0701  0.0089
  404loPI   C6A 6460  11.739   5.550   7.735  0.0964 -0.4785 -0.2051
  404loPI   C1B 6461  10.535   6.253   9.283  0.2082 -0.5530 -0.2433
  404loPI   C2B 6462  10.626   5.970   8.906 -0.1284 -0.1028  0.0367
  404loPI   C3B 6463  10.852   5.645   8.650 -0.0188  0.2211 -0.2051
  404loPI   C4B 6464  10.636   5.187   8.765  0.1472 -0.0756 -0.3948
  405loPI    C1 6465   2.281   2.391  10.281  0.1102  0.0966 -0.0924
  405loPI    C2 6466   2.442   2.303  10.637  0.0285  0.0936 -0.0559
  405loPI    C3 6467   2.160   2.585  10.610  0.0656  0.1244 -0.1252
  405loPI   PO4 6468   2.493   2.430  10.135 -0.0967  0.2439  0.0644
  405loPI   GL1 6469   2.579   2.439   9.683  0.4371 -0.1972  0.1305
  405loPI   GL2 6470   2.847   2.547   9.700  0.1162 -0.0627  0.0193
  405loPI   C1A 6471   2.677   2.460   9.244 -0.4509  0.2580 -0.1113
  405loPI   C2A 6472   2.676   2.507   8.824  0.1588  0.0446 -0.0543
  405loPI   C3A 6473   2.634   2.415   8.341 -0.0506 -0.3216 -0.0442
  405loPI   C4A 6474   2.785   2.148   8.089  0.0282 -0.2045  0.3439
  405loPI   C5A 6475   2.703   1.861   7.800  0.0645 -0.1733 -0.3420
  405loPI   C6A 6476   2.762   1.456   7.790  0.2874 -0.1755  0.0580
  405loPI   C1B 6477   3.103   2.609   9.336  0.1739  0.0073  0.1317
  405loPI   C2B 6478   3.082   2.712   8.902 -0.3285 -0.0827  0.1896
  405loPI   C3B 6479   2.991   2.852   8.594 -0.3628  0.5216  0.0702
  405loPI   C4B 6480   2.792   2.903   8.246  0.1333 -0.1829  0.1087
  406loPI    C1 6481   0.123   3.889  10.309  0.1818  0.0783  0.1355
  406loPI    C2 6482  -0.063   4.224  10.425 -0.3770 -0.2307  0.1671
  406loPI    C3 6483  -0.096   3.891  10.644 -0.0323 -0.3751  0.0061
  406loPI   PO4 6484   0.028   3.855   9.960 -0.1089 -0.1754 -0.0769
  406loPI   GL1 6485  -0.162   4.097   9.754  0.1410  0.1624  0.3049
  406loPI   GL2 6486  -0.116   4.369   9.544 -0.0385  0.0196  0.1838
  406loPI   C1A 6487  -0.264   3.854   9.434 -0.1678  0.1690 -0.1760
  406loPI   C2A 6488  -0.319   3.474   9.341  0.0365  0.3885 -0.2274
  406loPI   C3A 6489  -0.376   3.196   8.960 -0.0269  0.1828  0.1341
  406loPI   C4A 6490  -0.420   3.357   8.559  0.2307 -0.4320 -0.3652
  406loPI   C5A 6491  -0.580   3.178   8.114  0.1800 -0.1709 -0.0027
  406loPI   C6A 6492  -0.923   3.245   8.023  0.0428 -0.3026 -0.0824
  406loPI   C1B 6493  -0.182   4.276   9.080  0.0084  0.0949 -0.1090
  406loPI   C2B 6494  -0.332   4.281   8.663  0.0703 -0.1704 -0.2954
  406loPI   C3B 6495  -0.553   4.304   8.282 -0.1898  0.2020 -0.0818
  406loPI   C4B 6496  -0.364   4.242   7.938 -0.1393 -0.2757 -0.1663
  407loPI    C1 6497   4.723   3.136  10.645 -0.0242  0.1952 -0.0920
  407loPI    C2 6498   4.470   2.846  10.536  0.1149  0.0807 -0.1112
  407loPI    C3 6499   4.793   2.758  10.755  0.0896  0.2402 -0.0090
  407loPI   PO4 6500   4.707   3.281  10.339  0.2181 -0.2982  0.0550
  407loPI   GL1 6501   4.922   3.357   9.888  0.3287 -0.0296 -0.1994
  407loPI   GL2 6502   5.151   3.147   9.750  0.0672  0.1522  0.1876
  407loPI   C1A 6503   4.677   3.555   9.535  0.0229  0.0167  0.2888
  407loPI   C2A 6504   4.495   3.318   9.156  0.2282 -0.5456 -0.3583
  407loPI   C3A 6505   4.438   3.225   8.799  0.1396  0.1787  0.1024
  407loPI   C4A 6506   4.526   3.396   8.355 -0.4458 -0.1892 -0.0060
  407loPI   C5A 6507   4.560   3.373   7.924 -0.2422 -0.0871  0.0931
  407loPI   C6A 6508   4.516   3.227   7.473 -0.0698 -0.0907 -0.0901
  407loPI   C1B 6509   4.991   3.096   9.399 -0.1671  0.0030 -0.1245
  407loPI   C2B 6510   4.963   3.112   8.960  0.1274  0.1290 -0.1379
  407loPI   C3B 6511   4.914   3.022   8.485  0.1873 -0.0213 -0.0084
  407loPI   C4B 6512   5.263   2.927   8.154  0.0422  0.1677 -0.0682
  408loPI    C1 6513   2.117  17.099  10.177 -0.1448 -0.1805 -0.1623
  408loPI    C2 6514   2.047  17.360  10.472  0.1432 -0.1483 -0.1203
  408loPI    C3 6515   1.812  17.040  10.429 -0.1583  0.0692 -0.1179
  408loPI   PO4 6516   2.175  17.188  10.004 -0.1267  0.0579  0.1492
  408loPI   GL1 6517   2.469  17.004   9.727  0.1264  0.3942 -0.1157
  408loPI   GL2 6518   2.660  17.221   9.785 -0.1209  0.0333 -0.2348
  408loPI   C1A 6519   2.344  17.088   9.335 -0.3217 -0.1150 -0.1528
  408loPI   C2A 6520   2.305  17.160   8.926  0.0275  0.2705  0.1741
  408loPI   C3A 6521   1.998  17.104   8.617 -0.0736  0.1865 -0.1453
  408loPI   C4A 6522   1.652  17.349   8.397  0.1002 -0.1031  0.0836
  408loPI   C5A 6523   1.466  17.692   8.231  0.0587  0.0050  0.0665
  408loPI   C6A 6524   1.403  17.822   7.885  0.3978  0.0327 -0.1077
  408loPI   C1B 6525   2.657  17.432   9.428  0.2761  0.1265 -0.0457
  408loPI   C2B 6526   2.657  17.474   8.983  0.2152  0.1408  0.0154
  408loPI   C3B 6527   2.645  17.751   8.525  0.1679 -0.0102 -0.0314
  408loPI   C4B 6528   2.474  17.796   8.134 -0.2859 -0.0848 -0.0813
  409loPI    C1 6529  16.667   6.804  10.039  0.0589  0.1147  0.2685
  409loPI    C2 6530  16.585   6.589  10.366  0.1766  0.0204  0.2367
  409loPI    C3 6531  16.955   6.587  10.214  0.0468 -0.1987 -0.0875
  409loPI   PO4 6532  16.391   6.738   9.826 -0.1863 -0.1778  0.3135
  409loPI   GL1 6533  16.504   6.633   9.355  0.2523  0.0546 -0.0479
  409loPI   GL2 6534  16.810   6.612   9.274  0.0613 -0.2934  0.1187
  409loPI   C1A 6535  16.295   6.420   9.008  0.0869  0.2194  0.0446
  409loPI   C2A 6536  16.240   6.520   8.503 -0.2241 -0.0583  0.3066
  409loPI   C3A 6537  16.179   6.321   8.037  0.0293  0.0919  0.1078
  409loPI   C4A 6538  15.895   6.416   7.722  0.0715  0.1089 -0.1290
  409loPI   C5A 6539  15.526   6.498   7.319  0.1525 -0.1929 -0.2017
  409loPI   C6A 6540  15.521   6.397   6.853  0.1578 -0.0969  0.1650
  409loPI   C1B 6541  16.689   6.587   8.806 -0.1698  0.2612 -0.0940
  409loPI   C2B 6542  16.703   6.682   8.525  0.1484 -0.2242  0.4039
  409loPI   C3B 6543  16.583   6.618   8.150 -0.1854 -0.1493 -0.0704
  409loPI   C4B 6544  16.380   6.588   7.655  0.0140  0.0084  0.3973
  410loPI    C1 6545   3.951   9.074  10.264 -0.1178 -0.0734  0.0563
  410loPI    C2 6546   4.091   9.434  10.367 -0.1264 -0.0003 -0.1819
  410loPI    C3 6547   4.330   9.114  10.384 -0.1794 -0.0232  0.2371
  410loPI   PO4 6548   3.910   9.142   9.989 -0.1296 -0.1471 -0.0236
  410loPI   GL1 6549   3.651   8.931   9.637 -0.1311 -0.0586  0.0878
  410loPI   GL2 6550   3.357   8.803   9.755 -0.1862 -0.0593  0.0330
  410loPI   C1A 6551   3.751   8.948   9.247  0.1277  0.0643 -0.2819
  410loPI   C2A 6552   3.848   8.734   8.871 -0.1320  0.1591 -0.1416
  410loPI   C3A 6553   4.004   8.664   8.478  0.1041 -0.0136  0.0465
  410loPI   C4A 6554   4.292   8.751   8.074 -0.1252  0.0802 -0.1159
  410loPI   C5A 6555   4.265   8.816   7.637 -0.2037  0.2947  0.1541
  410loPI   C6A 6556   4.306   8.925   7.245  0.1608  0.0462 -0.2635
  410loPI   C1B 6557   3.037   8.548   9.487 -0.0344 -0.0955  0.2398
  410loPI   C2B 6558   2.771   8.619   9.079 -0.0952 -0.1537 -0.0629
  410loPI   C3B 6559   2.998   8.681   8.678  0.2410 -0.4644 -0.2343
  410loPI   C4B 6560   3.064   8.835   8.320 -0.1450 -0.2247  0.3941
  411loPI    C1 6561  18.675   7.883   9.921  0.0619 -0.1967 -0.1214
  411loPI    C2 6562  19.029   7.819  10.095  0.0092 -0.0129  0.0574
  411loPI    C3 6563  18.694   7.682  10.266 -0.0445  0.1836  0.1125
  411loPI   PO4 6564  18.656   7.890   9.686 -0.2461 -0.0650  0.0530
  411loPI   GL1 6565  18.540   7.722   9.416 -0.1309 -0.5255 -0.0735
  411loPI   GL2 6566  18.319   7.930   9.317 -0.4605  0.3824 -0.3038
  411loPI   C1A 6567  18.671   7.855   8.970  0.1819 -0.0515  0.1041
  411loPI   C2A 6568  18.838   8.183   8.672  0.0317 -0.1306  0.0879
  411loPI   C3A 6569  18.920   8.092   8.296  0.1047 -0.0553 -0.0820
  411loPI   C4A 6570  19.160   8.162   7.967 -0.1331 -0.2712  0.0133
  411loPI   C5A 6571  19.397   8.363   7.679  0.0045  0.0147 -0.1454
  411loPI   C6A 6572  19.707   8.489   7.331 -0.2368  0.1978 -0.2907
  411loPI   C1B 6573  18.190   8.070   8.862  0.1198  0.1462 -0.2555
  411loPI   C2B 6574  18.037   8.015   8.510  0.0660 -0.0105  0.2818
  411loPI   C3B 6575  17.944   8.114   8.092  0.0549  0.0847  0.4001
  411loPI   C4B 6576  17.779   8.309   7.739  0.1187 -0.0395  0.0261
  412loPI    C1 6577  17.855  13.038  10.363  0.0224  0.0463 -0.1205
  412loPI    C2 6578  18.106  12.730  10.407 -0.2153 -0.1554 -0.1570
  412loPI    C3 6579  18.003  12.951  10.724 -0.0512 -0.1171 -0.1291
  412loPI   PO4 6580  17.908  13.217  10.254  0.3411 -0.1839 -0.0769
  412loPI   GL1 6581  17.844  13.420   9.844 -0.0040 -0.2548  0.0901
  412loPI   GL2 6582  17.629  13.638   9.913 -0.1226 -0.1918 -0.1573
  412loPI   C1A 6583  17.638  13.372   9.410 -0.3110  0.1674 -0.4983
  412loPI   C2A 6584  17.601  13.434   9.140 -0.1376  0.0071  0.0790
  412loPI   C3A 6585  17.564  13.367   8.698 -0.0829 -0.2048 -0.0275
  412loPI   C4A 6586  17.649  13.536   8.256 -0.1189 -0.2490  0.4081
  412loPI   C5A 6587  17.750  13.799   7.823  0.1915 -0.1733 -0.1740
  412loPI   C6A 6588  18.115  13.867   7.668 -0.0159 -0.1234 -0.3721
  412loPI   C1B 6589  17.466  13.863   9.572  0.2772  0.0364  0.2573
  412loPI   C2B 6590  17.305  13.877   9.149 -0.0272 -0.0673  0.0047
  412loPI   C3B 6591  17.388  13.937   8.749 -0.3275 -0.1588 -0.0521
  412loPI   C4B 6592  17.495  14.107   8.363 -0.1392  0.1384  0.0055
  413loPI    C1 6593   5.767  17.259  10.199 -0.0109  0.0225  0.0282
  413loPI    C2 6594   5.513  17.562  10.143 -0.0531 -0.0209 -0.0170
  413loPI    C3 6595   5.855  17.622  10.342 -0.0469  0.0633 -0.0526
  413loPI   PO4 6596   5.855  17.075   9.974 -0.1485 -0.1208  0.1226
  413loPI   GL1 6597   5.671  17.031   9.658  0.2705 -0.2600 -0.0220
  413loPI   GL2 6598   5.588  17.285   9.616  0.3181  0.1024  0.0505
  413loPI   C1A 6599   5.922  16.857   9.369 -0.0615  0.0257 -0.1222
  413loPI   C2A 6600   6.076  16.914   8.873 -0.1826 -0.0966  0.0390
  413loPI   C3A 6601   6.507  17.115   8.893 -0.0427  0.0130 -0.0358
  413loPI   C4A 6602   6.422  17.462   9.172  0.0389  0.2361 -0.1941
  413loPI   C5A 6603   6.260  17.809   9.039  0.1800 -0.0321  0.1450
  413loPI   C6A 6604   6.433  17.975   8.599  0.0455 -0.4729 -0.1274
  413loPI   C1B 6605   5.850  17.306   9.281 -0.0574  0.1504 -0.2187
  413loPI   C2B 6606   5.947  17.478   8.827  0.0532  0.2651  0.1493
  413loPI   C3B 6607   6.150  17.440   8.548  0.1158 -0.0907  0.1245
  413loPI   C4B 6608   6.307  17.140   8.432  0.3310  0.2370  0.1895
  414loPI    C1 6609  16.546  11.816  10.323  0.1266 -0.0889  0.0122
  414loPI    C2 6610  16.263  11.974  10.559  0.0527 -0.1130 -0.0598
  414loPI    C3 6611  16.637  11.932  10.695  0.0237 -0.0727  0.0326
  414loPI   PO4 6612  16.498  11.939   9.979 -0.1255  0.0682 -0.2233
  414loPI   GL1 6613  16.634  12.029   9.601 -0.1715  0.1199  0.1975
  414loPI   GL2 6614  16.878  12.042   9.436 -0.0499 -0.0500 -0.1119
  414loPI   C1A 6615  16.470  11.753   9.358 -0.2048  0.5537  0.3518
  414loPI   C2A 6616  16.434  11.464   8.933 -0.2362 -0.1977 -0.1433
  414loPI   C3A 6617  16.613  11.263   8.470  0.1500  0.0285 -0.3114
  414loPI   C4A 6618  16.735  11.388   8.096  0.2309 -0.0303  0.0511
  414loPI   C5A 6619  16.901  11.273   7.704 -0.2959 -0.2431  0.3035
  414loPI   C6A 6620  16.972  11.291   7.227 -0.0797  0.0576 -0.3806
  414loPI   C1B 6621  17.084  11.968   9.081  0.1387 -0.3075 -0.0415
  414loPI   C2B 6622  17.153  12.091   8.609  0.0469  0.1431 -0.2201
  414loPI   C3B 6623  17.124  12.279   8.251 -0.1158 -0.1084  0.0074
  414loPI   C4B 6624  16.818  12.264   8.003  0.0466 -0.0356  0.0692
  415loPI    C1 6625   9.096  15.129  10.007  0.0285 -0.0779 -0.2252
  415loPI    C2 6626   9.352  14.936  10.246 -0.1865 -0.0863  0.0023
  415loPI    C3 6627   9.465  15.043   9.877  0.1464 -0.0806  0.1026
  415loPI   PO4 6628   8.828  14.973  10.115  0.1080  0.1973 -0.2096
  415loPI   GL1 6629   8.863  14.644   9.862 -0.1970  0.0021  0.3319
  415loPI   GL2 6630   8.656  14.533   9.686 -0.1935  0.0335  0.4176
  415loPI   C1A 6631   9.182  14.696   9.584  0.0454  0.3276 -0.0467
  415loPI   C2A 6632   9.472  14.821   9.324  0.1371  0.1299  0.3619
  415loPI   C3A 6633   9.770  14.808   8.869  0.0035 -0.0539  0.1219
  415loPI   C4A 6634   9.873  14.797   8.399 -0.1908 -0.0306  0.0503
  415loPI   C5A 6635   9.983  14.824   7.893  0.4079  0.1880 -0.1462
  415loPI   C6A 6636   9.948  14.902   7.434 -0.4684  0.0248 -0.1376
  415loPI   C1B 6637   8.591  14.525   9.255  0.0056 -0.2863 -0.1415
  415loPI   C2B 6638   8.517  14.267   8.886  0.0895  0.1011  0.0308
  415loPI   C3B 6639   8.447  13.997   8.433 -0.0007  0.0574  0.0959
  415loPI   C4B 6640   8.703  13.888   8.093 -0.0064  0.0489 -0.0508
  416loPI    C1 6641  13.207  16.638  10.235  0.0080  0.1715  0.0504
  416loPI    C2 6642  13.530  16.693  10.465  0.0960 -0.0021 -0.0299
  416loPI    C3 6643  13.234  16.453  10.589  0.0902 -0.0033 -0.0460
  416loPI   PO4 6644  13.275  16.602   9.926  0.1995 -0.1080  0.0903
  416loPI   GL1 6645  13.059  16.485   9.570 -0.1418 -0.4835 -0.1060
  416loPI   GL2 6646  12.815  16.359   9.751  0.0157  0.0532  0.0056
  416loPI   C1A 6647  13.379  16.376   9.334 -0.0010  0.1517  0.2769
  416loPI   C2A 6648  13.456  16.272   8.958  0.0798 -0.0821  0.2039
  416loPI   C3A 6649  13.650  16.356   8.641  0.1102  0.1391 -0.2358
  416loPI   C4A 6650  13.835  16.540   8.260 -0.2005  0.0823  0.2001
  416loPI   C5A 6651  13.701  16.662   7.893  0.3920  0.1606 -0.0045
  416loPI   C6A 6652  13.591  16.808   7.482 -0.0526 -0.1068  0.1195
  416loPI   C1B 6653  12.489  16.502   9.424  0.3888 -0.5029  0.0260
  416loPI   C2B 6654  12.530  16.560   8.963 -0.1126 -0.0730  0.0477
  416loPI   C3B 6655  12.558  16.615   8.473  0.1500 -0.1213  0.1800
  416loPI   C4B 6656  12.359  16.680   8.086 -0.2404  0.3708  0.1767
  417loPI    C1 6657   4.908  16.944  10.326  0.1014  0.0782 -0.0392
  417loPI    C2 6658   4.767  17.200  10.599 -0.0662 -0.1041  0.0478
  417loPI    C3 6659   4.745  16.806  10.664  0.0198 -0.1462 -0.1680
  417loPI   PO4 6660   4.807  17.012  10.099  0.2672  0.0535  0.1248
  417loPI   GL1 6661   4.655  17.364   9.725  0.1982 -0.0105 -0.0167
  417loPI   GL2 6662   4.991  17.297   9.763  0.1253  0.3272  0.1236
  417loPI   C1A 6663   4.697  17.199   9.373 -0.0155  0.2378 -0.1589
  417loPI   C2A 6664   4.865  17.374   8.861  0.4455  0.2397  0.1991
  417loPI   C3A 6665   5.075  17.396   8.460  0.0860  0.3029 -0.1018
  417loPI   C4A 6666   5.188  17.163   8.096 -0.0448  0.0947 -0.1181
  417loPI   C5A 6667   5.532  17.230   7.734  0.2507 -0.0679  0.2445
  417loPI   C6A 6668   5.515  17.399   7.308 -0.0805  0.0075 -0.2856
  417loPI   C1B 6669   5.030  17.623   9.379  0.1569  0.2357 -0.2889
  417loPI   C2B 6670   5.129  17.772   9.022 -0.3720  0.2295  0.0180
  417loPI   C3B 6671   4.969  17.917   8.552 -0.4208  0.2441  0.2243
  417loPI   C4B 6672   4.693  18.084   8.181 -0.0767  0.0441  0.1554
  418loPI    C1 6673   9.220   7.925  10.462  0.1417 -0.4306  0.2487
  418loPI    C2 6674   8.856   7.943  10.629  0.0636 -0.0145  0.0471
  418loPI    C3 6675   9.167   8.123  10.805  0.1403 -0.2279  0.1331
  418loPI   PO4 6676   9.130   7.853  10.200  0.2640  0.1761 -0.0694
  418loPI   GL1 6677   9.021   7.695   9.899  0.0876  0.1307 -0.0683
  418loPI   GL2 6678   8.724   7.692   9.804  0.0983  0.1964 -0.2546
  418loPI   C1A 6679   9.146   7.848   9.549 -0.1389 -0.0335 -0.0055
  418loPI   C2A 6680   9.097   7.880   9.108 -0.2614  0.0680 -0.1646
  418loPI   C3A 6681   9.277   8.120   8.739 -0.0354  0.1863  0.0194
  418loPI   C4A 6682   9.642   8.284   8.489  0.0705  0.0251  0.1043
  418loPI   C5A 6683   9.751   8.371   8.042  0.0781 -0.2977 -0.0702
  418loPI   C6A 6684  10.125   8.830   7.886 -0.0342 -0.0769  0.4725
  418loPI   C1B 6685   8.639   7.956   9.489 -0.2077 -0.2772  0.1680
  418loPI   C2B 6686   8.950   8.329   9.313 -0.0669 -0.0347  0.1597
  418loPI   C3B 6687   8.854   8.596   8.970  0.0917 -0.0756  0.1886
  418loPI   C4B 6688   8.984   8.698   8.523 -0.0844  0.0551  0.1526
  419loPI    C1 6689  18.087  17.791  10.349  0.0311  0.2483 -0.1376
  419loPI    C2 6690  18.296  17.521  10.142  0.1145  0.2437 -0.0481
  419loPI    C3 6691  18.401  17.610  10.517  0.2189  0.5576 -0.1491
  419loPI   PO4 6692  18.140  18.007  10.217  0.0446 -0.3265 -0.1487
  419loPI   GL1 6693  18.114  18.345   9.890  0.0569 -0.1085  0.2109
  419loPI   GL2 6694  18.170  18.601   9.696  0.1619  0.0525 -0.0086
  419loPI   C1A 6695  18.043  18.178   9.427 -0.0503  0.2169 -0.2445
  419loPI   C2A 6696  18.004  18.292   8.978 -0.3388  0.1096 -0.0085
  419loPI   C3A 6697  18.060  18.216   8.524 -0.0120 -0.4156 -0.2354
  419loPI   C4A 6698  18.048  18.368   8.115 -0.2203 -0.1215  0.4168
  419loPI   C5A 6699  18.072  18.144   7.766  0.0241 -0.2790  0.0440
  419loPI   C6A 6700  18.114  17.768   7.553 -0.4403 -0.0053  0.0392
  419loPI   C1B 6701  18.200  18.656   9.209 -0.4100 -0.3172 -0.2440
  419loPI   C2B 6702  18.067  18.719   8.788 -0.1612 -0.4618 -0.1721
  419loPI   C3B 6703  17.925  18.807   8.357 -0.0509 -0.0820 -0.1133
  419loPI   C4B 6704  17.675  18.741   8.030 -0.2092 -0.0982  0.3319
  420loPI    C1 6705   8.204   5.630  10.630  0.0670  0.3160  0.0660
  420loPI    C2 6706   7.962   5.840  10.870  0.0534 -0.0139  0.3498
  420loPI    C3 6707   8.293   5.672  11.018  0.1079 -0.1233  0.1092
  420loPI   PO4 6708   8.196   5.781  10.444 -0.1134  0.1263  0.2172
  420loPI   GL1 6709   8.405   5.910   9.979  0.0240 -0.4406 -0.1824
  420loPI   GL2 6710   8.230   5.621   9.968  0.1649  0.1424  0.0223
  420loPI   C1A 6711   8.488   5.781   9.525 -0.0718  0.0642  0.2679
  420loPI   C2A 6712   8.268   5.697   9.138 -0.0197  0.0015 -0.2921
  420loPI   C3A 6713   8.186   5.731   8.635 -0.1973 -0.1532  0.0617
  420loPI   C4A 6714   8.310   5.535   8.143  0.1278 -0.1034 -0.1075
  420loPI   C5A 6715   8.598   5.656   7.884 -0.0441 -0.0871 -0.0130
  420loPI   C6A 6716   8.908   5.995   7.899 -0.0806  0.0355 -0.2729
  420loPI   C1B 6717   8.058   5.488   9.640  0.1473 -0.0365 -0.0587
  420loPI   C2B 6718   7.896   5.426   9.232  0.0322 -0.0343 -0.0829
  420loPI   C3B 6719   7.880   5.343   8.868  0.0685 -0.1706  0.1329
  420loPI   C4B 6720   7.850   5.417   8.458  0.0829  0.0687 -0.0498
  421loPI    C1 6721  15.015  16.477  10.685 -0.1329  0.1108 -0.0358
  421loPI    C2 6722  15.124  16.834  10.830 -0.2345  0.0686  0.1479
  421loPI    C3 6723  15.204  16.501  11.037 -0.1799 -0.0123 -0.0018
  421loPI   PO4 6724  15.053  16.418  10.386  0.0415 -0.0314 -0.1392
  421loPI   GL1 6725  15.331  16.549  10.110  0.1920 -0.2288  0.2393
  421loPI   GL2 6726  15.621  16.587   9.988 -0.3066 -0.3613  0.3299
  421loPI   C1A 6727  15.230  16.447   9.711  0.0289 -0.1612  0.0018
  421loPI   C2A 6728  15.379  16.485   9.277 -0.2083 -0.0803  0.0813
  421loPI   C3A 6729  15.350  16.606   8.830  0.1779 -0.2800  0.2690
  421loPI   C4A 6730  15.402  16.505   8.331 -0.1380  0.1585 -0.0371
  421loPI   C5A 6731  15.153  16.828   7.980  0.0703 -0.1971 -0.0942
  421loPI   C6A 6732  14.707  16.997   8.054  0.4534  0.1015 -0.0483
  421loPI   C1B 6733  15.791  16.420   9.656  0.0982  0.0869 -0.1485
  421loPI   C2B 6734  15.812  16.339   9.199 -0.2550  0.0479  0.1252
  421loPI   C3B 6735  15.912  16.205   8.775  0.4319  0.3351  0.1640
  421loPI   C4B 6736  16.162  16.093   8.415  0.1674  0.2476  0.1699
  422loPI    C1 6737   1.072   4.838  10.011 -0.1125 -0.0262 -0.0582
  422loPI    C2 6738   0.766   4.592   9.937 -0.1198 -0.0123 -0.0744
  422loPI    C3 6739   1.065   4.473  10.175 -0.1659 -0.0047 -0.0122
  422loPI   PO4 6740   1.228   4.903   9.707  0.3569 -0.2455 -0.4332
  422loPI   GL1 6741   1.200   4.763   9.173 -0.0765  0.2137  0.1456
  422loPI   GL2 6742   0.903   4.655   9.438  0.4211  0.5833  0.2181
  422loPI   C1A 6743   1.053   4.885   8.753 -0.1563 -0.2182  0.0299
  422loPI   C2A 6744   0.958   5.107   8.394  0.0441  0.1002  0.4004
  422loPI   C3A 6745   0.641   5.200   8.239 -0.0812  0.1423 -0.3471
  422loPI   C4A 6746   0.221   5.050   7.946  0.3330  0.0392  0.2077
  422loPI   C5A 6747  -0.076   5.135   7.669  0.0665  0.1756 -0.1687
  422loPI   C6A 6748  -0.118   5.394   7.333  0.0554 -0.0818  0.1417
  422loPI   C1B 6749   0.613   4.777   9.013  0.1820 -0.1832 -0.2088
  422loPI   C2B 6750   0.549   4.826   8.563 -0.1180  0.0726 -0.0185
  422loPI   C3B 6751   0.468   4.657   8.224 -0.1290 -0.0643 -0.0088
  422loPI   C4B 6752   0.246   4.415   7.961 -0.2316 -0.2291 -0.0996
  423loPI    C1 6753   4.859   2.464  10.330 -0.0487  0.0368  0.1205
  423loPI    C2 6754   5.058   2.117  10.303 -0.1731 -0.0375  0.1508
  423loPI    C3 6755   4.993   2.284  10.661 -0.1011  0.0245  0.1351
  423loPI   PO4 6756   4.627   2.458  10.167 -0.2295  0.2785  0.2278
  423loPI   GL1 6757   4.545   2.255   9.806 -0.0684 -0.1578 -0.2013
  423loPI   GL2 6758   4.333   2.375   9.827 -0.0013 -0.0817  0.1220
  423loPI   C1A 6759   4.703   2.241   9.445 -0.2261 -0.0064 -0.0242
  423loPI   C2A 6760   4.458   2.204   8.918 -0.0919 -0.1568  0.2268
  423loPI   C3A 6761   4.643   2.260   8.609  0.1126  0.3908  0.1213
  423loPI   C4A 6762   4.674   2.486   8.325  0.0890 -0.1829 -0.0820
  423loPI   C5A 6763   4.695   2.875   8.043 -0.1888 -0.0000 -0.1038
  423loPI   C6A 6764   4.986   2.994   7.746 -0.1398 -0.0215  0.1196
  423loPI   C1B 6765   4.178   2.635   9.541 -0.0250  0.1510 -0.1556
  423loPI   C2B 6766   4.008   3.026   9.380  0.1672 -0.1049 -0.0186
  423loPI   C3B 6767   3.966   2.999   8.958  0.0338  0.3313  0.1649
  423loPI   C4B 6768   4.031   3.289   8.567  0.0633  0.0936 -0.0740
  424loPI    C1 6769  14.389   8.373  10.415 -0.0698 -0.2125  0.3194
  424loPI    C2 6770  14.613   8.041  10.419  0.3098  0.0313  0.0268
  424loPI    C3 6771  14.764   8.387  10.554 -0.1152  0.0737  0.4204
  424loPI   PO4 6772  14.198   8.303  10.153  0.0867 -0.0176 -0.0612
  424loPI   GL1 6773  14.336   8.514   9.778 -0.1933  0.0481 -0.1917
  424loPI   GL2 6774  14.321   8.259   9.659 -0.3625  0.0249  0.2334
  424loPI   C1A 6775  14.181   8.773   9.523 -0.0049 -0.0309 -0.1148
  424loPI   C2A 6776  14.219   8.795   9.114  0.2901 -0.0379 -0.0483
  424loPI   C3A 6777  14.051   8.689   8.694 -0.0290 -0.5279  0.0003
  424loPI   C4A 6778  14.084   8.240   8.498  0.2596 -0.2302 -0.0403
  424loPI   C5A 6779  14.171   7.864   8.271  0.0730  0.0200 -0.1411
  424loPI   C6A 6780  14.101   7.534   7.963 -0.1354  0.1225  0.2005
  424loPI   C1B 6781  14.583   8.435   9.270 -0.0358 -0.2263  0.3040
  424loPI   C2B 6782  14.966   8.709   9.067  0.1100 -0.1147 -0.5771
  424loPI   C3B 6783  15.157   8.651   8.679 -0.0204 -0.0875  0.0732
  424loPI   C4B 6784  15.267   8.746   8.291 -0.1809 -0.0670 -0.0849
  425loPI    C1 6785   1.894  13.258   9.963 -0.0116  0.3401  0.2226
  425loPI    C2 6786   1.579  13.388  10.173 -0.2188  0.0743  0.0838
  425loPI    C3 6787   1.777  13.061  10.291 -0.1198  0.1242  0.0571
  425loPI   PO4 6788   2.062  13.490   9.913  0.1676 -0.2312 -0.0020
  425loPI   GL1 6789   2.216  13.503   9.513  0.0526  0.0046 -0.1713
  425loPI   GL2 6790   1.983  13.556   9.361 -0.0462  0.0545 -0.0468
  425loPI   C1A 6791   2.371  13.723   9.070 -0.3112  0.2302 -0.1877
  425loPI   C2A 6792   2.508  13.826   8.681  0.2137 -0.1224 -0.4417
  425loPI   C3A 6793   2.389  13.692   8.336 -0.1314  0.1911  0.2229
  425loPI   C4A 6794   2.453  13.806   7.911 -0.1818 -0.2901  0.2788
  425loPI   C5A 6795   2.215  13.734   7.531  0.1082  0.2046  0.1740
  425loPI   C6A 6796   2.322  13.831   7.101 -0.0096  0.0224  0.0817
  425loPI   C1B 6797   1.839  13.763   8.950  0.2071  0.0472  0.1705
  425loPI   C2B 6798   1.673  13.860   8.552 -0.0285 -0.1533  0.0590
  425loPI   C3B 6799   1.511  14.148   8.255 -0.2900 -0.3329 -0.0743
  425loPI   C4B 6800   1.233  14.154   7.825 -0.0242 -0.1081 -0.0933
  426loPI    C1 6801   0.198  17.209  10.603  0.1151 -0.1435 -0.0693
  426loPI    C2 6802  -0.007  16.929  10.801  0.2633  0.0169  0.3211
  426loPI    C3 6803  -0.119  17.312  10.824 -0.0098 -0.0134 -0.3047
  426loPI   PO4 6804   0.248  17.124  10.315 -0.2613  0.1910 -0.0623
  426loPI   GL1 6805   0.599  17.227   9.931 -0.0258  0.0339 -0.0213
  426loPI   GL2 6806   0.414  17.511   9.956 -0.0861  0.1553  0.0756
  426loPI   C1A 6807   0.751  17.317   9.498 -0.1417  0.0340  0.1444
  426loPI   C2A 6808   0.677  17.237   9.056 -0.2302 -0.1788 -0.1189
  426loPI   C3A 6809   0.581  17.086   8.625 -0.0160  0.1601  0.3103
  426loPI   C4A 6810   0.544  17.013   8.189 -0.0121 -0.1085  0.2555
  426loPI   C5A 6811   0.821  16.988   7.936  0.2363  0.2068  0.1025
  426loPI   C6A 6812   0.977  16.850   7.536  0.1709  0.2825  0.0446
  426loPI   C1B 6813   0.504  17.749   9.538  0.3130  0.1451  0.2120
  426loPI   C2B 6814   0.419  17.852   9.177  0.0742 -0.0770 -0.1164
  426loPI   C3B 6815   0.446  17.716   8.818  0.1706 -0.1997  0.1866
  426loPI   C4B 6816   0.558  17.685   8.379 -0.1623 -0.0872  0.0849
  427loPI    C1 6817   0.125   5.004  10.313 -0.3414 -0.0226 -0.1217
  427loPI    C2 6818  -0.137   5.119  10.592 -0.1602 -0.1525  0.1062
  427loPI    C3 6819  -0.020   4.737  10.574 -0.1362 -0.1356 -0.1204
  427loPI   PO4 6820   0.008   5.083  10.062 -0.1853  0.0751  0.0075
  427loPI   GL1 6821  -0.215   4.874   9.709 -0.0105  0.1283 -0.1958
  427loPI   GL2 6822  -0.474   5.022   9.800  0.0049  0.1857  0.1752
  427loPI   C1A 6823   0.000   4.834   9.227  0.1472  0.0810  0.3544
  427loPI   C2A 6824  -0.011   4.741   8.757  0.1443  0.1393 -0.0666
  427loPI   C3A 6825  -0.069   4.667   8.336 -0.1257 -0.1776 -0.1235
  427loPI   C4A 6826  -0.218   4.704   7.917 -0.1580 -0.0544 -0.2116
  427loPI   C5A 6827  -0.458   4.475   7.522  0.2290  0.2882 -0.1332
  427loPI   C6A 6828  -0.982   4.525   7.432  0.1985  0.0655  0.1277
  427loPI   C1B 6829  -0.729   5.091   9.470 -0.0591  0.2779 -0.0026
  427loPI   C2B 6830  -0.744   5.134   9.103  0.0954 -0.0697 -0.0992
  427loPI   C3B 6831  -0.776   5.236   8.731 -0.1362  0.0849 -0.0021
  427loPI   C4B 6832  -0.812   5.288   8.278 -0.0608  0.1544 -0.0162
  428loPI    C1 6833   6.136   6.266  10.325  0.1615  0.0789 -0.2721
  428loPI    C2 6834   6.302   6.630  10.340  0.1176  0.0941 -0.1519
  428loPI    C3 6835   6.257   6.416  10.675 -0.1207  0.0968 -0.1802
  428loPI   PO4 6836   5.953   6.260  10.163  0.3535  0.3229  0.0472
  428loPI   GL1 6837   5.839   6.304   9.734  0.0704 -0.0515  0.0380
  428loPI   GL2 6838   5.930   5.979   9.738  0.1938 -0.0477  0.0518
  428loPI   C1A 6839   5.849   6.525   9.385 -0.2218  0.2191 -0.0777
  428loPI   C2A 6840   6.067   6.614   9.046  0.1615 -0.3376  0.1233
  428loPI   C3A 6841   6.203   6.801   8.736 -0.1142  0.2787 -0.0155
  428loPI   C4A 6842   6.300   6.777   8.289  0.0078  0.0931  0.0472
  428loPI   C5A 6843   6.384   6.719   7.886 -0.1705 -0.1360  0.2004
  428loPI   C6A 6844   6.397   7.044   7.623  0.0785 -0.0139 -0.2624
  428loPI   C1B 6845   5.798   5.975   9.310 -0.5232 -0.0144 -0.1813
  428loPI   C2B 6846   5.886   5.849   8.893 -0.0392  0.0934 -0.0439
  428loPI   C3B 6847   5.785   5.585   8.495  0.1108 -0.0694  0.1797
  428loPI   C4B 6848   5.762   5.534   8.100 -0.2741  0.0299  0.0626
  429loPI    C1 6849  17.383   0.296  10.368  0.1230 -0.0395 -0.0366
  429loPI    C2 6850  17.095   0.316  10.645 -0.1367 -0.0868 -0.2975
  429loPI    C3 6851  17.368   0.024  10.660 -0.1252 -0.0665 -0.0722
  429loPI   PO4 6852  17.288   0.257  10.047 -0.0455 -0.0271 -0.1746
  429loPI   GL1 6853  17.155  -0.011   9.650 -0.0892  0.0912 -0.3453
  429loPI   GL2 6854  17.405   0.027   9.558  0.1288 -0.1231  0.1704
  429loPI   C1A 6855  17.213  -0.321   9.301 -0.1161 -0.2209  0.2338
  429loPI   C2A 6856  17.046  -0.589   8.934 -0.0294 -0.1497  0.0334
  429loPI   C3A 6857  16.998  -0.784   8.622  0.0972  0.0713  0.0311
  429loPI   C4A 6858  16.888  -0.645   8.229  0.2655  0.0433  0.2745
  429loPI   C5A 6859  16.612  -0.237   8.068  0.0191  0.2312  0.1861
  429loPI   C6A 6860  16.327   0.037   8.106 -0.1857  0.5048 -0.1846
  429loPI   C1B 6861  17.131   0.140   9.188  0.0549 -0.4206 -0.0680
  429loPI   C2B 6862  16.806  -0.074   8.988  0.2803  0.2438 -0.2683
  429loPI   C3B 6863  16.675  -0.354   8.617 -0.0618 -0.1748  0.1345
  429loPI   C4B 6864  16.238  -0.395   8.469 -0.3260 -0.3051  0.1882
  430loPI    C1 6865  10.569  17.315   9.851 -0.0093  0.0442 -0.0581
  430loPI    C2 6866  10.491  17.542  10.171  0.0498  0.0378 -0.0389
  430loPI    C3 6867  10.856  17.545  10.007 -0.0073  0.1159 -0.1662
  430loPI   PO4 6868  10.307  17.252   9.712  0.0665 -0.1824  0.0031
  430loPI   GL1 6869  10.233  17.088   9.385  0.1328 -0.1500 -0.2010
  430loPI   GL2 6870  10.420  16.885   9.330  0.1096  0.1231 -0.1227
  430loPI   C1A 6871  10.305  17.237   8.950 -0.1553 -0.1600  0.0458
  430loPI   C2A 6872  10.440  17.144   8.407  0.3597 -0.0013  0.1675
  430loPI   C3A 6873  10.426  17.131   7.851 -0.2444  0.2281 -0.2265
  430loPI   C4A 6874  10.330  17.265   7.466  0.0800 -0.1573 -0.1585
  430loPI   C5A 6875  10.144  16.849   7.231  0.3074 -0.1821  0.1762
  430loPI   C6A 6876  10.018  16.416   7.346 -0.4241 -0.0396 -0.1852
  430loPI   C1B 6877  10.211  16.699   9.015 -0.2741 -0.1421 -0.1596
  430loPI   C2B 6878  10.262  16.691   8.605  0.1508 -0.0355  0.0749
  430loPI   C3B 6879  10.391  16.650   8.223 -0.1188 -0.2901 -0.1960
  430loPI   C4B 6880  10.711  16.620   7.876  0.0887 -0.0101 -0.2261
  431loPI    C1 6881  16.598   9.840  10.081  0.1212 -0.2603 -0.2167
  431loPI    C2 6882  16.753  10.136  10.300 -0.2373 -0.1942 -0.0458
  431loPI    C3 6883  16.841  10.108   9.911  0.1456 -0.1222  0.0319
  431loPI   PO4 6884  16.496   9.608  10.227 -0.1297  0.0463  0.0199
  431loPI   GL1 6885  16.361   9.201   9.860 -0.0940 -0.1529  0.0296
  431loPI   GL2 6886  16.095   9.460   9.796 -0.1916  0.1084  0.2713
  431loPI   C1A 6887  16.596   9.045   9.602  0.0913  0.0107  0.1963
  431loPI   C2A 6888  16.590   9.002   9.173 -0.1728  0.1086 -0.1365
  431loPI   C3A 6889  16.697   8.929   8.737  0.1426 -0.3188 -0.0936
  431loPI   C4A 6890  16.392   9.082   8.417 -0.3001  0.0463 -0.3849
  431loPI   C5A 6891  16.447   8.928   7.949  0.3670 -0.2078 -0.1794
  431loPI   C6A 6892  16.469   8.690   7.499 -0.0244 -0.2435  0.0857
  431loPI   C1B 6893  16.000   9.580   9.350  0.0111 -0.1680 -0.0678
  431loPI   C2B 6894  16.081   9.756   8.940  0.1887  0.0762 -0.0812
  431loPI   C3B 6895  16.251  10.088   8.571  0.1507  0.1036  0.0703
  431loPI   C4B 6896  16.399  10.399   8.323 -0.0217  0.0174  0.3143
  432loPI    C1 6897   7.363  15.627   9.974 -0.2004  0.3209 -0.0755
  432loPI    C2 6898   7.503  15.655  10.348 -0.0581  0.0199 -0.1034
  432loPI    C3 6899   7.141  15.497  10.282 -0.0346 -0.0351 -0.1013
  432loPI   PO4 6900   7.537  15.578   9.840 -0.2866 -0.0044 -0.0606
  432loPI   GL1 6901   7.541  15.467   9.399 -0.0205 -0.2342 -0.4053
  432loPI   GL2 6902   7.323  15.302   9.365  0.1566 -0.1148 -0.0339
  432loPI   C1A 6903   7.828  15.749   9.000 -0.0175 -0.0684  0.3095
  432loPI   C2A 6904   7.892  15.732   8.576 -0.1618 -0.2000  0.0815
  432loPI   C3A 6905   7.739  15.730   8.281 -0.2706 -0.3322 -0.4360
  432loPI   C4A 6906   7.569  15.796   7.872  0.2441  0.2860  0.1874
  432loPI   C5A 6907   7.382  15.927   7.468  0.2000 -0.0266  0.2443
  432loPI   C6A 6908   7.214  15.980   6.975 -0.0397  0.2637 -0.1602
  432loPI   C1B 6909   7.489  15.287   8.909  0.3419 -0.2694  0.0737
  432loPI   C2B 6910   7.616  15.327   8.539  0.1857 -0.2171  0.3285
  432loPI   C3B 6911   7.655  15.131   8.082 -0.1290 -0.1671 -0.0263
  432loPI   C4B 6912   7.610  15.295   7.681  0.1509 -0.0891 -0.1830
  433loPI    C1 6913  17.683   7.902  10.148 -0.1203 -0.0790  0.2293
  433loPI    C2 6914  17.324   8.078  10.136 -0.1484 -0.1368  0.2182
  433loPI    C3 6915  17.452   7.909  10.475 -0.0745  0.0020  0.2602
  433loPI   PO4 6916  17.895   8.148  10.127  0.0143 -0.0363  0.1646
  433loPI   GL1 6917  18.051   8.465   9.811  0.0916 -0.0649 -0.0566
  433loPI   GL2 6918  18.358   8.321   9.605  0.1283 -0.0088 -0.2125
  433loPI   C1A 6919  18.007   8.667   9.398  0.0052 -0.1321  0.0512
  433loPI   C2A 6920  18.006   8.813   9.012 -0.1131 -0.0134  0.0237
  433loPI   C3A 6921  17.803   8.973   8.547 -0.0451  0.0518 -0.1427
  433loPI   C4A 6922  17.786   9.114   8.132 -0.1778  0.4452  0.0665
  433loPI   C5A 6923  17.960   9.370   7.759 -0.0601 -0.1628  0.0511
  433loPI   C6A 6924  18.133   9.626   7.513 -0.1025 -0.2926 -0.1775
  433loPI   C1B 6925  18.436   8.423   9.150  0.1987 -0.0526  0.1778
  433loPI   C2B 6926  18.370   8.505   8.726 -0.0271 -0.1622 -0.4276
  433loPI   C3B 6927  17.988   8.512   8.433  0.4339  0.1031 -0.0002
  433loPI   C4B 6928  17.754   8.619   8.155  0.0456  0.3686  0.0057
  434loPI    C1 6929   3.823  14.183  10.186 -0.0820 -0.0666 -0.1398
  434loPI    C2 6930   3.504  14.423  10.218  0.0097  0.0102  0.2581
  434loPI    C3 6931   3.867  14.580  10.159  0.0023 -0.0664 -0.0064
  434loPI   PO4 6932   3.765  13.968  10.054  0.1987  0.0250 -0.1335
  434loPI   GL1 6933   3.793  13.866   9.610  0.2394  0.1596  0.1931
  434loPI   GL2 6934   3.809  13.568   9.440 -0.1191  0.0274 -0.1244
  434loPI   C1A 6935   3.803  13.974   9.164 -0.0648  0.2428  0.1320
  434loPI   C2A 6936   3.482  13.992   8.768  0.1339  0.0862 -0.0262
  434loPI   C3A 6937   3.340  14.170   8.420 -0.0247 -0.0407  0.0178
  434loPI   C4A 6938   3.273  14.279   7.950  0.3254  0.0783 -0.1165
  434loPI   C5A 6939   3.603  14.281   7.601  0.3527 -0.1852  0.1558
  434loPI   C6A 6940   3.931  13.971   7.488 -0.1339  0.2062  0.0135
  434loPI   C1B 6941   3.726  13.468   8.977  0.0752 -0.0817  0.2384
  434loPI   C2B 6942   3.682  13.569   8.539  0.2805  0.0706 -0.0540
  434loPI   C3B 6943   3.507  13.596   8.163  0.0339  0.0051 -0.3176
  434loPI   C4B 6944   3.562  13.551   7.716 -0.0885  0.2251  0.1553
  435loPI    C1 6945   1.916   6.012  10.151 -0.0692  0.1402  0.2294
  435loPI    C2 6946   1.589   6.041  10.379 -0.0894  0.1042  0.2052
  435loPI    C3 6947   1.942   5.952  10.546 -0.0636  0.2905  0.2523
  435loPI   PO4 6948   1.902   6.050   9.903  0.2970  0.0628 -0.0076
  435loPI   GL1 6949   1.622   6.095   9.640 -0.2138 -0.0621 -0.0759
  435loPI   GL2 6950   1.529   6.113   9.274 -0.2938 -0.0140 -0.0995
  435loPI   C1A 6951   1.568   6.538   9.495  0.0097  0.1183  0.0447
  435loPI   C2A 6952   1.713   6.662   9.043 -0.3822 -0.1946  0.3014
  435loPI   C3A 6953   1.801   6.662   8.603 -0.1714 -0.3401 -0.0017
  435loPI   C4A 6954   1.542   6.553   8.226 -0.0579  0.1144  0.0575
  435loPI   C5A 6955   1.347   6.662   7.872 -0.3632 -0.0096 -0.0388
  435loPI   C6A 6956   1.345   6.732   7.462 -0.0110  0.1937 -0.3063
  435loPI   C1B 6957   1.694   6.128   8.885  0.1585 -0.1489  0.0947
  435loPI   C2B 6958   1.779   6.180   8.433  0.1336 -0.1601 -0.1533
  435loPI   C3B 6959   1.944   6.113   8.047 -0.0003 -0.1829 -0.1153
  435loPI   C4B 6960   2.180   6.200   7.609 -0.0192  0.4443  0.3482
  436loPI    C1 6961  11.493   2.579  10.409 -0.3304  0.1036 -0.0154
  436loPI    C2 6962  11.254   2.273  10.315 -0.2998  0.0676  0.0233
  436loPI    C3 6963  11.373   2.324  10.693  0.0423 -0.1229 -0.0542
  436loPI   PO4 6964  11.434   2.727  10.215 -0.1456  0.0646 -0.0181
  436loPI   GL1 6965  11.525   2.917   9.845  0.2100 -0.0753  0.1002
  436loPI   GL2 6966  11.267   3.057   9.856 -0.2393  0.1597  0.0529
  436loPI   C1A 6967  11.668   2.923   9.434  0.3166  0.0280  0.1113
  436loPI   C2A 6968  11.693   2.868   9.002  0.2357  0.0997  0.0241
  436loPI   C3A 6969  11.449   2.997   8.625  0.0659  0.0234 -0.0041
  436loPI   C4A 6970  11.298   3.064   8.270 -0.3546 -0.0941  0.0432
  436loPI   C5A 6971  11.444   3.462   8.192  0.1635  0.0508  0.0457
  436loPI   C6A 6972  11.763   3.747   7.986 -0.0370 -0.0682 -0.1251
  436loPI   C1B 6973  10.824   2.866   9.575 -0.2188 -0.1923 -0.0464
  436loPI   C2B 6974  10.746   2.919   9.108 -0.4051 -0.1934  0.0214
  436loPI   C3B 6975  10.518   3.083   8.753 -0.1843  0.0151  0.2244
  436loPI   C4B 6976  10.439   3.510   8.652  0.4292 -0.4477 -0.1369
  437loPI    C1 6977   8.924   0.402  10.081 -0.1669  0.2305  0.1130
  437loPI    C2 6978   9.199   0.277  10.343 -0.2981 -0.2891  0.0147
  437loPI    C3 6979   8.888   0.495  10.469  0.0290  0.1050  0.1628
  437loPI   PO4 6980   9.040   0.391   9.841 -0.0288  0.0709  0.0323
  437loPI   GL1 6981   9.420   0.526   9.623  0.1148 -0.0720  0.0901
  437loPI   GL2 6982   9.231   0.746   9.528  0.1222 -0.0225 -0.1588
  437loPI   C1A 6983   9.314   0.459   9.156 -0.2353  0.1656 -0.2948
  437loPI   C2A 6984   9.298   0.467   8.714  0.0861  0.1972 -0.3763
  437loPI   C3A 6985   9.457   0.396   8.307 -0.3105 -0.2736 -0.2023
  437loPI   C4A 6986   9.422   0.725   8.016 -0.2739  0.2286  0.1461
  437loPI   C5A 6987   9.375   1.092   7.657  0.4391 -0.3063 -0.0774
  437loPI   C6A 6988   9.238   1.464   7.584  0.2122 -0.1528 -0.2623
  437loPI   C1B 6989   9.143   0.996   9.211  0.1400 -0.0654 -0.1042
  437loPI   C2B 6990   9.047   1.025   8.843  0.1888 -0.1387  0.1555
  437loPI   C3B 6991   8.849   1.205   8.515  0.0238 -0.0367 -0.1100
  437loPI   C4B 6992   8.629   1.223   8.127  0.1418  0.3026 -0.2864
  438loPI    C1 6993  12.779   6.654  10.185  0.0300 -0.2923 -0.0025
  438loPI    C2 6994  12.578   6.686  10.529 -0.0954  0.2002 -0.1133
  438loPI    C3 6995  12.968   6.598  10.533 -0.1295  0.0490  0.1439
  438loPI   PO4 6996  12.706   6.443  10.054  0.3308  0.1113  0.2164
  438loPI   GL1 6997  12.544   6.325   9.732 -0.2384  0.1580  0.3117
  438loPI   GL2 6998  12.555   6.068   9.591  0.2696 -0.0450  0.1616
  438loPI   C1A 6999  12.454   6.506   9.302  0.3180  0.1182  0.0077
  438loPI   C2A 7000  12.423   6.542   8.822  0.0042  0.1121 -0.0218
  438loPI   C3A 7001  12.447   6.553   8.453 -0.0388 -0.0985 -0.2824
  438loPI   C4A 7002  12.440   6.459   7.965  0.0263 -0.0096 -0.0594
  438loPI   C5A 7003  12.280   6.120   7.634  0.0870  0.0233  0.0820
  438loPI   C6A 7004  12.097   5.782   7.499  0.0998 -0.0752 -0.3652
  438loPI   C1B 7005  12.244   6.105   9.181  0.0697 -0.1637 -0.0054
  438loPI   C2B 7006  11.995   6.140   8.848 -0.1244  0.0114  0.1187
  438loPI   C3B 7007  11.884   6.332   8.500 -0.1176  0.4041  0.0007
  438loPI   C4B 7008  11.902   6.275   8.001 -0.3844 -0.1737 -0.1082
  439loPI    C1 7009  16.859   1.899   9.995  0.0348  0.1916 -0.0448
  439loPI    C2 7010  16.729   2.259   9.878 -0.3250  0.0081 -0.2250
  439loPI    C3 7011  16.553   2.072  10.185  0.0068  0.0783  0.0140
  439loPI   PO4 7012  17.020   1.843   9.745  0.2518 -0.1528 -0.1402
  439loPI   GL1 7013  16.964   1.793   9.349 -0.0798  0.1299  0.0778
  439loPI   GL2 7014  16.929   2.099   9.372  0.1142 -0.2453  0.1947
  439loPI   C1A 7015  16.979   1.768   8.898  0.1116 -0.2856 -0.0355
  439loPI   C2A 7016  16.915   1.754   8.464 -0.1745  0.2215  0.1354
  439loPI   C3A 7017  16.629   1.629   8.224  0.0443  0.0861 -0.0500
  439loPI   C4A 7018  16.488   1.283   7.923 -0.1355  0.2208 -0.1019
  439loPI   C5A 7019  16.343   0.985   8.037  0.0432 -0.2763  0.0985
  439loPI   C6A 7020  15.887   0.786   7.981  0.2821 -0.1357 -0.1106
  439loPI   C1B 7021  16.882   2.272   9.043 -0.4253  0.2287  0.0200
  439loPI   C2B 7022  16.758   2.237   8.616  0.1908  0.0113  0.5174
  439loPI   C3B 7023  16.498   2.215   8.337  0.0627  0.1264  0.0169
  439loPI   C4B 7024  16.354   2.294   8.086 -0.1044 -0.1656  0.0948
  440loPI    C1 7025   1.610  15.649   9.609  0.2636 -0.0279  0.0845
  440loPI    C2 7026   1.856  15.338   9.662  0.1014 -0.1817 -0.0541
  440loPI    C3 7027   1.578  15.327   9.375 -0.0948 -0.0264  0.1269
  440loPI   PO4 7028   1.766  15.921   9.678  0.2837  0.1388 -0.0985
  440loPI   GL1 7029   1.585  16.273   9.532 -0.1534  0.1477  0.1235
  440loPI   GL2 7030   1.746  16.442   9.703 -0.2394  0.3119 -0.1119
  440loPI   C1A 7031   1.632  16.211   9.105 -0.3085 -0.1055 -0.2151
  440loPI   C2A 7032   1.520  16.011   8.666  0.1497 -0.2489 -0.0090
  440loPI   C3A 7033   1.452  15.895   8.331  0.0736 -0.2261 -0.2464
  440loPI   C4A 7034   1.163  15.982   7.990  0.1996 -0.0478  0.0901
  440loPI   C5A 7035   1.191  15.794   7.499  0.1345  0.1188  0.2180
  440loPI   C6A 7036   1.048  15.731   7.177  0.0708 -0.2440 -0.2139
  440loPI   C1B 7037   1.471  16.752   9.399  0.2018 -0.5754  0.0718
  440loPI   C2B 7038   1.342  16.705   9.043 -0.2509 -0.0692  0.1139
  440loPI   C3B 7039   1.370  16.460   8.587 -0.0313  0.1532  0.2370
  440loPI   C4B 7040   1.404  16.411   8.200 -0.0359 -0.1373 -0.0280
  441loPI    C1 7041  12.904  17.868  10.384  0.0337  0.0766 -0.0400
  441loPI    C2 7042  12.565  18.025  10.528  0.0786  0.0786  0.0646
  441loPI    C3 7043  12.912  18.091  10.716  0.1256  0.0107  0.0025
  441loPI   PO4 7044  12.887  17.968  10.075 -0.0363 -0.3730 -0.1601
  441loPI   GL1 7045  12.810  18.259   9.761 -0.2971 -0.0551  0.0582
  441loPI   GL2 7046  12.574  18.219   9.525  0.3727  0.1001  0.2083
  441loPI   C1A 7047  12.934  18.498   9.334  0.0631  0.0371  0.0348
  441loPI   C2A 7048  12.862  18.378   8.945 -0.1924  0.1416 -0.1126
  441loPI   C3A 7049  13.100  18.405   8.504 -0.0155 -0.1351  0.2081
  441loPI   C4A 7050  13.036  18.597   8.071  0.1990  0.1194  0.1699
  441loPI   C5A 7051  12.827  18.645   7.678 -0.0085  0.2362  0.2105
  441loPI   C6A 7052  12.575  18.641   7.292 -0.1754  0.1878 -0.0050
  441loPI   C1B 7053  12.374  18.378   9.177 -0.0893  0.0904 -0.0790
  441loPI   C2B 7054  12.225  18.302   8.818  0.0143 -0.2089  0.2970
  441loPI   C3B 7055  12.194  18.342   8.432 -0.0679 -0.1480  0.1570
  441loPI   C4B 7056  12.111  18.309   8.005 -0.0324 -0.0425  0.2093
  442loPI    C1 7057  17.935   0.627  10.210  0.2042  0.1490  0.0945
  442loPI    C2 7058  17.751   0.609  10.564  0.1427  0.1218  0.0613
  442loPI    C3 7059  17.758   0.952  10.360  0.3378  0.1864  0.1737
  442loPI   PO4 7060  17.831   0.422  10.097  0.0182 -0.0705 -0.0037
  442loPI   GL1 7061  17.699   0.398   9.799 -0.3070 -0.0293  0.1805
  442loPI   GL2 7062  17.591   0.546   9.556 -0.0946 -0.0031  0.0967
  442loPI   C1A 7063  17.887   0.178   9.401 -0.0056 -0.2303  0.2010
  442loPI   C2A 7064  17.955   0.346   9.051 -0.0532 -0.0910 -0.0231
  442loPI   C3A 7065  18.081   0.476   8.680 -0.2851  0.1793 -0.1956
  442loPI   C4A 7066  17.946   0.476   8.245  0.0786  0.1324  0.0754
  442loPI   C5A 7067  17.870   0.734   7.916 -0.1138  0.3570 -0.1480
  442loPI   C6A 7068  17.818   1.162   7.703 -0.0609  0.3767 -0.0652
  442loPI   C1B 7069  17.883   0.813   9.384 -0.0297 -0.0627 -0.3625
  442loPI   C2B 7070  17.922   0.867   8.984  0.1017  0.0532 -0.1511
  442loPI   C3B 7071  18.074   1.011   8.533  0.1872  0.2188 -0.0061
  442loPI   C4B 7072  18.096   1.111   8.138  0.1560 -0.0309 -0.0856
  443loPI    C1 7073   8.436  12.306  10.574 -0.0464 -0.0570  0.0588
  443loPI    C2 7074   8.271  12.479  10.895  0.1533  0.0329  0.1151
  443loPI    C3 7075   8.576  12.225  10.940  0.0487 -0.1133  0.0103
  443loPI   PO4 7076   8.287  12.418  10.396 -0.2645 -0.1852 -0.2550
  443loPI   GL1 7077   8.416  12.562  10.056  0.0019 -0.2745  0.0797
  443loPI   GL2 7078   8.122  12.755  10.002 -0.2093 -0.0698  0.3948
  443loPI   C1A 7079   8.463  12.368   9.587  0.1901  0.0799 -0.0484
  443loPI   C2A 7080   8.630  12.418   9.148  0.1129 -0.1602  0.1407
  443loPI   C3A 7081   8.861  12.520   8.738 -0.1454 -0.0196 -0.1331
  443loPI   C4A 7082   9.107  12.723   8.448  0.0733 -0.0261  0.2039
  443loPI   C5A 7083   9.204  12.965   8.142  0.2023 -0.2030 -0.1228
  443loPI   C6A 7084   9.383  12.768   7.900 -0.2713 -0.0628  0.1179
  443loPI   C1B 7085   7.894  12.604   9.623 -0.3220  0.0455  0.1186
  443loPI   C2B 7086   8.014  12.442   9.179 -0.0779 -0.0284 -0.1141
  443loPI   C3B 7087   8.163  12.294   8.888  0.1572  0.1861  0.1947
  443loPI   C4B 7088   8.199  12.033   8.474 -0.2041 -0.0749 -0.0066
  444loPI    C1 7089  18.006  10.426   9.939  0.1391 -0.1597  0.1392
  444loPI    C2 7090  17.768  10.127  10.056 -0.1402 -0.0994 -0.2545
  444loPI    C3 7091  17.609  10.460   9.901  0.1742  0.2044  0.0576
  444loPI   PO4 7092  18.193  10.199   9.657 -0.1604  0.0373 -0.3462
  444loPI   GL1 7093  18.532  10.010   9.455  0.1349  0.3076 -0.0633
  444loPI   GL2 7094  18.926   9.976   9.510  0.4930 -0.2977 -0.0949
  444loPI   C1A 7095  18.545  10.124   9.036 -0.0995 -0.0185  0.0787
  444loPI   C2A 7096  18.305  10.451   8.968 -0.0175  0.0853 -0.0987
  444loPI   C3A 7097  18.065  10.533   8.592  0.0811  0.2005  0.1011
  444loPI   C4A 7098  17.672  10.530   8.341 -0.1369 -0.0097  0.3285
  444loPI   C5A 7099  17.216  10.565   8.164  0.1303  0.1012  0.0835
  444loPI   C6A 7100  16.825  10.388   8.046 -0.0210 -0.0197  0.0717
  444loPI   C1B 7101  19.030   9.671   9.177 -0.1499  0.0064  0.0162
  444loPI   C2B 7102  19.011   9.544   8.684 -0.0769  0.1195 -0.1884
  444loPI   C3B 7103  19.213   9.451   8.323 -0.0171 -0.0500 -0.1075
  444loPI   C4B 7104  19.580   9.352   8.003 -0.3590 -0.0589  0.2297
  445loPI    C1 7105  17.742  11.114   9.976 -0.2071 -0.1424 -0.0520
  445loPI    C2 7106  17.647  10.836  10.247 -0.2283 -0.0728  0.0122
  445loPI    C3 7107  17.915  11.119  10.336 -0.3283  0.0252  0.0058
  445loPI   PO4 7108  17.766  10.913   9.765  0.0544 -0.1799 -0.3103
  445loPI   GL1 7109  18.020  10.651   9.485  0.2056  0.0584  0.0728
  445loPI   GL2 7110  17.702  10.522   9.408 -0.0256 -0.1805 -0.2036
  445loPI   C1A 7111  17.969  10.800   9.040 -0.1671  0.0216  0.1267
  445loPI   C2A 7112  17.700  10.944   8.674  0.0538 -0.1654  0.0257
  445loPI   C3A 7113  17.679  11.027   8.244 -0.1541 -0.1512 -0.1003
  445loPI   C4A 7114  17.577  11.440   7.913 -0.0707  0.0514  0.3910
  445loPI   C5A 7115  17.620  11.632   7.504 -0.0530 -0.2985  0.0612
  445loPI   C6A 7116  17.893  11.807   7.295 -0.1616 -0.0529  0.1545
  445loPI   C1B 7117  17.362  10.646   9.153 -0.4658  0.0300  0.1254
  445loPI   C2B 7118  17.253  10.685   8.706 -0.2404 -0.2455 -0.1797
  445loPI   C3B 7119  17.330  10.279   8.569  0.3438 -0.3031  0.0983
  445loPI   C4B 7120  17.233   9.890   8.413  0.0141  0.5415 -0.0818
  446loPI    C1 7121   3.843   3.371  10.663 -0.1913 -0.1377 -0.2745
  446loPI    C2 7122   4.242   3.362  10.635 -0.1776 -0.2135 -0.0733
  446loPI    C3 7123   4.051   3.091  10.859 -0.3052  0.1119  0.2191
  446loPI   PO4 7124   3.871   3.594  10.352 -0.0866 -0.0800 -0.2701
  446loPI   GL1 7125   4.069   3.483  10.004  0.0686  0.1470 -0.2342
  446loPI   GL2 7126   3.753   3.294   9.813  0.1380 -0.2298  0.0461
  446loPI   C1A 7127   4.180   3.660   9.648  0.0560 -0.2129 -0.0846
  446loPI   C2A 7128   4.248   3.721   9.255  0.1303  0.0961  0.1443
  446loPI   C3A 7129   4.258   3.674   8.840 -0.2051  0.0816 -0.0300
  446loPI   C4A 7130   4.343   3.839   8.403 -0.1364 -0.0620  0.2151
  446loPI   C5A 7131   4.461   4.151   8.154 -0.2218  0.0269 -0.0041
  446loPI   C6A 7132   4.246   4.402   7.847  0.3297 -0.2874 -0.1899
  446loPI   C1B 7133   3.667   3.566   9.474  0.1689  0.0828  0.0750
  446loPI   C2B 7134   3.753   3.641   9.030  0.2980  0.1472 -0.0400
  446loPI   C3B 7135   3.835   3.748   8.515 -0.1655 -0.0420 -0.0343
  446loPI   C4B 7136   3.532   4.138   8.402 -0.3282 -0.0524 -0.1982
  447loPI    C1 7137   1.344  16.924  10.183  0.2377  0.0850  0.2214
  447loPI    C2 7138   1.424  16.761  10.539 -0.0842  0.0348  0.2740
  447loPI    C3 7139   1.219  17.104  10.518  0.0828  0.1277  0.1417
  447loPI   PO4 7140   1.604  16.864  10.002  0.1354 -0.1734 -0.1165
  447loPI   GL1 7141   1.846  17.018   9.677  0.1189 -0.1133 -0.2449
  447loPI   GL2 7142   1.920  17.339   9.623 -0.1103  0.0621 -0.1712
  447loPI   C1A 7143   1.772  17.116   9.230 -0.1853 -0.0119  0.2259
  447loPI   C2A 7144   1.543  17.148   8.850  0.0392 -0.0027 -0.1118
  447loPI   C3A 7145   1.478  16.886   8.378 -0.1594 -0.1780  0.0260
  447loPI   C4A 7146   1.287  16.828   7.999 -0.0797  0.1512 -0.3465
  447loPI   C5A 7147   0.981  16.473   7.960 -0.1123  0.2046 -0.0820
  447loPI   C6A 7148   0.950  16.311   7.514 -0.1255 -0.4224  0.1363
  447loPI   C1B 7149   2.211  17.580   9.232 -0.2167 -0.1460  0.0419
  447loPI   C2B 7150   2.380  17.914   8.953  0.2162  0.1291 -0.1588
  447loPI   C3B 7151   2.327  18.115   8.446 -0.1017 -0.2451 -0.3481
  447loPI   C4B 7152   2.150  18.347   8.041 -0.0114  0.0944  0.1496
  448loPI    C1 7153   5.512  16.201   9.990 -0.0292 -0.0466  0.2465
  448loPI    C2 7154   5.445  15.870  10.204  0.0556 -0.0562  0.2584
  448loPI    C3 7155   5.413  16.229  10.376 -0.4054 -0.0413  0.1534
  448loPI   PO4 7156   5.487  16.107   9.719 -0.1863  0.0191 -0.0266
  448loPI   GL1 7157   5.358  16.071   9.417  0.1854  0.0487 -0.2124
  448loPI   GL2 7158   5.586  15.852   9.236 -0.1364  0.1129 -0.1662
  448loPI   C1A 7159   5.235  16.390   9.131 -0.0888 -0.2886  0.2699
  448loPI   C2A 7160   5.206  16.429   8.711  0.0307  0.3257  0.0831
  448loPI   C3A 7161   5.458  16.398   8.401 -0.2401 -0.1099  0.0933
  448loPI   C4A 7162   5.561  16.701   8.046 -0.3230 -0.0950 -0.2687
  448loPI   C5A 7163   5.926  16.790   7.952  0.0519 -0.0199  0.2429
  448loPI   C6A 7164   6.324  16.898   7.808 -0.0450 -0.0112  0.0129
  448loPI   C1B 7165   5.468  15.999   8.897  0.2658 -0.1656 -0.1553
  448loPI   C2B 7166   5.384  15.891   8.560 -0.1585  0.0230  0.0300
  448loPI   C3B 7167   5.338  15.898   8.147  0.2563  0.2739  0.2233
  448loPI   C4B 7168   5.588  15.856   7.686  0.0175  0.2802 -0.2071
  449loPI    C1 7169  17.972  12.567   9.953 -0.0200 -0.1579  0.1127
  449loPI    C2 7170  17.727  12.879   9.906  0.0743 -0.0868  0.0916
  449loPI    C3 7171  17.625  12.581  10.152  0.0575  0.0375  0.2365
  449loPI   PO4 7172  18.075  12.450   9.692  0.2134  0.0639 -0.1497
  449loPI   GL1 7173  17.986  12.488   9.271  0.3334 -0.1834 -0.1892
  449loPI   GL2 7174  17.708  12.431   9.144 -0.3603 -0.1558 -0.0040
  449loPI   C1A 7175  18.072  12.945   9.015  0.1585 -0.2615  0.3529
  449loPI   C2A 7176  18.333  13.046   8.612 -0.3284 -0.0322 -0.0141
  449loPI   C3A 7177  18.392  13.060   8.152 -0.2418 -0.0867  0.1093
  449loPI   C4A 7178  18.488  13.223   7.723  0.0983 -0.1313 -0.2968
  449loPI   C5A 7179  18.437  13.017   7.333  0.3816 -0.0805  0.3107
  449loPI   C6A 7180  18.077  12.939   7.015 -0.0158  0.1112 -0.1492
  449loPI   C1B 7181  17.936  12.569   8.731  0.4030  0.2271  0.1466
  449loPI   C2B 7182  18.117  12.639   8.358 -0.0872 -0.0863  0.2544
  449loPI   C3B 7183  18.056  12.559   7.948  0.0622 -0.3194  0.0040
  449loPI   C4B 7184  18.026  12.885   7.598 -0.1378 -0.0075  0.0783
  450loPI    C1 7185  18.178   0.093  10.136  0.0919  0.1759  0.0332
  450loPI    C2 7186  18.319   0.392  10.361 -0.2035  0.1760  0.2238
  450loPI    C3 7187  18.342   0.015  10.492  0.1880  0.1070 -0.0257
  450loPI   PO4 7188  18.279   0.195   9.923 -0.1478  0.1026  0.1085
  450loPI   GL1 7189  18.203   0.568   9.734  0.1484 -0.0770 -0.0599
  450loPI   GL2 7190  18.475   0.744   9.587 -0.2534  0.1349 -0.1020
  450loPI   C1A 7191  18.427   0.312   9.314  0.0284 -0.1482 -0.0117
  450loPI   C2A 7192  18.508   0.331   8.855  0.1235  0.0647 -0.1007
  450loPI   C3A 7193  18.396   0.215   8.389 -0.1821  0.1517 -0.2260
  450loPI   C4A 7194  18.363  -0.038   7.956 -0.4062 -0.2284 -0.3781
  450loPI   C5A 7195  17.988  -0.225   7.606 -0.0397  0.0484 -0.1733
  450loPI   C6A 7196  17.595  -0.476   7.672  0.0640  0.0070  0.0504
  450loPI   C1B 7197  18.450   0.815   9.075 -0.1558 -0.0561 -0.3964
  450loPI   C2B 7198  18.519   0.819   8.675  0.0185 -0.1311  0.5232
  450loPI   C3B 7199  18.394   0.729   8.250 -0.1528  0.2044 -0.1367
  450loPI   C4B 7200  18.294   0.489   7.950  0.0285  0.3573 -0.4529
  451loPI    C1 7201   1.291  10.648   9.897 -0.4490 -0.0255 -0.0720
  451loPI    C2 7202   1.267  10.628  10.295  0.1375 -0.0421 -0.0279
  451loPI    C3 7203   1.050  10.379  10.069 -0.0334 -0.1831  0.2834
  451loPI   PO4 7204   1.257  10.993   9.715  0.1833  0.0130 -0.0928
  451loPI   GL1 7205   1.196  11.084   9.235 -0.0050 -0.3555 -0.0884
  451loPI   GL2 7206   1.488  11.121   9.221 -0.1872 -0.0134  0.2743
  451loPI   C1A 7207   1.258  10.816   8.850  0.1262  0.1371 -0.1789
  451loPI   C2A 7208   1.592  10.747   8.613 -0.0502 -0.4200 -0.1130
  451loPI   C3A 7209   1.688  10.397   8.473  0.1838  0.2198  0.1462
  451loPI   C4A 7210   1.703  10.362   8.045 -0.2048  0.1987 -0.3736
  451loPI   C5A 7211   1.769  10.244   7.687 -0.3059 -0.0914 -0.0896
  451loPI   C6A 7212   1.873   9.947   7.249 -0.2305 -0.0744 -0.3647
  451loPI   C1B 7213   1.528  11.234   8.760 -0.1472  0.1272 -0.0193
  451loPI   C2B 7214   1.283  11.085   8.455 -0.0975  0.2088  0.1024
  451loPI   C3B 7215   1.324  11.291   8.122  0.2170  0.0870  0.3367
  451loPI   C4B 7216   1.132  11.440   7.786  0.0863  0.0250  0.1883
  452loPI    C1 7217   4.868   6.588  10.343  0.0220  0.1871 -0.0243
  452loPI    C2 7218   5.145   6.863  10.428  0.1200  0.1478 -0.2119
  452loPI    C3 7219   4.777   6.977  10.321  0.1063  0.2024 -0.1078
  452loPI   PO4 7220   5.096   6.385  10.127  0.0498  0.0561  0.0652
  452loPI   GL1 7221   5.177   6.340   9.689  0.0564  0.2470 -0.2334
  452loPI   GL2 7222   5.312   6.615   9.522 -0.2200  0.3168  0.1152
  452loPI   C1A 7223   5.331   6.151   9.264  0.1194  0.0046 -0.1305
  452loPI   C2A 7224   5.511   6.248   8.902  0.0544  0.0241 -0.0404
  452loPI   C3A 7225   5.649   6.466   8.690 -0.0029  0.0584 -0.0078
  452loPI   C4A 7226   5.867   6.564   8.401  0.0485  0.2270  0.0046
  452loPI   C5A 7227   5.864   6.434   7.949  0.0797 -0.0040 -0.2763
  452loPI   C6A 7228   6.200   6.408   7.571 -0.0340 -0.0403 -0.0299
  452loPI   C1B 7229   5.379   6.688   9.136  0.2938 -0.0821 -0.0371
  452loPI   C2B 7230   5.329   6.820   8.681  0.2639  0.3191 -0.3071
  452loPI   C3B 7231   5.283   6.899   8.291 -0.5518  0.0940  0.1755
  452loPI   C4B 7232   5.606   6.932   8.036  0.0284 -0.1093  0.1094
  453loPI    C1 7233  11.345   1.434  10.467  0.0419 -0.0475  0.1957
  453loPI    C2 7234  11.475   1.201  10.169 -0.2556  0.0076  0.0185
  453loPI    C3 7235  11.451   1.056  10.541  0.1118 -0.0637  0.0180
  453loPI   PO4 7236  11.258   1.709  10.243 -0.0918 -0.0147  0.0015
  453loPI   GL1 7237  11.374   1.888   9.864 -0.2713 -0.1810  0.0445
  453loPI   GL2 7238  11.161   1.994   9.806  0.1712 -0.1311 -0.1701
  453loPI   C1A 7239  11.501   2.058   9.421  0.0496  0.1653  0.0625
  453loPI   C2A 7240  11.334   1.957   9.030  0.0606 -0.2591 -0.0637
  453loPI   C3A 7241  11.113   1.803   8.691  0.0886 -0.3486  0.1376
  453loPI   C4A 7242  10.834   1.696   8.313 -0.1174 -0.2151 -0.2250
  453loPI   C5A 7243  10.918   1.314   8.051 -0.1544 -0.2568  0.2255
  453loPI   C6A 7244  10.689   1.154   7.672 -0.0798 -0.0041  0.0142
  453loPI   C1B 7245  10.903   2.024   9.528  0.2502 -0.0382 -0.0230
  453loPI   C2B 7246  10.862   2.044   9.013 -0.0938 -0.0070 -0.1567
  453loPI   C3B 7247  10.676   2.032   8.594 -0.0254  0.0375 -0.0389
  453loPI   C4B 7248  10.665   2.250   8.246  0.3175 -0.1121 -0.0628
  454loPI    C1 7249  12.204   4.624  10.620  0.0924 -0.1459  0.0212
  454loPI    C2 7250  12.514   4.736  10.847 -0.0835  0.3161  0.0446
  454loPI    C3 7251  12.186   4.581  11.017 -0.0032  0.1530  0.0522
  454loPI   PO4 7252  12.236   4.802  10.396  0.2828  0.1176  0.3649
  454loPI   GL1 7253  12.093   4.662   9.918 -0.0080 -0.0882  0.0653
  454loPI   GL2 7254  11.812   4.636   9.839 -0.2146 -0.1618 -0.2277
  454loPI   C1A 7255  12.157   4.377   9.590 -0.0824  0.2752  0.1983
  454loPI   C2A 7256  11.950   4.168   9.175  0.0501  0.1068  0.0239
  454loPI   C3A 7257  11.689   4.027   8.860  0.1276 -0.0104 -0.2319
  454loPI   C4A 7258  11.565   3.879   8.451  0.2103 -0.1373 -0.0444
  454loPI   C5A 7259  11.381   4.007   8.099 -0.1768  0.0237 -0.2394
  454loPI   C6A 7260  11.435   4.120   7.598  0.2588  0.1243 -0.3097
  454loPI   C1B 7261  11.678   4.576   9.488 -0.3109  0.2557  0.0112
  454loPI   C2B 7262  11.779   4.622   9.056  0.3282  0.5381 -0.0788
  454loPI   C3B 7263  11.562   4.782   8.670  0.1681 -0.1792  0.1762
  454loPI   C4B 7264  11.504   4.961   8.267  0.3469 -0.1839  0.0554
  455loPI    C1 7265   9.606  10.297  10.460  0.0481 -0.1936  0.0788
  455loPI    C2 7266   9.838  10.343  10.138  0.2547 -0.1761  0.2284
  455loPI    C3 7267   9.848  10.614  10.432  0.0867 -0.2057  0.2623
  455loPI   PO4 7268   9.442  10.203  10.416  0.4582 -0.1976  0.0748
  455loPI   GL1 7269   9.322  10.162  10.025  0.2828 -0.0623  0.4639
  455loPI   GL2 7270   9.397  10.528   9.987  0.0077  0.2682  0.1520
  455loPI   C1A 7271   9.442  10.239   9.607 -0.3774  0.0689  0.1282
  455loPI   C2A 7272   9.270  10.395   9.279  0.0346 -0.2305 -0.4180
  455loPI   C3A 7273   9.308  10.530   8.903 -0.0906 -0.1904  0.1065
  455loPI   C4A 7274   9.207  10.756   8.549 -0.0682  0.5920  0.0748
  455loPI   C5A 7275   9.109  10.527   8.075 -0.1257  0.0125  0.0103
  455loPI   C6A 7276   9.343  10.317   7.692  0.2065 -0.0888 -0.3653
  455loPI   C1B 7277   9.495  10.762   9.645  0.4160 -0.0322  0.1192
  455loPI   C2B 7278   9.487  10.928   9.300  0.1418 -0.1637 -0.0738
  455loPI   C3B 7279   9.422  11.138   8.921  0.0603 -0.2398 -0.1011
  455loPI   C4B 7280   9.344  11.217   8.441 -0.1621 -0.1044 -0.1016
  456loPI    C1 7281   6.487  14.227   9.935 -0.0207 -0.0422 -0.0729
  456loPI    C2 7282   6.758  14.128  10.212 -0.0381 -0.1478 -0.0934
  456loPI    C3 7283   6.792  13.987   9.839 -0.0316 -0.0304 -0.1376
  456loPI   PO4 7284   6.482  14.470   9.899 -0.0077 -0.0129  0.2193
  456loPI   GL1 7285   6.570  14.626   9.602  0.2068  0.0743  0.0728
  456loPI   GL2 7286   6.822  14.400   9.560 -0.1990  0.1298 -0.1723
  456loPI   C1A 7287   6.619  14.615   9.141 -0.3344 -0.4171  0.4836
  456loPI   C2A 7288   6.627  14.360   8.752 -0.1135  0.1438 -0.1482
  456loPI   C3A 7289   6.528  14.242   8.439  0.1827  0.1139 -0.0041
  456loPI   C4A 7290   6.361  14.115   8.071  0.4203  0.1283 -0.0250
  456loPI   C5A 7291   6.483  14.184   7.744 -0.1454  0.2809 -0.0546
  456loPI   C6A 7292   6.663  14.491   7.649  0.1195 -0.0088 -0.1242
  456loPI   C1B 7293   7.086  14.434   9.237  0.0396  0.0589  0.0397
  456loPI   C2B 7294   7.148  14.403   8.784 -0.0564  0.0547 -0.1608
  456loPI   C3B 7295   7.344  14.298   8.330  0.1243  0.0515  0.1709
  456loPI   C4B 7296   7.409  14.291   7.868 -0.0381 -0.2207  0.0040
  457loPI    C1 7297   3.168   2.367  10.289  0.0524 -0.1806  0.1136
  457loPI    C2 7298   3.394   2.144  10.533  0.1352 -0.1562  0.0596
  457loPI    C3 7299   3.307   2.522  10.630 -0.0104 -0.2132  0.1542
  457loPI   PO4 7300   2.938   2.218  10.207  0.0640 -0.1036 -0.2635
  457loPI   GL1 7301   2.914   1.993   9.907  0.0098 -0.1787 -0.0095
  457loPI   GL2 7302   2.610   1.929   9.816 -0.1968  0.0193  0.0248
  457loPI   C1A 7303   3.114   2.092   9.498 -0.1953  0.0398  0.1325
  457loPI   C2A 7304   3.157   2.149   9.085  0.1706 -0.0656 -0.1256
  457loPI   C3A 7305   3.135   2.234   8.650  0.1149  0.0933 -0.1710
  457loPI   C4A 7306   3.126   2.462   8.307  0.0847 -0.0458  0.0495
  457loPI   C5A 7307   3.261   2.817   8.198 -0.0478 -0.0861  0.0764
  457loPI   C6A 7308   3.005   3.123   7.870 -0.1607 -0.3270  0.1894
  457loPI   C1B 7309   2.624   1.947   9.379  0.0034 -0.5083 -0.0633
  457loPI   C2B 7310   2.696   2.049   8.930 -0.1829 -0.0013  0.0391
  457loPI   C3B 7311   2.570   1.972   8.532 -0.0709  0.1831  0.2260
  457loPI   C4B 7312   2.334   1.885   8.194 -0.0145  0.1321  0.0903
  458loPI    C1 7313   3.146   0.512  10.948  0.2215 -0.0899  0.1428
  458loPI    C2 7314   3.064   0.868  11.109  0.1389 -0.0495  0.0131
  458loPI    C3 7315   2.874   0.541  11.240 -0.0219  0.0018 -0.0894
  458loPI   PO4 7316   3.200   0.613  10.567 -0.1030 -0.1347  0.1989
  458loPI   GL1 7317   3.451   0.637  10.205 -0.1006  0.0804 -0.0589
  458loPI   GL2 7318   3.188   0.797  10.046  0.0528  0.1167 -0.2661
  458loPI   C1A 7319   3.593   0.702   9.713  0.1207 -0.0431  0.0131
  458loPI   C2A 7320   3.606   1.037   9.337  0.0430 -0.0937 -0.1547
  458loPI   C3A 7321   3.513   1.151   8.939 -0.1763 -0.1998 -0.1936
  458loPI   C4A 7322   3.370   1.349   8.603 -0.1448 -0.2498  0.0904
  458loPI   C5A 7323   3.250   1.350   8.189  0.1819  0.1658  0.0110
  458loPI   C6A 7324   3.256   1.506   7.737 -0.0254 -0.0121  0.1143
  458loPI   C1B 7325   3.116   0.919   9.563  0.0367 -0.0221  0.1667
  458loPI   C2B 7326   3.110   1.152   9.326 -0.0675  0.1280  0.0804
  458loPI   C3B 7327   3.098   1.510   8.975  0.3287  0.0240  0.0396
  458loPI   C4B 7328   3.014   1.724   8.700  0.0842  0.0578  0.0201
  459loPI    C1 7329  16.641  12.647  10.003 -0.1186 -0.1123  0.0752
  459loPI    C2 7330  16.596  12.762  10.384 -0.1445 -0.0640  0.0576
  459loPI    C3 7331  16.437  12.417  10.259 -0.2454 -0.0185  0.0594
  459loPI   PO4 7332  16.502  12.849   9.909 -0.2418 -0.1552 -0.2429
  459loPI   GL1 7333  16.512  13.093   9.491  0.0815  0.0347  0.3919
  459loPI   GL2 7334  16.430  12.799   9.424 -0.0548  0.0235  0.0194
  459loPI   C1A 7335  16.418  13.376   9.279 -0.2373 -0.2310  0.0565
  459loPI   C2A 7336  16.314  13.597   8.922 -0.0660  0.4692  0.0249
  459loPI   C3A 7337  16.558  13.711   8.603 -0.1944 -0.1017 -0.0298
  459loPI   C4A 7338  16.685  13.849   8.157 -0.0766  0.0810  0.2694
  459loPI   C5A 7339  16.843  13.813   7.729 -0.0461 -0.2833 -0.0070
  459loPI   C6A 7340  17.052  14.040   7.428 -0.0549  0.1279  0.0174
  459loPI   C1B 7341  16.640  12.918   9.085  0.1020  0.2229  0.1472
  459loPI   C2B 7342  16.659  13.175   8.705  0.2154 -0.0038 -0.0018
  459loPI   C3B 7343  16.704  13.254   8.218  0.0654  0.0285  0.1978
  459loPI   C4B 7344  16.872  13.313   7.847 -0.0119  0.1022 -0.1615
  460loPI    C1 7345  14.431  13.293  10.271 -0.2298 -0.1530  0.0462
  460loPI    C2 7346  14.585  13.637  10.406 -0.2413  0.0058 -0.3330
  460loPI    C3 7347  14.488  13.347  10.664  0.2635  0.0774 -0.0487
  460loPI   PO4 7348  14.253  13.458  10.091  0.0040  0.1444  0.0301
  460loPI   GL1 7349  14.041  13.425   9.709  0.3153 -0.2441 -0.0046
  460loPI   GL2 7350  14.409  13.467   9.526  0.0083 -0.2421 -0.0586
  460loPI   C1A 7351  13.893  13.407   9.242 -0.3723  0.4717  0.2177
  460loPI   C2A 7352  13.568  13.541   8.931  0.0200 -0.1840 -0.1235
  460loPI   C3A 7353  13.430  13.616   8.469 -0.0032 -0.1039 -0.1660
  460loPI   C4A 7354  13.491  13.485   8.029 -0.1074  0.2513 -0.2117
  460loPI   C5A 7355  13.516  13.318   7.662  0.0104  0.2024  0.0622
  460loPI   C6A 7356  13.600  13.134   7.252  0.0694 -0.1252 -0.2882
  460loPI   C1B 7357  14.464  13.461   9.109 -0.4116  0.4845  0.5007
  460loPI   C2B 7358  14.732  13.725   8.888  0.1958  0.0249  0.0960
  460loPI   C3B 7359  14.845  13.595   8.515 -0.2885 -0.1135 -0.0281
  460loPI   C4B 7360  15.033  13.651   8.211 -0.0816 -0.1364  0.3535
  461loPI    C1 7361   2.641  14.575  10.032  0.1665 -0.0530  0.0233
  461loPI    C2 7362   2.268  14.435   9.988  0.1313  0.0764 -0.1000
  461loPI    C3 7363   2.328  14.818  10.086  0.2312  0.0337  0.0093
  461loPI   PO4 7364   2.777  14.461   9.833  0.5552 -0.0587 -0.1684
  461loPI   GL1 7365   2.952  14.609   9.386  0.0259  0.0082 -0.0505
  461loPI   GL2 7366   3.217  14.450   9.513 -0.4814  0.1296  0.1356
  461loPI   C1A 7367   3.014  14.811   9.031  0.4088  0.1387  0.2969
  461loPI   C2A 7368   2.908  14.764   8.673 -0.1060  0.0172  0.0254
  461loPI   C3A 7369   2.892  14.950   8.230 -0.1941  0.4158 -0.1107
  461loPI   C4A 7370   2.819  14.720   7.856 -0.3940  0.1440  0.0049
  461loPI   C5A 7371   2.535  14.558   7.525 -0.0503  0.1105 -0.0466
  461loPI   C6A 7372   2.576  14.117   7.450  0.1420  0.0738 -0.0224
  461loPI   C1B 7373   3.314  14.247   9.137 -0.1378 -0.0580 -0.2200
  461loPI   C2B 7374   2.988  14.261   8.770  0.0322 -0.4846 -0.0447
  461loPI   C3B 7375   2.892  14.396   8.314 -0.3454 -0.2737  0.2147
  461loPI   C4B 7376   2.674  14.284   7.914  0.0713  0.1895 -0.1162
  462loPI    C1 7377  13.051  14.085  10.196  0.1876  0.0372  0.2146
  462loPI    C2 7378  12.830  13.843  10.425  0.0359 -0.0171  0.0140
  462loPI    C3 7379  12.968  14.188  10.574 -0.3584  0.1168  0.0828
  462loPI   PO4 7380  12.931  14.154  10.004 -0.0779 -0.2537  0.2145
  462loPI   GL1 7381  12.897  14.097   9.626  0.0683 -0.2313 -0.2086
  462loPI   GL2 7382  12.873  14.451   9.615 -0.3602  0.1192  0.0843
  462loPI   C1A 7383  13.117  14.181   9.253  0.1788 -0.0713 -0.1699
  462loPI   C2A 7384  13.265  14.382   8.862 -0.1073 -0.0007 -0.0813
  462loPI   C3A 7385  13.409  14.407   8.368  0.0495 -0.0867 -0.0995
  462loPI   C4A 7386  13.304  14.690   7.994  0.0272  0.0470  0.1002
  462loPI   C5A 7387  13.215  14.700   7.599  0.1731 -0.2469  0.0826
  462loPI   C6A 7388  13.308  14.560   7.247 -0.1445  0.0474 -0.0273
  462loPI   C1B 7389  12.572  14.285   9.189 -0.0321 -0.0746  0.0905
  462loPI   C2B 7390  12.653  14.400   8.639 -0.1613 -0.0391  0.1712
  462loPI   C3B 7391  12.786  14.295   8.190  0.0275 -0.0330  0.4324
  462loPI   C4B 7392  12.644  13.893   7.996 -0.0586  0.3166 -0.0447
  463loPI    C1 7393   1.209   8.411   9.770  0.0599 -0.0730 -0.0793
  463loPI    C2 7394   0.908   8.612   9.942  0.0211 -0.1444 -0.0636
  463loPI    C3 7395   1.250   8.553  10.142  0.0569 -0.0374 -0.0925
  463loPI   PO4 7396   1.092   8.314   9.605 -0.1510 -0.0726 -0.2828
  463loPI   GL1 7397   1.276   8.202   9.274 -0.1224 -0.0105 -0.2694
  463loPI   GL2 7398   1.397   7.967   9.495 -0.3084 -0.0925  0.1314
  463loPI   C1A 7399   1.386   8.065   8.922  0.2191 -0.0787  0.0311
  463loPI   C2A 7400   1.469   8.014   8.624 -0.1401  0.3375  0.1501
  463loPI   C3A 7401   1.591   8.143   8.311 -0.0561 -0.0718  0.2141
  463loPI   C4A 7402   1.843   8.013   8.007 -0.0785 -0.2203 -0.0457
  463loPI   C5A 7403   2.096   8.062   7.646 -0.1317  0.0177  0.1661
  463loPI   C6A 7404   2.439   8.180   7.447  0.0146  0.1358  0.0328
  463loPI   C1B 7405   1.338   7.636   9.187  0.0092  0.0785 -0.0223
  463loPI   C2B 7406   1.317   7.485   8.810 -0.1557  0.1632  0.0358
  463loPI   C3B 7407   1.316   7.532   8.426 -0.2082  0.1783 -0.2212
  463loPI   C4B 7408   1.324   7.756   8.101  0.2451  0.1955 -0.0887
  464loPI    C1 7409   9.611   9.276  10.361 -0.1074  0.1729 -0.1022
  464loPI    C2 7410   9.325   9.091  10.571  0.3254 -0.1575  0.2129
  464loPI    C3 7411   9.466   9.445  10.693 -0.1293  0.1397 -0.0948
  464loPI   PO4 7412   9.683   9.062  10.196 -0.2279  0.0489  0.3637
  464loPI   GL1 7413   9.924   8.855   9.845  0.0807 -0.3251  0.1901
  464loPI   GL2 7414   9.905   9.128   9.682  0.1430  0.1826 -0.0762
  464loPI   C1A 7415  10.246   8.468   9.630 -0.0861 -0.2434  0.0442
  464loPI   C2A 7416  10.193   8.139   9.312 -0.1927 -0.0448 -0.3071
  464loPI   C3A 7417  10.131   7.722   9.115 -0.1406  0.0344  0.0407
  464loPI   C4A 7418  10.215   7.515   8.839  0.1205  0.3274  0.0519
  464loPI   C5A 7419  10.019   7.399   8.495 -0.0676  0.0368 -0.1543
  464loPI   C6A 7420   9.799   7.212   8.122  0.0935 -0.1468  0.1554
  464loPI   C1B 7421   9.731   9.035   9.289 -0.1665 -0.0803  0.3540
  464loPI   C2B 7422   9.688   9.083   8.800  0.1756  0.0153 -0.0884
  464loPI   C3B 7423   9.611   9.246   8.354 -0.0444  0.0802 -0.1236
  464loPI   C4B 7424   9.789   9.592   8.135  0.3155 -0.0323 -0.2155
  465loPI    C1 7425  10.182   5.600  10.430 -0.0735  0.1490 -0.2650
  465loPI    C2 7426  10.380   5.475  10.106  0.1173 -0.0132 -0.0895
  465loPI    C3 7427  10.517   5.385  10.470 -0.1986  0.0039  0.0371
  465loPI   PO4 7428   9.936   5.791  10.305 -0.1526 -0.2639  0.2613
  465loPI   GL1 7429   9.805   5.718   9.959  0.0620  0.0842 -0.3687
  465loPI   GL2 7430  10.103   5.807   9.820  0.3131 -0.0537  0.2134
  465loPI   C1A 7431   9.784   5.622   9.502 -0.1653 -0.2420  0.0723
  465loPI   C2A 7432   9.841   5.701   9.044  0.0587  0.0599  0.0174
  465loPI   C3A 7433   9.699   5.815   8.696 -0.0923 -0.1441  0.0869
  465loPI   C4A 7434   9.582   5.904   8.242  0.2616 -0.0015  0.1322
  465loPI   C5A 7435   9.425   5.860   7.795  0.1335 -0.1513  0.0112
  465loPI   C6A 7436   9.105   5.647   7.554 -0.2048 -0.0882 -0.1849
  465loPI   C1B 7437  10.235   5.862   9.356 -0.0539 -0.0457 -0.1093
  465loPI   C2B 7438  10.104   6.058   8.967 -0.1856 -0.0240  0.0687
  465loPI   C3B 7439  10.062   6.155   8.547 -0.2473 -0.2237  0.0536
  465loPI   C4B 7440  10.066   6.010   8.101 -0.0612  0.0599 -0.0682
  466loPI    C1 7441  13.282  11.211  10.117  0.0734  0.2070 -0.0679
  466loPI    C2 7442  13.520  11.062  10.401 -0.1099  0.1936  0.0805
  466loPI    C3 7443  13.163  11.214  10.499 -0.2005  0.1337 -0.1499
  466loPI   PO4 7444  13.191  11.002   9.904 -0.2585 -0.1990  0.2749
  466loPI   GL1 7445  13.286  10.597   9.563 -0.3473 -0.0776 -0.1101
  466loPI   GL2 7446  13.249  10.323   9.638  0.2858 -0.2448 -0.0191
  466loPI   C1A 7447  13.250  10.732   9.101  0.2630  0.1957  0.0374
  466loPI   C2A 7448  13.175  10.791   8.713  0.0093  0.1340  0.0972
  466loPI   C3A 7449  13.163  10.636   8.244  0.1837  0.3526 -0.2065
  466loPI   C4A 7450  13.061  10.849   7.892  0.0686 -0.0632 -0.1465
  466loPI   C5A 7451  13.130  10.857   7.467  0.0084  0.0956 -0.1120
  466loPI   C6A 7452  13.052  11.123   7.132 -0.1544  0.1878 -0.2948
  466loPI   C1B 7453  13.074  10.188   9.290  0.0347  0.0507  0.0808
  466loPI   C2B 7454  12.810  10.349   9.008  0.2246 -0.3481  0.1648
  466loPI   C3B 7455  12.814  10.471   8.547 -0.2609 -0.1371 -0.1258
  466loPI   C4B 7456  12.681  10.766   8.160 -0.0476 -0.0416  0.0567
  467loPI    C1 7457   7.085   4.074  10.741 -0.0785 -0.1391  0.1842
  467loPI    C2 7458   7.475   3.989  10.705 -0.0487  0.0437  0.0585
  467loPI    C3 7459   7.210   3.695  10.766  0.0791 -0.1099 -0.1160
  467loPI   PO4 7460   7.006   4.115  10.497 -0.2575  0.1176  0.4169
  467loPI   GL1 7461   7.075   4.200   9.992 -0.2090 -0.0533  0.2891
  467loPI   GL2 7462   7.389   4.051   9.934 -0.3417 -0.2145 -0.1108
  467loPI   C1A 7463   6.920   4.237   9.582  0.2703  0.1306 -0.0666
  467loPI   C2A 7464   6.886   4.258   9.108  0.0343  0.0881  0.1729
  467loPI   C3A 7465   6.854   4.273   8.606 -0.1105 -0.1219  0.0908
  467loPI   C4A 7466   7.175   4.185   8.314  0.1716  0.0459  0.1375
  467loPI   C5A 7467   7.388   4.004   7.921 -0.1413 -0.1288 -0.3135
  467loPI   C6A 7468   7.485   4.013   7.522 -0.0914  0.0559  0.3443
  467loPI   C1B 7469   7.361   3.822   9.571 -0.0366  0.1890  0.4168
  467loPI   C2B 7470   7.312   3.995   9.186  0.1414  0.0160  0.0276
  467loPI   C3B 7471   7.342   4.028   8.744 -0.0424  0.1395  0.3262
  467loPI   C4B 7472   7.743   4.064   8.509  0.1272  0.0142 -0.5388
  468loPI    C1 7473  14.289   9.580  10.420 -0.1654 -0.1419 -0.1440
  468loPI    C2 7474  14.080   9.259  10.534 -0.0885 -0.1650 -0.0674
  468loPI    C3 7475  14.033   9.607  10.726  0.0025 -0.1907  0.0024
  468loPI   PO4 7476  14.305   9.583  10.149  0.2058  0.1779  0.4009
  468loPI   GL1 7477  14.212   9.582   9.699 -0.1974 -0.1512  0.0945
  468loPI   GL2 7478  14.171   9.302   9.579  0.1458 -0.0069 -0.1062
  468loPI   C1A 7479  14.284   9.743   9.271 -0.4402 -0.3321 -0.0490
  468loPI   C2A 7480  14.199   9.788   8.794 -0.1587  0.0267  0.1298
  468loPI   C3A 7481  14.012   9.905   8.457 -0.1786  0.2376  0.1832
  468loPI   C4A 7482  13.900  10.082   8.055  0.0438  0.0982  0.1884
  468loPI   C5A 7483  13.924  10.054   7.562  0.0829  0.2125 -0.2154
  468loPI   C6A 7484  13.761   9.996   7.234  0.1538  0.0892 -0.3014
  468loPI   C1B 7485  14.149   9.282   9.121  0.1998 -0.1966  0.1035
  468loPI   C2B 7486  14.193   9.190   8.693  0.0937  0.0119  0.1139
  468loPI   C3B 7487  14.111   9.302   8.234 -0.0150  0.0121 -0.0048
  468loPI   C4B 7488  14.129   9.640   7.984  0.1400  0.0919  0.0334
  469loPI    C1 7489  13.232  12.555   9.960 -0.1205  0.0520  0.0143
  469loPI    C2 7490  13.340  12.591  10.343  0.0994 -0.0076 -0.0407
  469loPI    C3 7491  12.957  12.636  10.239  0.0598  0.1494  0.1662
  469loPI   PO4 7492  13.414  12.790   9.834 -0.0408 -0.0454 -0.0467
  469loPI   GL1 7493  13.228  12.774   9.410  0.0964  0.0135 -0.1632
  469loPI   GL2 7494  13.063  12.513   9.456  0.0223 -0.1099  0.1527
  469loPI   C1A 7495  13.109  12.771   8.883  0.2263  0.0407 -0.0790
  469loPI   C2A 7496  13.190  12.448   8.683  0.3696 -0.0141  0.3188
  469loPI   C3A 7497  13.361  12.366   8.313 -0.1114 -0.0336  0.1431
  469loPI   C4A 7498  13.494  12.335   7.854  0.2009  0.0546 -0.0442
  469loPI   C5A 7499  13.838  12.323   7.625  0.0595 -0.2274 -0.0481
  469loPI   C6A 7500  14.169  12.000   7.640  0.0050  0.0937  0.2261
  469loPI   C1B 7501  13.234  12.300   9.189  0.2473 -0.2643 -0.2337
  469loPI   C2B 7502  13.535  12.550   8.985 -0.1459  0.1703  0.1276
  469loPI   C3B 7503  13.584  12.741   8.568 -0.1514 -0.4877 -0.0687
  469loPI   C4B 7504  13.727  12.749   8.168 -0.3119 -0.1017 -0.1278
  470loPI    C1 7505   1.599   5.270   9.899 -0.1303  0.1363  0.0179
  470loPI    C2 7506   1.878   5.554   9.936  0.0267  0.0091 -0.1723
  470loPI    C3 7507   1.649   5.457  10.250  0.1102  0.2017 -0.0498
  470loPI   PO4 7508   1.681   5.107   9.788  0.0613 -0.2928 -0.3564
  470loPI   GL1 7509   1.911   5.176   9.546  0.3460 -0.0645 -0.2104
  470loPI   GL2 7510   2.121   5.313   9.572  0.0964  0.0953 -0.1706
  470loPI   C1A 7511   1.930   5.316   9.108  0.0092  0.0845 -0.2320
  470loPI   C2A 7512   2.048   5.308   8.699 -0.0208 -0.2112 -0.1502
  470loPI   C3A 7513   2.023   5.636   8.305 -0.0435 -0.0967 -0.0918
  470loPI   C4A 7514   2.294   5.964   8.350 -0.3290  0.1093  0.0902
  470loPI   C5A 7515   2.472   6.235   8.088  0.3594  0.0072 -0.1412
  470loPI   C6A 7516   2.805   6.327   8.018  0.1148 -0.0662  0.3298
  470loPI   C1B 7517   2.384   5.413   9.343  0.2612 -0.0144 -0.3316
  470loPI   C2B 7518   2.614   5.304   8.997  0.3294  0.5118 -0.1158
  470loPI   C3B 7519   2.421   4.916   8.725 -0.3183  0.0652 -0.3404
  470loPI   C4B 7520   2.037   4.806   8.482 -0.0628 -0.0192 -0.0731
  471loPI    C1 7521  13.697   2.410  10.466 -0.2170 -0.5199 -0.0297
  471loPI    C2 7522  14.008   2.200  10.607  0.0368 -0.2320 -0.1492
  471loPI    C3 7523  13.763   2.390  10.860  0.2647 -0.0335 -0.0743
  471loPI   PO4 7524  13.585   2.151  10.216  0.1813 -0.1264 -0.0108
  471loPI   GL1 7525  13.612   2.152   9.756 -0.4984 -0.2597 -0.1370
  471loPI   GL2 7526  13.809   2.308   9.749 -0.0621 -0.1729 -0.2026
  471loPI   C1A 7527  13.417   2.182   9.403  0.1070  0.0484 -0.1208
  471loPI   C2A 7528  13.332   2.259   8.862  0.1058  0.1079  0.0453
  471loPI   C3A 7529  13.043   2.296   8.536  0.0741 -0.1930 -0.4559
  471loPI   C4A 7530  12.871   2.238   8.120 -0.1557  0.1455  0.1078
  471loPI   C5A 7531  12.455   2.178   7.912 -0.1879 -0.1980 -0.0304
  471loPI   C6A 7532  12.026   2.140   7.928 -0.1166 -0.1579  0.1740
  471loPI   C1B 7533  13.903   2.472   9.247  0.0657 -0.0191 -0.1036
  471loPI   C2B 7534  13.621   2.568   8.944  0.0792 -0.2171 -0.0165
  471loPI   C3B 7535  13.608   2.478   8.487  0.1747 -0.2371  0.0544
  471loPI   C4B 7536  13.782   2.213   8.123  0.2183  0.3390 -0.1817
  472loPI    C1 7537  15.546   7.206   9.841  0.2021  0.0090 -0.3348
  472loPI    C2 7538  15.418   7.581   9.785  0.1073 -0.0144 -0.2788
  472loPI    C3 7539  15.589   7.478  10.131 -0.2462 -0.1256 -0.1324
  472loPI   PO4 7540  15.503   7.118   9.594 -0.0593  0.0533 -0.0171
  472loPI   GL1 7541  15.292   7.246   9.228 -0.1565 -0.0962 -0.2955
  472loPI   GL2 7542  15.529   7.517   9.312  0.0534  0.0738 -0.1738
  472loPI   C1A 7543  15.038   6.948   9.175 -0.0268 -0.0867 -0.3264
  472loPI   C2A 7544  14.804   6.916   8.827 -0.1362  0.0924  0.2745
  472loPI   C3A 7545  14.741   7.063   8.459  0.1582  0.2242 -0.2813
  472loPI   C4A 7546  14.508   7.489   8.319 -0.0920  0.1095  0.0667
  472loPI   C5A 7547  14.588   7.755   7.924 -0.2109 -0.1865  0.0072
  472loPI   C6A 7548  14.276   8.077   7.804 -0.2649 -0.1732  0.0959
  472loPI   C1B 7549  15.756   7.748   8.977  0.3599 -0.2213  0.2180
  472loPI   C2B 7550  15.837   7.885   8.496 -0.1159 -0.0469 -0.0124
  472loPI   C3B 7551  15.755   8.102   8.155 -0.1242 -0.1515 -0.0553
  472loPI   C4B 7552  15.497   8.203   7.906  0.1615  0.0394 -0.1359
  473loPI    C1 7553  17.391   0.754  10.061 -0.2063 -0.2342 -0.2242
  473loPI    C2 7554  17.034   0.660  10.216 -0.2213  0.0704 -0.0668
  473loPI    C3 7555  17.287   0.892  10.422 -0.0388  0.0734 -0.2904
  473loPI   PO4 7556  17.324   0.820   9.843 -0.0433 -0.0641 -0.2306
  473loPI   GL1 7557  17.439   1.091   9.547 -0.2759 -0.2165 -0.3665
  473loPI   GL2 7558  17.144   1.369   9.554  0.4502 -0.2297  0.4386
  473loPI   C1A 7559  17.437   0.855   9.192  0.0084  0.0498  0.1033
  473loPI   C2A 7560  17.497   0.470   9.030  0.1435  0.1561 -0.1538
  473loPI   C3A 7561  17.614   0.292   8.630  0.0211 -0.2771  0.0684
  473loPI   C4A 7562  17.357   0.174   8.321 -0.0292  0.1974  0.2265
  473loPI   C5A 7563  17.117   0.151   7.999 -0.2211 -0.1832 -0.0123
  473loPI   C6A 7564  16.752   0.297   7.977  0.0032 -0.0487 -0.2754
  473loPI   C1B 7565  17.190   1.341   9.114  0.0406  0.0594  0.4987
  473loPI   C2B 7566  17.042   1.309   8.707  0.0374 -0.0242  0.2815
  473loPI   C3B 7567  17.070   1.060   8.321 -0.1429 -0.0514  0.2195
  473loPI   C4B 7568  16.925   0.747   8.127 -0.0631 -0.3099 -0.2259
  474loPI    C1 7569   7.225  17.886   9.997 -0.2734  0.2265 -0.1265
  474loPI    C2 7570   7.610  17.951   9.913 -0.2736  0.1381 -0.1984
  474loPI    C3 7571   7.405  18.215  10.133 -0.1091  0.0704  0.0398
  474loPI   PO4 7572   7.261  17.572   9.937  0.1559 -0.3024 -0.1305
  474loPI   GL1 7573   7.112  17.641   9.538  0.1222  0.1384 -0.2069
  474loPI   GL2 7574   7.465  17.674   9.497  0.3434  0.0647 -0.0248
  474loPI   C1A 7575   6.778  17.868   9.233  0.1095 -0.1875 -0.2118
  474loPI   C2A 7576   6.932  17.863   8.905 -0.1573  0.2141 -0.0254
  474loPI   C3A 7577   6.904  17.936   8.422 -0.1590 -0.1991 -0.2889
  474loPI   C4A 7578   6.757  17.919   8.095 -0.1265 -0.2307  0.0993
  474loPI   C5A 7579   6.768  17.733   7.737  0.0648 -0.1345  0.2242
  474loPI   C6A 7580   6.919  17.371   7.597  0.3543 -0.4482 -0.2008
  474loPI   C1B 7581   7.506  17.878   9.139 -0.0494 -0.1414 -0.1402
  474loPI   C2B 7582   7.391  17.729   8.698 -0.0084 -0.0492 -0.0964
  474loPI   C3B 7583   7.285  17.633   8.331  0.2011 -0.2112 -0.2491
  474loPI   C4B 7584   7.100  17.404   8.107  0.1502  0.3503  0.2231
  475loPI    C1 7585  15.984  16.640  10.539 -0.2462 -0.0973  0.3664
  475loPI    C2 7586  15.766  16.956  10.424  0.0026 -0.1142 -0.1828
  475loPI    C3 7587  15.588  16.641  10.595 -0.3437  0.0426 -0.2465
  475loPI   PO4 7588  16.130  16.550  10.401  0.1831 -0.2407  0.0633
  475loPI   GL1 7589  16.301  16.554   9.958 -0.2771 -0.0353 -0.0879
  475loPI   GL2 7590  16.140  16.825   9.936  0.0045 -0.0576 -0.0091
  475loPI   C1A 7591  16.343  16.424   9.563  0.0478 -0.0072  0.4409
  475loPI   C2A 7592  16.302  16.290   9.209 -0.2166 -0.0591  0.1182
  475loPI   C3A 7593  16.411  15.944   8.921 -0.0218  0.3710  0.1388
  475loPI   C4A 7594  16.481  15.695   8.622 -0.3105  0.0474 -0.2640
  475loPI   C5A 7595  16.407  15.649   8.269 -0.1998 -0.0558  0.0530
  475loPI   C6A 7596  16.139  15.869   7.894 -0.1505 -0.2266 -0.1765
  475loPI   C1B 7597  16.195  16.910   9.518 -0.0735  0.1350 -0.2049
  475loPI   C2B 7598  16.028  16.782   9.081  0.0135  0.0868 -0.0979
  475loPI   C3B 7599  15.885  16.667   8.622 -0.0983  0.1240  0.0863
  475loPI   C4B 7600  15.837  16.478   8.200 -0.3399 -0.0795 -0.1017
  476loPI    C1 7601   3.421   2.817  10.229 -0.1066  0.3900 -0.1069
  476loPI    C2 7602   3.555   2.963  10.576  0.1126  0.2563 -0.1332
  476loPI    C3 7603   3.167   2.989  10.485  0.0353  0.1976  0.1686
  476loPI   PO4 7604   3.480   3.002  10.051 -0.1945 -0.1385  0.1878
  476loPI   GL1 7605   3.310   3.017   9.609 -0.4081  0.0559 -0.0026
  476loPI   GL2 7606   3.052   3.085   9.783  0.0119  0.2370 -0.2105
  476loPI   C1A 7607   3.436   3.221   9.205 -0.0599  0.1132 -0.0625
  476loPI   C2A 7608   3.507   3.261   8.790 -0.2658  0.1145 -0.0632
  476loPI   C3A 7609   3.511   3.316   8.342  0.0684 -0.0954  0.1304
  476loPI   C4A 7610   3.584   3.104   7.918 -0.2930 -0.2187  0.0313
  476loPI   C5A 7611   3.319   2.802   7.664  0.2881  0.0647  0.3458
  476loPI   C6A 7612   3.316   2.549   7.436  0.0568  0.2477 -0.0776
  476loPI   C1B 7613   2.740   2.999   9.440  0.1071  0.0948  0.0741
  476loPI   C2B 7614   2.524   3.102   9.144 -0.0114 -0.0718  0.2807
  476loPI   C3B 7615   2.565   3.248   8.722 -0.0073  0.1679  0.2127
  476loPI   C4B 7616   2.412   3.223   8.298  0.1784 -0.0937 -0.3382
  477loPI    C1 7617   1.865  15.982  10.143  0.0001 -0.0844 -0.2506
  477loPI    C2 7618   2.096  15.699  10.305 -0.0369 -0.0526 -0.1413
  477loPI    C3 7619   1.761  15.598  10.111 -0.2967 -0.0602  0.2968
  477loPI   PO4 7620   2.085  16.166   9.978  0.0013 -0.1660  0.2938
  477loPI   GL1 7621   2.356  16.186   9.549 -0.6611  0.2179  0.1983
  477loPI   GL2 7622   2.098  16.129   9.302  0.3246  0.1515  0.1749
  477loPI   C1A 7623   2.554  16.074   9.169 -0.0266  0.0364  0.2754
  477loPI   C2A 7624   2.518  16.264   8.733  0.1913  0.1431 -0.0414
  477loPI   C3A 7625   2.399  16.265   8.310 -0.3156  0.0336 -0.4930
  477loPI   C4A 7626   2.306  16.434   7.981  0.1443  0.0759  0.0304
  477loPI   C5A 7627   1.931  16.650   7.766 -0.1473  0.0065 -0.0394
  477loPI   C6A 7628   1.979  16.939   7.435  0.2707 -0.1621 -0.2680
  477loPI   C1B 7629   2.095  15.961   8.943 -0.1383 -0.0685 -0.1262
  477loPI   C2B 7630   2.103  16.033   8.600  0.1228  0.0289  0.3160
  477loPI   C3B 7631   1.947  15.803   8.352  0.5161  0.2521  0.0177
  477loPI   C4B 7632   1.678  15.424   8.343 -0.0288 -0.0092  0.0889
  478loPI    C1 7633  13.726  14.197  10.225  0.0309 -0.0199  0.2972
  478loPI    C2 7634  13.486  14.396  10.476 -0.1762  0.1594 -0.0359
  478loPI    C3 7635  13.473  13.997  10.461  0.0614  0.1264  0.4561
  478loPI   PO4 7636  13.752  14.230   9.959 -0.2769 -0.0544 -0.1557
  478loPI   GL1 7637  13.665  14.236   9.456 -0.1592  0.3825  0.1006
  478loPI   GL2 7638  13.414  14.444   9.500 -0.0652 -0.0949 -0.0481
  478loPI   C1A 7639  13.568  14.045   9.079  0.1986 -0.5848  0.0467
  478loPI   C2A 7640  13.662  14.017   8.637 -0.0364  0.0620  0.2491
  478loPI   C3A 7641  13.610  13.958   8.111 -0.0105 -0.1277  0.2640
  478loPI   C4A 7642  13.644  13.852   7.601 -0.1472  0.0993 -0.1897
  478loPI   C5A 7643  13.461  13.631   7.189 -0.0433 -0.0591 -0.0059
  478loPI   C6A 7644  13.503  13.470   6.755 -0.3047  0.1425 -0.0067
  478loPI   C1B 7645  13.380  14.778   9.164  0.0758  0.1702  0.0230
  478loPI   C2B 7646  13.448  14.972   8.768  0.2359  0.1208  0.1482
  478loPI   C3B 7647  13.472  15.010   8.400 -0.0137  0.0593 -0.0962
  478loPI   C4B 7648  13.635  15.066   8.026 -0.0159 -0.3215  0.0572
  479loPI    C1 7649   9.014  15.986   9.949  0.2959 -0.1803 -0.1357
  479loPI    C2 7650   8.873  15.946  10.321  0.0382  0.2824 -0.1767
  479loPI    C3 7651   8.848  15.640  10.064 -0.2065  0.1117  0.0448
  479loPI   PO4 7652   8.850  16.196   9.867  0.1312  0.2517  0.1828
  479loPI   GL1 7653   8.944  16.289   9.427 -0.1497  0.0601 -0.3672
  479loPI   GL2 7654   8.788  15.985   9.425 -0.1718 -0.0421 -0.0310
  479loPI   C1A 7655   8.901  16.514   9.038  0.0415  0.1333  0.2416
  479loPI   C2A 7656   8.894  16.660   8.683  0.2859  0.0968  0.0604
  479loPI   C3A 7657   8.736  16.578   8.288  0.1689  0.1428  0.0953
  479loPI   C4A 7658   8.742  16.592   7.897  0.1210  0.0417  0.5385
  479loPI   C5A 7659   8.746  16.676   7.407  0.0480 -0.0556 -0.0011
  479loPI   C6A 7660   8.723  16.805   7.023  0.0591  0.3254 -0.0902
  479loPI   C1B 7661   8.908  16.060   9.019  0.3484  0.1044  0.1150
  479loPI   C2B 7662   8.753  16.075   8.533 -0.0781 -0.1263 -0.1581
  479loPI   C3B 7663   8.624  16.112   8.086 -0.1529  0.1965 -0.1014
  479loPI   C4B 7664   8.174  15.990   7.968 -0.1616 -0.0217 -0.0221
  480loPI    C1 7665  11.129  13.705  10.224 -0.2888  0.0669 -0.1592
  480loPI    C2 7666  11.187  14.100  10.251 -0.0002  0.0129  0.0674
  480loPI    C3 7667  11.303  13.861  10.549 -0.2603 -0.2358 -0.0265
  480loPI   PO4 7668  11.200  13.681   9.937  0.0033  0.0811 -0.3284
  480loPI   GL1 7669  11.302  14.002   9.643 -0.0188 -0.2194  0.1024
  480loPI   GL2 7670  11.295  13.792   9.327  0.3362 -0.1525 -0.0343
  480loPI   C1A 7671  11.078  14.259   9.159  0.0032 -0.2471  0.0816
  480loPI   C2A 7672  11.209  14.185   8.719  0.1163 -0.0389 -0.0414
  480loPI   C3A 7673  11.272  14.076   8.224  0.0830 -0.0602  0.1030
  480loPI   C4A 7674  11.351  14.077   7.800 -0.0125 -0.0857 -0.2341
  480loPI   C5A 7675  11.237  14.291   7.461  0.0327  0.0003  0.1480
  480loPI   C6A 7676  10.954  14.657   7.244 -0.2047 -0.0052 -0.0354
  480loPI   C1B 7677  11.397  13.696   9.013 -0.0849  0.1717  0.2286
  480loPI   C2B 7678  11.383  13.699   8.550  0.1340  0.0572 -0.1438
  480loPI   C3B 7679  11.234  13.568   8.156  0.0876 -0.1628 -0.1220
  480loPI   C4B 7680  11.363  13.423   7.757 -0.0371  0.2072  0.3370
  481loPI    C1 7681   0.038  10.525   9.857  0.0387  0.3718  0.2297
  481loPI    C2 7682  -0.084  10.152   9.932  0.3517  0.2683  0.2346
  481loPI    C3 7683  -0.342  10.456   9.963 -0.0156  0.0098 -0.1721
  481loPI   PO4 7684   0.156  10.556   9.563 -0.0064 -0.2302  0.1918
  481loPI   GL1 7685   0.088  10.691   9.198 -0.2225  0.1295  0.4226
  481loPI   GL2 7686   0.167  11.048   9.062 -0.3408 -0.0128  0.1745
  481loPI   C1A 7687   0.248  10.625   8.813  0.1110 -0.2121  0.3040
  481loPI   C2A 7688   0.185  10.459   8.378  0.0301  0.2093 -0.1222
  481loPI   C3A 7689   0.183   9.967   8.233  0.3348  0.0976  0.3725
  481loPI   C4A 7690  -0.052   9.653   7.961  0.1409  0.0174  0.2790
  481loPI   C5A 7691  -0.237   9.476   7.611  0.0973 -0.2948 -0.1592
  481loPI   C6A 7692  -0.041   9.129   7.476 -0.0388  0.2573 -0.0193
  481loPI   C1B 7693  -0.028  11.061   8.646 -0.0114  0.1283 -0.0195
  481loPI   C2B 7694  -0.160  10.894   8.268 -0.0962 -0.0310 -0.0875
  481loPI   C3B 7695  -0.335  10.798   7.909  0.1602 -0.4019  0.0135
  481loPI   C4B 7696  -0.591  10.939   7.588  0.0982  0.0434 -0.1010
  482loPI    C1 7697  15.581  12.571  10.570  0.0868 -0.2032 -0.0079
  482loPI    C2 7698  15.278  12.818  10.655  0.0294 -0.2523 -0.0677
  482loPI    C3 7699  15.655  12.927  10.737 -0.0055 -0.1983  0.0232
  482loPI   PO4 7700  15.655  12.470  10.265 -0.1138 -0.0999  0.4503
  482loPI   GL1 7701  15.608  12.442   9.782 -0.1151 -0.1348  0.2039
  482loPI   GL2 7702  15.490  12.613   9.596  0.1365 -0.0916  0.1213
  482loPI   C1A 7703  15.978  12.614   9.539  0.3379 -0.5242 -0.3621
  482loPI   C2A 7704  16.141  12.600   9.072  0.2851 -0.2179  0.2353
  482loPI   C3A 7705  16.441  12.568   8.729 -0.3939 -0.0285 -0.1987
  482loPI   C4A 7706  16.446  12.339   8.295  0.2995 -0.0782 -0.1083
  482loPI   C5A 7707  16.390  12.394   7.777 -0.0353  0.0887 -0.1426
  482loPI   C6A 7708  16.231  12.106   7.508 -0.0244  0.2197  0.1509
  482loPI   C1B 7709  15.620  12.526   9.214 -0.3840 -0.0513 -0.2763
  482loPI   C2B 7710  15.754  12.646   8.739  0.2224 -0.0637 -0.1833
  482loPI   C3B 7711  15.646  13.074   8.475 -0.1429 -0.3899  0.1068
  482loPI   C4B 7712  15.555  13.360   8.169  0.1807 -0.1045 -0.1604
  483loPI    C1 7713  11.956   8.379  10.336  0.1187  0.0068 -0.0148
  483loPI    C2 7714  11.840   8.067  10.559 -0.0802  0.0751 -0.0210
  483loPI    C3 7715  11.837   8.436  10.714  0.0040  0.0937 -0.0634
  483loPI   PO4 7716  12.153   8.239  10.046  0.0234 -0.2216 -0.0594
  483loPI   GL1 7717  11.977   8.152   9.684  0.0072 -0.0828 -0.1024
  483loPI   GL2 7718  11.684   8.250   9.496  0.1712 -0.1469  0.0147
  483loPI   C1A 7719  12.174   8.080   9.216  0.0396  0.2231 -0.1235
  483loPI   C2A 7720  12.298   7.760   8.844  0.3325 -0.1606  0.0770
  483loPI   C3A 7721  12.287   7.563   8.443  0.1880 -0.0148  0.1885
  483loPI   C4A 7722  12.384   7.623   8.057  0.0729  0.2840  0.1225
  483loPI   C5A 7723  12.145   7.686   7.645 -0.1379 -0.0697 -0.0014
  483loPI   C6A 7724  12.216   7.782   7.151 -0.0381  0.1098  0.0814
  483loPI   C1B 7725  11.580   8.356   9.048 -0.0437 -0.0357 -0.1922
  483loPI   C2B 7726  11.454   8.219   8.689  0.1424  0.0220  0.1439
  483loPI   C3B 7727  11.532   8.062   8.216  0.2665 -0.3863 -0.1939
  483loPI   C4B 7728  11.692   8.034   7.793 -0.3279 -0.3956 -0.0961
  484loPI    C1 7729   5.099   4.370  10.511 -0.0973  0.0887  0.0143
  484loPI    C2 7730   5.255   4.003  10.498  0.0173  0.1282  0.2297
  484loPI    C3 7731   5.353   4.251  10.796  0.1241  0.4165 -0.0404
  484loPI   PO4 7732   5.162   4.378  10.212  0.2310  0.1777 -0.1602
  484loPI   GL1 7733   5.182   4.279   9.876 -0.0729 -0.2475  0.1920
  484loPI   GL2 7734   5.031   3.927   9.816 -0.0650  0.1497 -0.1530
  484loPI   C1A 7735   4.848   4.426   9.554  0.1058  0.0570 -0.3061
  484loPI   C2A 7736   4.566   4.608   9.179  0.0856 -0.5155  0.0673
  484loPI   C3A 7737   4.414   4.666   8.772  0.3113  0.5762  0.2208
  484loPI   C4A 7738   4.365   4.583   8.333  0.1232  0.3339  0.0060
  484loPI   C5A 7739   4.629   4.649   7.981  0.0786 -0.1175  0.3912
  484loPI   C6A 7740   4.760   4.714   7.514  0.1312  0.4342  0.0917
  484loPI   C1B 7741   5.082   4.072   9.375  0.2160  0.0689  0.1588
  484loPI   C2B 7742   4.967   4.318   9.027 -0.0125 -0.5006 -0.0274
  484loPI   C3B 7743   4.795   4.347   8.642  0.1910 -0.0988 -0.0589
  484loPI   C4B 7744   4.945   4.316   8.152 -0.0889 -0.1242  0.0891
  485loPI    C1 7745  10.647  12.693  10.182 -0.1160 -0.0010  0.1290
  485loPI    C2 7746  10.835  12.871  10.488 -0.0134  0.1139  0.0002
  485loPI    C3 7747  11.045  12.665  10.216 -0.1290 -0.1904  0.1367
  485loPI   PO4 7748  10.498  12.891  10.052  0.0203 -0.1427 -0.1031
  485loPI   GL1 7749  10.593  13.002   9.602 -0.2057 -0.0652  0.0748
  485loPI   GL2 7750  10.879  12.785   9.667 -0.0918 -0.2914 -0.0674
  485loPI   C1A 7751  10.746  12.890   9.175  0.2007 -0.6470 -0.0183
  485loPI   C2A 7752  10.863  12.637   8.881  0.0001 -0.0363  0.0866
  485loPI   C3A 7753  10.982  12.393   8.616 -0.1228  0.1412  0.1003
  485loPI   C4A 7754  10.906  12.350   8.205 -0.0294  0.3916 -0.4135
  485loPI   C5A 7755  11.123  12.308   7.779  0.0256 -0.2316 -0.3519
  485loPI   C6A 7756  11.299  11.909   7.651 -0.1135 -0.1799  0.2422
  485loPI   C1B 7757  10.749  12.414   9.420  0.3529  0.1160 -0.1444
  485loPI   C2B 7758  10.866  12.138   9.084  0.0136 -0.2200 -0.1040
  485loPI   C3B 7759  10.708  11.993   8.756  0.1131  0.1369 -0.3036
  485loPI   C4B 7760  10.549  11.976   8.362  0.1948 -0.0941  0.0233
  486loPI    C1 7761  12.685   7.974  10.284 -0.0275 -0.0916 -0.0259
  486loPI    C2 7762  12.324   7.930  10.451 -0.0389  0.4184  0.1000
  486loPI    C3 7763  12.647   7.974  10.682  0.0992  0.0384 -0.0131
  486loPI   PO4 7764  12.603   7.802  10.037 -0.2188  0.1010 -0.1244
  486loPI   GL1 7765  12.719   7.525   9.655  0.1833 -0.2024  0.1283
  486loPI   GL2 7766  12.930   7.789   9.628  0.2155  0.2274  0.3117
  486loPI   C1A 7767  12.574   7.339   9.368  0.1054  0.1805 -0.0242
  486loPI   C2A 7768  12.607   7.437   8.919 -0.2240  0.1534  0.1019
  486loPI   C3A 7769  12.736   7.313   8.512  0.1071  0.1191  0.0176
  486loPI   C4A 7770  12.844   7.251   8.119  0.2099 -0.1614  0.1862
  486loPI   C5A 7771  13.101   7.205   7.761  0.4387  0.0448 -0.4879
  486loPI   C6A 7772  13.306   7.094   7.386 -0.1209 -0.1562  0.3740
  486loPI   C1B 7773  12.671   7.783   9.224 -0.3967 -0.1272  0.1206
  486loPI   C2B 7774  12.772   7.917   8.751 -0.0232  0.2721  0.0884
  486loPI   C3B 7775  12.728   7.818   8.326 -0.1631  0.1149  0.2682
  486loPI   C4B 7776  12.726   8.108   7.985  0.0764 -0.1015  0.1951
  487loPI    C1 7777  16.087   1.981   9.948  0.1619  0.1422  0.0444
  487loPI    C2 7778  16.345   1.675   9.928 -0.0072  0.0107 -0.1825
  487loPI    C3 7779  16.178   1.774  10.278  0.2009 -0.0269 -0.0708
  487loPI   PO4 7780  15.942   1.962   9.720  0.0755  0.0015 -0.0761
  487loPI   GL1 7781  15.941   2.095   9.282  0.2008  0.1573  0.1232
  487loPI   GL2 7782  15.869   2.373   9.413  0.1646  0.0684  0.1019
  487loPI   C1A 7783  15.818   2.230   8.914 -0.0597 -0.1547 -0.3917
  487loPI   C2A 7784  15.887   2.083   8.441  0.0649 -0.0721  0.0816
  487loPI   C3A 7785  15.907   2.006   7.917  0.0792 -0.2898 -0.1947
  487loPI   C4A 7786  16.041   2.026   7.489 -0.0997  0.1142  0.0386
  487loPI   C5A 7787  15.950   1.651   7.235 -0.0700 -0.0913 -0.1000
  487loPI   C6A 7788  16.010   1.241   7.125  0.1104  0.0246  0.0421
  487loPI   C1B 7789  15.903   2.715   9.082 -0.2801 -0.1176 -0.1285
  487loPI   C2B 7790  15.758   3.035   8.897  0.1008  0.0654  0.1270
  487loPI   C3B 7791  15.620   3.364   8.658  0.2162 -0.1860 -0.1480
  487loPI   C4B 7792  15.148   3.440   8.549 -0.2154  0.2156 -0.0416
  488loPI    C1 7793  10.173   9.442  10.285 -0.0296  0.1900 -0.1336
  488loPI    C2 7794   9.957   9.551  10.603 -0.1947 -0.0912 -0.1461
  488loPI    C3 7795  10.352   9.614  10.599 -0.2285  0.1483  0.0046
  488loPI   PO4 7796  10.050   9.409  10.100  0.2287 -0.1751 -0.1843
  488loPI   GL1 7797   9.978   9.671   9.772  0.2225  0.2175  0.3169
  488loPI   GL2 7798   9.750   9.925   9.833  0.2988  0.0241 -0.3026
  488loPI   C1A 7799   9.854   9.537   9.363  0.3227 -0.1153 -0.0359
  488loPI   C2A 7800  10.091   9.382   9.033  0.3265  0.3146  0.2835
  488loPI   C3A 7801  10.092   9.349   8.569 -0.1421 -0.0020 -0.2203
  488loPI   C4A 7802  10.236   9.329   8.170 -0.4649  0.2210 -0.2202
  488loPI   C5A 7803  10.572   9.216   7.981 -0.0356  0.1385  0.1306
  488loPI   C6A 7804  10.909   9.139   7.714 -0.2101 -0.1410  0.1037
  488loPI   C1B 7805   9.946  10.027   9.402 -0.1646 -0.2777  0.2412
  488loPI   C2B 7806  10.037   9.969   8.979 -0.0877  0.0638 -0.0152
  488loPI   C3B 7807  10.324  10.118   8.706 -0.2183  0.3224 -0.3074
  488loPI   C4B 7808  10.507  10.327   8.441  0.2747  0.1954 -0.2442
  489loPI    C1 7809   3.215  16.243   9.874  0.1954  0.0595 -0.1032
  489loPI    C2 7810   3.208  16.506  10.175  0.1559  0.0139 -0.0641
  489loPI    C3 7811   3.385  16.151  10.224 -0.0058 -0.0640 -0.0358
  489loPI   PO4 7812   3.143  16.387   9.654 -0.1233  0.1177 -0.1460
  489loPI   GL1 7813   3.258  16.576   9.321 -0.2806  0.2936 -0.0714
  489loPI   GL2 7814   3.569  16.619   9.329 -0.2184 -0.0436  0.1207
  489loPI   C1A 7815   3.293  16.787   8.906 -0.3527  0.1462 -0.3361
  489loPI   C2A 7816   3.191  16.950   8.518  0.0481 -0.0970  0.0326
  489loPI   C3A 7817   3.093  17.060   8.083 -0.2800  0.2108  0.1893
  489loPI   C4A 7818   2.864  17.050   7.634 -0.1223  0.2611 -0.3268
  489loPI   C5A 7819   2.476  17.037   7.327 -0.2418  0.1014 -0.0816
  489loPI   C6A 7820   2.336  17.227   6.983  0.0418  0.3186  0.0598
  489loPI   C1B 7821   3.729  16.546   8.830  0.0759  0.0480 -0.2712
  489loPI   C2B 7822   3.815  16.518   8.394  0.2841  0.0415  0.2517
  489loPI   C3B 7823   3.693  16.446   7.909  0.0624  0.5016  0.0163
  489loPI   C4B 7824   3.503  16.413   7.485 -0.1409  0.1316 -0.0431
  490loPI    C1 7825   1.708   8.783  10.175  0.3254  0.3049 -0.3162
  490loPI    C2 7826   1.956   8.749  10.487 -0.2762 -0.1262  0.1412
  490loPI    C3 7827   1.808   9.107  10.387  0.1534  0.0608  0.1540
  490loPI   PO4 7828   1.800   8.721   9.883  0.0448  0.0024  0.0358
  490loPI   GL1 7829   2.074   8.404   9.550 -0.1359 -0.1283  0.1233
  490loPI   GL2 7830   1.789   8.334   9.495 -0.1689  0.1706  0.0348
  490loPI   C1A 7831   2.275   8.562   9.256  0.3253 -0.1573 -0.0546
  490loPI   C2A 7832   2.360   8.526   8.782 -0.2169 -0.1714  0.0278
  490loPI   C3A 7833   2.184   8.515   8.444  0.1752  0.0614 -0.0519
  490loPI   C4A 7834   2.105   8.427   8.053  0.0357  0.1047 -0.3831
  490loPI   C5A 7835   2.063   8.519   7.634  0.5383  0.1224  0.0609
  490loPI   C6A 7836   1.836   8.744   7.364 -0.3258 -0.1280 -0.0272
  490loPI   C1B 7837   1.866   8.349   9.022 -0.1247 -0.1382 -0.0469
  490loPI   C2B 7838   1.759   8.487   8.675  0.2190  0.1119  0.2502
  490loPI   C3B 7839   1.696   8.685   8.360  0.0985  0.4639  0.0503
  490loPI   C4B 7840   1.763   8.782   7.917  0.2658  0.0162 -0.1053
  491loPI    C1 7841   9.029   5.451  10.696 -0.0159 -0.0660  0.1679
  491loPI    C2 7842   8.718   5.703  10.699  0.0630  0.0333  0.0939
  491loPI    C3 7843   9.052   5.796  10.898  0.0493 -0.0685  0.1651
  491loPI   PO4 7844   8.988   5.304  10.455 -0.4106  0.0859 -0.2325
  491loPI   GL1 7845   8.955   5.196   9.969  0.0486 -0.0889 -0.0556
  491loPI   GL2 7846   8.988   4.884   9.861  0.1911  0.0246  0.0757
  491loPI   C1A 7847   8.568   5.298   9.802  0.0279  0.1285 -0.1555
  491loPI   C2A 7848   8.450   5.279   9.360  0.0340  0.2238 -0.1290
  491loPI   C3A 7849   8.421   5.241   8.999  0.1330 -0.1779  0.0304
  491loPI   C4A 7850   8.302   5.189   8.551  0.1718  0.0585  0.0330
  491loPI   C5A 7851   8.106   5.078   8.214  0.0980 -0.2335  0.5063
  491loPI   C6A 7852   7.875   4.800   7.902 -0.0814  0.2149 -0.2902
  491loPI   C1B 7853   8.935   5.099   9.462 -0.3747  0.0115  0.0435
  491loPI   C2B 7854   8.981   5.109   8.999  0.1763 -0.5418  0.0258
  491loPI   C3B 7855   8.856   5.131   8.632 -0.1394 -0.2146  0.0628
  491loPI   C4B 7856   8.767   5.161   8.196  0.0310  0.0367  0.0012
  492loPI    C1 7857   6.352  12.580   9.878 -0.0162 -0.3357  0.2622
  492loPI    C2 7858   6.260  12.848  10.160 -0.1372 -0.0254 -0.0637
  492loPI    C3 7859   6.626  12.845   9.999 -0.1532 -0.0202 -0.0999
  492loPI   PO4 7860   6.159  12.534   9.781 -0.2561  0.1436  0.0202
  492loPI   GL1 7861   6.126  12.599   9.425  0.0115  0.2015  0.0465
  492loPI   GL2 7862   6.170  12.360   9.264 -0.1642  0.1248  0.0523
  492loPI   C1A 7863   5.865  12.633   9.008  0.0889 -0.0946  0.0460
  492loPI   C2A 7864   5.706  12.489   8.652  0.0532  0.0415 -0.4438
  492loPI   C3A 7865   5.682  12.432   8.293 -0.0628  0.1142 -0.1307
  492loPI   C4A 7866   5.582  12.334   7.907 -0.2475  0.2198 -0.3225
  492loPI   C5A 7867   5.310  12.039   7.677 -0.0979  0.0398  0.3729
  492loPI   C6A 7868   5.424  11.793   7.271 -0.3798 -0.1429 -0.1692
  492loPI   C1B 7869   6.570  12.271   8.953  0.2774  0.0206  0.0433
  492loPI   C2B 7870   6.611  12.493   8.534  0.0900  0.0496 -0.1048
  492loPI   C3B 7871   6.585  12.686   8.146  0.0877  0.2789  0.0706
  492loPI   C4B 7872   6.495  12.830   7.787 -0.1077  0.1849 -0.1936
  493loPI    C1 7873  14.220   2.956  10.142 -0.1006 -0.0031  0.1732
  493loPI    C2 7874  14.258   3.316  10.314  0.1294  0.1440 -0.1752
  493loPI    C3 7875  13.937   3.234  10.090  0.0872  0.1394 -0.1133
  493loPI   PO4 7876  14.517   2.913  10.022  0.0322 -0.0558  0.0186
  493loPI   GL1 7877  14.614   2.563   9.826  0.2555  0.0492 -0.1068
  493loPI   GL2 7878  14.853   2.249   9.705 -0.3770 -0.0327  0.3168
  493loPI   C1A 7879  14.395   2.543   9.400 -0.2791  0.0340  0.0604
  493loPI   C2A 7880  14.404   2.444   8.920 -0.2600 -0.1288 -0.3464
  493loPI   C3A 7881  14.539   2.483   8.534 -0.0001  0.3279 -0.0532
  493loPI   C4A 7882  14.721   2.616   8.095 -0.0861 -0.0699 -0.2540
  493loPI   C5A 7883  14.970   2.852   7.754 -0.1948  0.2249 -0.1094
  493loPI   C6A 7884  15.148   2.467   7.551  0.0264  0.0367 -0.3411
  493loPI   C1B 7885  14.914   2.270   9.269  0.0955 -0.0493 -0.1142
  493loPI   C2B 7886  14.931   2.286   8.769 -0.0815 -0.1026 -0.1840
  493loPI   C3B 7887  15.142   2.459   8.386 -0.2213 -0.2496  0.2451
  493loPI   C4B 7888  15.240   2.557   8.070 -0.1384  0.0224  0.0575
  494loPI    C1 7889   1.401  14.244   9.911 -0.1256 -0.1102  0.2416
  494loPI    C2 7890   1.005  14.298   9.886 -0.0905  0.1209  0.1581
  494loPI    C3 7891   1.197  14.378  10.228 -0.1354 -0.1329  0.2449
  494loPI   PO4 7892   1.471  14.348   9.636  0.1736  0.0565 -0.1979
  494loPI   GL1 7893   1.509  14.627   9.412 -0.1619 -0.1903 -0.1335
  494loPI   GL2 7894   1.487  14.844   9.222  0.4796  0.2911 -0.1835
  494loPI   C1A 7895   1.685  14.247   9.026  0.0592 -0.0832  0.1175
  494loPI   C2A 7896   1.680  14.321   8.666 -0.2391 -0.1576 -0.0675
  494loPI   C3A 7897   1.908  14.588   8.349  0.0022  0.0932 -0.0190
  494loPI   C4A 7898   2.209  14.408   8.003 -0.1781  0.3287  0.1124
  494loPI   C5A 7899   2.171  14.227   7.707  0.0877  0.1107 -0.0552
  494loPI   C6A 7900   1.980  14.192   7.301 -0.0475  0.1125  0.1084
  494loPI   C1B 7901   1.210  15.175   9.071  0.1911 -0.0997 -0.0008
  494loPI   C2B 7902   1.043  15.082   8.677  0.1468 -0.0196  0.3288
  494loPI   C3B 7903   0.753  15.271   8.400 -0.2418 -0.2639 -0.0821
  494loPI   C4B 7904   0.629  15.641   8.337  0.1243  0.3674 -0.0394
  495loPI    C1 7905  15.285  11.035  10.205  0.1092  0.1666 -0.1072
  495loPI    C2 7906  15.247  11.261  10.533 -0.0378  0.1951 -0.1433
  495loPI    C3 7907  15.068  10.903  10.515  0.0750  0.1382 -0.1431
  495loPI   PO4 7908  15.262  11.221   9.978  0.0220  0.0173 -0.2046
  495loPI   GL1 7909  15.138  11.124   9.668 -0.3004 -0.1932 -0.0090
  495loPI   GL2 7910  15.015  10.929   9.536  0.1149  0.0435  0.0773
  495loPI   C1A 7911  14.923  11.342   9.294 -0.1381 -0.2546 -0.0123
  495loPI   C2A 7912  14.981  11.445   8.890  0.0605  0.1608 -0.4891
  495loPI   C3A 7913  14.961  11.587   8.417  0.0179  0.0736  0.1350
  495loPI   C4A 7914  14.738  11.750   8.101 -0.0837 -0.2103  0.0166
  495loPI   C5A 7915  14.803  11.688   7.742 -0.3230  0.3053 -0.1857
  495loPI   C6A 7916  14.893  11.565   7.314 -0.5056 -0.0368  0.1393
  495loPI   C1B 7917  15.144  10.885   9.102  0.0346  0.1641 -0.1377
  495loPI   C2B 7918  15.415  11.105   8.780 -0.3018 -0.2923  0.1189
  495loPI   C3B 7919  15.421  11.194   8.370  0.0750 -0.0040  0.3694
  495loPI   C4B 7920  15.459  11.046   7.969 -0.0888  0.0605 -0.0857
  496loPI    C1 7921   6.250  18.497  10.676 -0.2239  0.0315  0.1379
  496loPI    C2 7922   6.075  18.408  11.025  0.1183  0.2569  0.3735
  496loPI    C3 7923   6.433  18.253  10.935 -0.1811 -0.1897 -0.0977
  496loPI   PO4 7924   6.166  18.663  10.528  0.1460  0.1899  0.0223
  496loPI   GL1 7925   6.005  18.715  10.053  0.1748 -0.0104  0.0784
  496loPI   GL2 7926   5.741  18.494  10.037  0.0557 -0.2170  0.4335
  496loPI   C1A 7927   6.016  18.912   9.609 -0.1342 -0.1556  0.0183
  496loPI   C2A 7928   6.001  19.192   9.285 -0.1308  0.1616 -0.0408
  496loPI   C3A 7929   5.829  19.556   9.071  0.3248 -0.0683 -0.2534
  496loPI   C4A 7930   5.977  19.775   8.837 -0.2137  0.0225 -0.3605
  496loPI   C5A 7931   5.949  19.662   8.349  0.0969  0.0872  0.2184
  496loPI   C6A 7932   6.266  19.312   8.298 -0.0595  0.1695 -0.0399
  496loPI   C1B 7933   5.542  18.703   9.723 -0.3197 -0.3697  0.0658
  496loPI   C2B 7934   5.653  18.844   9.316 -0.0835 -0.1141 -0.0695
  496loPI   C3B 7935   5.803  18.873   8.951  0.0240  0.1627  0.0128
  496loPI   C4B 7936   5.586  18.704   8.508 -0.1580  0.3897  0.0642
  497loPI    C1 7937  10.014  10.032  10.476  0.0160  0.1249 -0.0554
  497loPI    C2 7938  10.327  10.107  10.713  0.0609 -0.0595 -0.0544
  497loPI    C3 7939   9.966  10.251  10.806  0.1422  0.1443 -0.0495
  497loPI   PO4 7940  10.089   9.965  10.197  0.1078 -0.0192  0.3038
  497loPI   GL1 7941  10.188  10.210   9.799  0.0487  0.2012  0.1324
  497loPI   GL2 7942  10.330  10.609   9.732  0.1495  0.2642  0.1009
  497loPI   C1A 7943  10.314  10.281   9.295  0.2177 -0.1181 -0.1294
  497loPI   C2A 7944  10.265  10.545   8.994 -0.0199 -0.1040  0.1748
  497loPI   C3A 7945  10.498  10.768   8.679 -0.0205 -0.0721 -0.1033
  497loPI   C4A 7946  10.828  10.985   8.462 -0.0763  0.3666 -0.0826
  497loPI   C5A 7947  10.970  11.257   8.086  0.0312 -0.0698 -0.3456
  497loPI   C6A 7948  10.899  11.508   7.727 -0.1247 -0.2555 -0.1320
  497loPI   C1B 7949  10.359  10.802   9.457  0.2212 -0.1957  0.2777
  497loPI   C2B 7950  10.545  11.129   9.181 -0.1000  0.0781 -0.1755
  497loPI   C3B 7951  10.951  11.155   9.027  0.3348  0.0594 -0.0581
  497loPI   C4B 7952  11.206  11.367   8.690 -0.0461 -0.0486 -0.0788
  498loPI    C1 7953   2.731   9.588  10.057  0.3097 -0.2305 -0.0180
  498loPI    C2 7954   2.779   9.709  10.435  0.1173  0.2733 -0.1466
  498loPI    C3 7955   3.075   9.516  10.247  0.1523 -0.1363  0.3094
  498loPI   PO4 7956   2.645   9.815   9.947 -0.1435  0.3555  0.1009
  498loPI   GL1 7957   2.658   9.904   9.525 -0.1215  0.0635 -0.0725
  498loPI   GL2 7958   2.560   9.652   9.438 -0.1260  0.0961  0.1435
  498loPI   C1A 7959   2.828   9.969   9.181 -0.1020  0.1257 -0.0287
  498loPI   C2A 7960   3.161   9.959   8.900 -0.1797  0.0876  0.1566
  498loPI   C3A 7961   3.360   9.904   8.440 -0.0078  0.2149  0.0168
  498loPI   C4A 7962   3.546   9.997   8.001  0.0101  0.3429 -0.1161
  498loPI   C5A 7963   3.634   9.953   7.513 -0.0109 -0.1715  0.0698
  498loPI   C6A 7964   3.932   9.920   7.050 -0.1574  0.2115 -0.0930
  498loPI   C1B 7965   2.784   9.472   9.116 -0.4234 -0.1075  0.5013
  498loPI   C2B 7966   2.947   9.261   8.770  0.0910 -0.1859  0.1706
  498loPI   C3B 7967   3.133   9.349   8.400  0.2063 -0.0588  0.2575
  498loPI   C4B 7968   3.199   9.381   7.995  0.1747 -0.1129 -0.0387
  499loPI    C1 7969   5.755  15.457  10.331 -0.1144 -0.0330 -0.1804
  499loPI    C2 7970   6.120  15.452  10.493 -0.1505 -0.0078 -0.0979
  499loPI    C3 7971   5.799  15.389  10.723 -0.1823 -0.2779 -0.2136
  499loPI   PO4 7972   5.938  15.695  10.059  0.0191  0.1449 -0.1838
  499loPI   GL1 7973   5.955  15.816   9.612 -0.0910 -0.0716  0.0592
  499loPI   GL2 7974   6.244  16.019   9.698 -0.1819  0.2407  0.0086
  499loPI   C1A 7975   6.027  15.865   9.105  0.2316  0.0638  0.0353
  499loPI   C2A 7976   5.986  15.829   8.658 -0.2806 -0.1277 -0.0602
  499loPI   C3A 7977   5.873  16.058   8.344 -0.1378 -0.2190  0.1400
  499loPI   C4A 7978   5.747  16.197   8.034 -0.2775  0.0894 -0.0849
  499loPI   C5A 7979   5.795  16.362   7.625 -0.1469  0.0126 -0.3545
  499loPI   C6A 7980   5.729  16.129   7.265 -0.2085  0.0268 -0.0861
  499loPI   C1B 7981   6.379  16.086   9.334 -0.3638 -0.1169  0.1941
  499loPI   C2B 7982   6.439  16.140   8.916  0.2294 -0.2261  0.0346
  499loPI   C3B 7983   6.378  16.146   8.551 -0.1056  0.4079  0.2030
  499loPI   C4B 7984   6.556  16.051   8.131  0.2020  0.0389 -0.0506
  500loPI    C1 7985   1.426  12.948   9.924 -0.1151 -0.0717  0.0384
  500loPI    C2 7986   1.103  12.791  10.101 -0.0484  0.2362  0.4497
  500loPI    C3 7987   1.089  13.161   9.951 -0.0215  0.0774  0.0416
  500loPI   PO4 7988   1.625  12.782   9.774 -0.4322 -0.1388  0.1768
  500loPI   GL1 7989   1.570  12.532   9.464  0.2901 -0.1263  0.0306
  500loPI   GL2 7990   1.740  12.817   9.292  0.2474 -0.1836  0.4271
  500loPI   C1A 7991   1.201  12.410   9.189  0.2733 -0.2457  0.0070
  500loPI   C2A 7992   1.009  12.490   8.745 -0.0222  0.1143  0.0908
  500loPI   C3A 7993   0.905  12.515   8.344  0.2007  0.0505  0.0399
  500loPI   C4A 7994   0.602  12.275   8.107  0.0494 -0.3669  0.1174
  500loPI   C5A 7995   0.620  12.217   7.646  0.0963 -0.1904  0.2175
  500loPI   C6A 7996   0.814  12.171   7.360 -0.0380  0.2458  0.3081
  500loPI   C1B 7997   1.401  12.815   9.004  0.1220  0.1685 -0.0268
  500loPI   C2B 7998   1.164  13.062   8.734  0.2398 -0.2478 -0.1190
  500loPI   C3B 7999   0.988  13.371   8.473 -0.1431 -0.0401  0.0215
  500loPI   C4B 8000   1.198  13.811   8.385  0.1790 -0.6343 -0.0960
  501loPI    C1 8001  15.963   7.804  10.138  0.1157  0.0893 -0.2839
  501loPI    C2 8002  16.004   7.518   9.861  0.0354 -0.0260 -0.1773
  501loPI    C3 8003  16.084   7.438  10.245 -0.0802  0.0669 -0.1330
  501loPI   PO4 8004  15.702   7.964   9.975 -0.0465  0.2319  0.1199
  501loPI   GL1 8005  15.673   8.190   9.699  0.0514 -0.3219  0.1187
  501loPI   GL2 8006  15.889   8.419   9.728 -0.0070  0.0716 -0.2649
  501loPI   C1A 8007  15.556   8.025   9.370 -0.0682 -0.1421 -0.0581
  501loPI   C2A 8008  15.271   7.835   9.060  0.2799  0.3245 -0.1216
  501loPI   C3A 8009  15.416   7.689   8.598  0.0369  0.1480  0.3998
  501loPI   C4A 8010  15.554   7.579   8.215 -0.1034 -0.2147  0.3230
  501loPI   C5A 8011  15.673   7.729   7.826  0.4284  0.1197  0.1690
  501loPI   C6A 8012  15.827   7.906   7.349 -0.1607 -0.1489  0.2796
  501loPI   C1B 8013  15.789   8.540   9.355  0.1648  0.0195  0.1363
  501loPI   C2B 8014  15.765   8.435   8.945  0.1886  0.3476 -0.0115
  501loPI   C3B 8015  15.614   8.310   8.623  0.2204  0.0210  0.0695
  501loPI   C4B 8016  15.293   8.190   8.372  0.1897  0.0467 -0.3638
  502loPI    C1 8017  18.254  14.030  10.727  0.0351  0.2374 -0.1432
  502loPI    C2 8018  18.560  13.776  10.773 -0.0101  0.1832 -0.1413
  502loPI    C3 8019  18.624  14.171  10.786  0.0195  0.1710  0.1225
  502loPI   PO4 8020  18.110  13.922  10.594 -0.0878  0.2875  0.0208
  502loPI   GL1 8021  17.921  14.181  10.350  0.0595 -0.0761  0.0382
  502loPI   GL2 8022  17.639  14.116  10.226 -0.1780 -0.0752  0.0176
  502loPI   C1A 8023  18.035  14.574  10.032 -0.0473  0.2293  0.0520
  502loPI   C2A 8024  18.176  14.600   9.698 -0.1926  0.2049  0.3042
  502loPI   C3A 8025  18.331  14.802   9.355 -0.0460  0.1073  0.2779
  502loPI   C4A 8026  18.526  15.038   9.189  0.1707  0.0575 -0.0985
  502loPI   C5A 8027  18.958  15.170   8.884 -0.0411  0.0133 -0.2794
  502loPI   C6A 8028  19.394  15.071   8.802  0.0544  0.3403  0.5158
  502loPI   C1B 8029  17.746  14.233   9.774 -0.0814  0.0612 -0.0963
  502loPI   C2B 8030  18.053  14.309   9.350 -0.0424  0.2033  0.1006
  502loPI   C3B 8031  18.146  14.333   8.925  0.4144  0.1856  0.3407
  502loPI   C4B 8032  18.357  14.274   8.552  0.1196  0.0839 -0.1981
  503loPI    C1 8033  11.059  18.226   9.853 -0.1731 -0.0507  0.1949
  503loPI    C2 8034  10.964  18.368  10.215  0.1392 -0.1533  0.3204
  503loPI    C3 8035  11.344  18.376  10.090  0.0103  0.0388 -0.0777
  503loPI   PO4 8036  10.852  18.049   9.840 -0.0039 -0.0387 -0.1693
  503loPI   GL1 8037  10.877  17.763   9.552  0.0306 -0.0760  0.1866
  503loPI   GL2 8038  10.597  17.595   9.428 -0.0927 -0.1197  0.0063
  503loPI   C1A 8039  11.151  17.624   9.182 -0.0156  0.0209 -0.0225
  503loPI   C2A 8040  11.098  17.432   8.868  0.0995  0.0056  0.2010
  503loPI   C3A 8041  10.909  17.416   8.504  0.3183  0.1760  0.0425
  503loPI   C4A 8042  10.869  17.393   8.001  0.1924 -0.0095  0.0077
  503loPI   C5A 8043  10.859  17.250   7.606  0.2342 -0.0320 -0.1512
  503loPI   C6A 8044  10.840  17.223   7.222  0.2580  0.0633  0.0692
  503loPI   C1B 8045  10.649  17.628   8.928 -0.0844  0.2281  0.1297
  503loPI   C2B 8046  10.457  17.661   8.579  0.1901 -0.0774  0.0097
  503loPI   C3B 8047  10.342  17.571   8.154  0.2880 -0.4273  0.2324
  503loPI   C4B 8048  10.494  17.670   7.796 -0.3403 -0.1659 -0.0934
  504loPI    C1 8049   7.806   8.277  10.315  0.0147  0.1197 -0.1855
  504loPI    C2 8050   8.152   8.080  10.286  0.0411  0.1628 -0.1644
  504loPI    C3 8051   7.969   8.112  10.640 -0.0813 -0.0237 -0.2093
  504loPI   PO4 8052   7.769   8.353  10.138  0.1147  0.2004  0.3013
  504loPI   GL1 8053   7.846   8.276   9.704 -0.0389  0.0677  0.0268
  504loPI   GL2 8054   8.175   8.155   9.776 -0.1352 -0.5110 -0.1248
  504loPI   C1A 8055   7.901   8.120   9.276  0.2505 -0.0125  0.0309
  504loPI   C2A 8056   7.730   8.115   8.834 -0.0813 -0.0003  0.0570
  504loPI   C3A 8057   7.894   8.242   8.401  0.2998 -0.1676  0.0128
  504loPI   C4A 8058   8.018   8.113   8.015  0.1156 -0.1359 -0.1468
  504loPI   C5A 8059   8.190   7.673   7.855 -0.2214  0.0057  0.2754
  504loPI   C6A 8060   7.921   7.284   7.971 -0.0556 -0.0527  0.0741
  504loPI   C1B 8061   8.351   8.379   9.374  0.2968  0.0654 -0.3302
  504loPI   C2B 8062   8.403   8.383   8.898 -0.1700  0.0698 -0.0163
  504loPI   C3B 8063   8.455   8.497   8.453  0.1919 -0.3182 -0.0429
  504loPI   C4B 8064   8.737   8.620   8.127 -0.0815 -0.3725 -0.1984
  505loPI    C1 8065  14.598  16.953  10.722  0.0188 -0.1517  0.0638
  505loPI    C2 8066  14.686  16.710  11.027 -0.0876 -0.0995  0.1366
  505loPI    C3 8067  14.711  17.107  11.074  0.0484 -0.0947  0.0296
  505loPI   PO4 8068  14.778  16.938  10.439 -0.0167 -0.2298 -0.1130
  505loPI   GL1 8069  14.692  16.905  10.035 -0.3386  0.0045  0.2496
  505loPI   GL2 8070  14.955  16.827   9.896 -0.1054  0.1139  0.2559
  505loPI   C1A 8071  14.648  16.979   9.565 -0.0984  0.2450 -0.0554
  505loPI   C2A 8072  14.654  16.910   9.118 -0.2926  0.1307  0.1995
  505loPI   C3A 8073  14.356  17.069   8.812  0.3255 -0.0058 -0.0875
  505loPI   C4A 8074  14.149  17.039   8.378  0.0933 -0.2222  0.0645
  505loPI   C5A 8075  14.064  16.950   7.954  0.0845  0.4809 -0.1108
  505loPI   C6A 8076  14.177  16.499   7.784 -0.2833 -0.1147  0.1857
  505loPI   C1B 8077  15.117  17.171   9.557  0.2269 -0.0057  0.0103
  505loPI   C2B 8078  15.065  17.214   9.094 -0.0444 -0.0806  0.2960
  505loPI   C3B 8079  15.021  17.023   8.770 -0.1428 -0.0788  0.1249
  505loPI   C4B 8080  14.922  16.789   8.452 -0.0035 -0.0223 -0.0549
  506loPI    C1 8081  14.120   7.310  10.295 -0.0766 -0.0385 -0.0984
  506loPI    C2 8082  14.023   7.445  10.659 -0.0865 -0.2387 -0.0255
  506loPI    C3 8083  13.937   7.068  10.555  0.1773 -0.2718 -0.1317
  506loPI   PO4 8084  14.046   7.495  10.165  0.3191 -0.0305 -0.2051
  506loPI   GL1 8085  14.083   7.525   9.753 -0.1378 -0.3296 -0.0979
  506loPI   GL2 8086  13.820   7.583   9.496 -0.0406 -0.2279 -0.1209
  506loPI   C1A 8087  14.287   7.377   9.246  0.0818 -0.0164 -0.1593
  506loPI   C2A 8088  14.403   7.277   8.821 -0.5652 -0.0524  0.0029
  506loPI   C3A 8089  14.296   6.930   8.612  0.4378  0.0903  0.1972
  506loPI   C4A 8090  14.378   6.900   8.179 -0.0168  0.3492 -0.1628
  506loPI   C5A 8091  14.102   6.739   7.976  0.1435 -0.2131  0.1431
  506loPI   C6A 8092  13.865   6.372   8.030  0.1777  0.1941 -0.1308
  506loPI   C1B 8093  13.626   7.586   9.121 -0.1640 -0.1753  0.1659
  506loPI   C2B 8094  13.609   7.574   8.639 -0.2850 -0.0465  0.0155
  506loPI   C3B 8095  13.645   7.914   8.300 -0.2583  0.1370  0.0387
  506loPI   C4B 8096  13.850   8.280   8.092  0.1467  0.0774 -0.0091
  507loPI    C1 8097  11.828  12.021  10.095 -0.0362 -0.0001 -0.0250
  507loPI    C2 8098  12.159  11.797  10.088  0.0853  0.1746  0.0397
  507loPI    C3 8099  11.885  11.740  10.374 -0.0070 -0.0616 -0.0928
  507loPI   PO4 8100  11.803  11.969   9.712  0.1460  0.3730  0.0717
  507loPI   GL1 8101  11.889  12.014   9.379  0.0825 -0.3166 -0.0776
  507loPI   GL2 8102  11.785  11.770   9.205  0.1214 -0.1831  0.1677
  507loPI   C1A 8103  11.973  12.110   8.941  0.2564  0.1845 -0.0026
  507loPI   C2A 8104  12.093  12.388   8.644  0.0090 -0.0768 -0.0317
  507loPI   C3A 8105  11.854  12.722   8.439 -0.0104  0.6142 -0.2218
  507loPI   C4A 8106  11.705  12.831   8.079 -0.4596 -0.3833 -0.0940
  507loPI   C5A 8107  11.436  12.787   7.685 -0.1806  0.2878  0.0467
  507loPI   C6A 8108  11.278  12.450   7.383  0.1936  0.0054  0.0772
  507loPI   C1B 8109  11.655  11.658   8.826 -0.0636  0.1897 -0.0938
  507loPI   C2B 8110  11.509  11.547   8.344  0.1343 -0.2275  0.4500
  507loPI   C3B 8111  11.381  11.432   7.940 -0.0508 -0.1444 -0.0030
  507loPI   C4B 8112  11.368  11.468   7.453  0.2891  0.3471  0.1216
  508loPI    C1 8113  12.994  17.363  10.400  0.0943  0.0884 -0.2189
  508loPI    C2 8114  12.748  17.481  10.108 -0.0824 -0.0788 -0.1392
  508loPI    C3 8115  12.619  17.470  10.486  0.1222  0.0634 -0.0639
  508loPI   PO4 8116  13.102  17.139  10.216 -0.2655 -0.1296 -0.4197
  508loPI   GL1 8117  13.083  17.129   9.801  0.1119  0.1164  0.2238
  508loPI   GL2 8118  12.816  17.173   9.678  0.0228 -0.1551 -0.1049
  508loPI   C1A 8119  13.281  16.978   9.453  0.0759  0.1803  0.2309
  508loPI   C2A 8120  13.079  16.770   9.166  0.1891  0.0121 -0.0329
  508loPI   C3A 8121  13.010  16.421   8.956  0.1617 -0.1580  0.2181
  508loPI   C4A 8122  12.913  16.257   8.536 -0.1121 -0.4767 -0.1083
  508loPI   C5A 8123  12.836  16.332   7.979 -0.2064 -0.1410 -0.3134
  508loPI   C6A 8124  12.343  16.330   7.707 -0.0415 -0.3736 -0.1167
  508loPI   C1B 8125  12.966  17.362   9.340 -0.1588  0.4119 -0.0651
  508loPI   C2B 8126  12.807  17.425   8.967  0.2118  0.4134  0.3700
  508loPI   C3B 8127  12.733  17.534   8.594  0.2360 -0.3010  0.0593
  508loPI   C4B 8128  12.839  17.706   8.259  0.0339  0.0084  0.0632
  509loPI    C1 8129   9.451  16.889  10.215 -0.0029 -0.1858 -0.1279
  509loPI    C2 8130   9.209  17.019   9.924 -0.0525  0.1568  0.0615
  509loPI    C3 8131   9.054  16.852  10.253 -0.0118  0.0443  0.0236
  509loPI   PO4 8132   9.621  16.808  10.085 -0.1121 -0.1035 -0.1145
  509loPI   GL1 8133   9.738  16.743   9.650 -0.2173 -0.3582  0.2160
  509loPI   GL2 8134   9.826  17.146   9.669  0.0699 -0.1083  0.2284
  509loPI   C1A 8135   9.809  16.827   9.233 -0.4211 -0.1554  0.0009
  509loPI   C2A 8136   9.786  16.516   8.839  0.0070  0.0162  0.1228
  509loPI   C3A 8137   9.783  16.605   8.405 -0.0636 -0.0038 -0.0082
  509loPI   C4A 8138   9.600  16.537   7.966 -0.1932  0.0280 -0.4444
  509loPI   C5A 8139   9.660  16.698   7.553  0.1830 -0.0095  0.2344
  509loPI   C6A 8140   9.608  16.647   7.126 -0.0293  0.2054  0.1288
  509loPI   C1B 8141   9.429  17.233   9.412 -0.1075  0.1973 -0.1338
  509loPI   C2B 8142   9.316  17.313   8.940 -0.0521  0.5066  0.1458
  509loPI   C3B 8143   9.481  17.363   8.554 -0.1318 -0.0073 -0.0483
  509loPI   C4B 8144   9.318  17.487   8.123  0.2692  0.0642 -0.0801
  510loPI    C1 8145  11.796  13.294  10.065 -0.0968  0.2884 -0.2316
  510loPI    C2 8146  11.475  13.171  10.269  0.0812  0.0784 -0.0723
  510loPI    C3 8147  11.651  13.518  10.363  0.2340 -0.0739  0.2173
  510loPI   PO4 8148  11.789  13.138   9.773 -0.1475 -0.0664 -0.1998
  510loPI   GL1 8149  11.903  12.968   9.381  0.0318 -0.1118 -0.0616
  510loPI   GL2 8150  12.064  12.699   9.311 -0.3559 -0.2631  0.1179
  510loPI   C1A 8151  12.029  13.065   8.882 -0.3535  0.0342 -0.0589
  510loPI   C2A 8152  12.052  13.198   8.442 -0.2515  0.3331  0.1601
  510loPI   C3A 8153  12.181  13.047   8.065 -0.0832  0.3587 -0.0388
  510loPI   C4A 8154  12.160  12.639   7.813  0.1897 -0.2815 -0.1057
  510loPI   C5A 8155  12.279  12.389   7.384  0.0500  0.0227  0.0837
  510loPI   C6A 8156  12.271  12.455   6.855  0.1828  0.1732  0.1630
  510loPI   C1B 8157  11.798  12.556   8.976 -0.2188 -0.0445 -0.2228
  510loPI   C2B 8158  11.543  12.326   8.668  0.1337  0.1534  0.1735
  510loPI   C3B 8159  11.393  12.138   8.243 -0.1537  0.0024  0.0082
  510loPI   C4B 8160  11.580  11.937   8.022 -0.0039  0.1842  0.2549
  511loPI    C1 8161   3.532   4.168  10.227  0.1566  0.1080  0.2860
  511loPI    C2 8162   3.706   4.513  10.124  0.0458  0.0362 -0.1629
  511loPI    C3 8163   3.555   4.467  10.491  0.2254  0.3963 -0.0394
  511loPI   PO4 8164   3.362   4.194   9.974  0.1232 -0.1769 -0.0115
  511loPI   GL1 8165   3.590   4.184   9.680  0.0155  0.2590 -0.1364
  511loPI   GL2 8166   3.454   4.526   9.638  0.1145 -0.1790  0.0243
  511loPI   C1A 8167   3.818   4.068   9.336 -0.0957  0.1412 -0.0896
  511loPI   C2A 8168   3.934   4.092   8.924 -0.0441 -0.0918  0.2267
  511loPI   C3A 8169   4.018   4.218   8.609  0.0117 -0.2783 -0.0070
  511loPI   C4A 8170   3.915   4.456   8.213 -0.0504 -0.0925 -0.2185
  511loPI   C5A 8171   3.933   4.795   7.903 -0.1800 -0.0462  0.0471
  511loPI   C6A 8172   3.943   5.284   7.835  0.0465  0.1607  0.0863
  511loPI   C1B 8173   3.594   4.497   9.244  0.1260 -0.2037  0.1365
  511loPI   C2B 8174   3.605   4.436   8.790  0.2313  0.0311  0.0683
  511loPI   C3B 8175   3.502   4.615   8.487  0.3747 -0.0429 -0.1218
  511loPI   C4B 8176   3.294   4.617   8.108 -0.2158  0.1384  0.1097
  512loPI    C1 8177  12.669  14.538  10.195 -0.2654  0.0770  0.1696
  512loPI    C2 8178  12.840  14.814   9.961  0.1558 -0.3855 -0.0897
  512loPI    C3 8179  13.021  14.697  10.298  0.0548 -0.4534 -0.0585
  512loPI   PO4 8180  12.357  14.651  10.217  0.1398  0.2912  0.0357
  512loPI   GL1 8181  11.989  14.738   9.903  0.3574 -0.1272 -0.0947
  512loPI   GL2 8182  11.850  14.913   9.673  0.1831  0.1628 -0.1132
  512loPI   C1A 8183  12.087  14.468   9.513 -0.2617  0.1142  0.0290
  512loPI   C2A 8184  11.936  14.518   9.027  0.0851 -0.1546  0.2431
  512loPI   C3A 8185  11.676  14.511   8.599 -0.3398 -0.1551  0.0786
  512loPI   C4A 8186  11.745  14.375   8.207  0.2532 -0.1111 -0.0518
  512loPI   C5A 8187  11.822  14.310   7.812 -0.1758 -0.4479  0.3357
  512loPI   C6A 8188  12.050  14.655   7.634  0.2722 -0.0269  0.2653
  512loPI   C1B 8189  11.826  14.939   9.258  0.3832 -0.0294 -0.0593
  512loPI   C2B 8190  11.670  14.977   8.789 -0.0362 -0.2606  0.4226
  512loPI   C3B 8191  11.621  14.973   8.352  0.2448  0.1200 -0.3105
  512loPI   C4B 8192  11.741  14.967   7.912 -0.0356 -0.2315 -0.0464
  513loPI    C1 8193   8.232   5.154  10.747  0.1603 -0.0024 -0.1402
  513loPI    C2 8194   8.616   5.212  10.843  0.1572 -0.0935 -0.0706
  513loPI    C3 8195   8.360   5.072  11.117  0.0432  0.0997 -0.0764
  513loPI   PO4 8196   8.230   5.056  10.528 -0.1017  0.5319 -0.1353
  513loPI   GL1 8197   8.197   5.029  10.099 -0.1716 -0.1283  0.2675
  513loPI   GL2 8198   8.445   4.755   9.986  0.0099  0.1056  0.0326
  513loPI   C1A 8199   8.145   5.006   9.659 -0.1237  0.0623  0.0661
  513loPI   C2A 8200   8.021   4.953   9.227  0.0909  0.2696  0.1549
  513loPI   C3A 8201   7.916   4.890   8.809 -0.1289  0.0854  0.1305
  513loPI   C4A 8202   7.726   4.754   8.409  0.1972  0.1272  0.2382
  513loPI   C5A 8203   7.555   4.534   8.191 -0.0482  0.0400  0.0015
  513loPI   C6A 8204   7.419   4.559   7.752 -0.0102  0.1480  0.0742
  513loPI   C1B 8205   8.575   4.723   9.540  0.2340  0.0633  0.1040
  513loPI   C2B 8206   8.616   4.763   9.111  0.1262 -0.0664  0.3851
  513loPI   C3B 8207   8.481   4.830   8.769 -0.3522 -0.0064 -0.2399
  513loPI   C4B 8208   8.426   4.732   8.379 -0.0426 -0.0097  0.0373
  514loPI    C1 8209   7.316  11.481  10.363 -0.0840 -0.0475  0.0854
  514loPI    C2 8210   7.690  11.571  10.475 -0.0936 -0.0803  0.1445
  514loPI    C3 8211   7.386  11.806  10.586 -0.0999 -0.0971  0.1629
  514loPI   PO4 8212   7.431  11.377  10.062  0.2243 -0.2369 -0.2935
  514loPI   GL1 8213   7.329  11.676   9.770 -0.1070 -0.4532  0.0208
  514loPI   GL2 8214   7.391  11.451   9.535 -0.2883  0.0599  0.1331
  514loPI   C1A 8215   7.300  11.916   9.394 -0.4994  0.3338 -0.1197
  514loPI   C2A 8216   7.257  11.938   8.951  0.1331  0.0792  0.1078
  514loPI   C3A 8217   7.250  11.837   8.488  0.1321  0.4405  0.0169
  514loPI   C4A 8218   7.100  11.735   8.029 -0.2251 -0.0735  0.0233
  514loPI   C5A 8219   6.860  11.501   7.659  0.1172  0.0093  0.1924
  514loPI   C6A 8220   6.980  11.136   7.428 -0.1473 -0.2309  0.2645
  514loPI   C1B 8221   7.569  11.544   9.125  0.3693 -0.2103  0.3406
  514loPI   C2B 8222   7.981  11.386   8.929 -0.0034  0.0339  0.3884
  514loPI   C3B 8223   8.106  11.541   8.621 -0.1790  0.1400  0.0808
  514loPI   C4B 8224   7.997  11.604   8.270 -0.0327  0.1230 -0.0226
  515loPI    C1 8225  12.206  10.330  10.236  0.1671  0.1905 -0.0029
  515loPI    C2 8226  12.019  10.666  10.345 -0.0135  0.0896  0.0017
  515loPI    C3 8227  12.297  10.506  10.583 -0.1822  0.0417  0.1689
  515loPI   PO4 8228  12.034  10.275   9.955 -0.1673  0.1670  0.1040
  515loPI   GL1 8229  11.814  10.042   9.641  0.1332 -0.0051  0.0347
  515loPI   GL2 8230  11.526   9.980   9.597  0.0241  0.0428 -0.2784
  515loPI   C1A 8231  11.709  10.110   9.177 -0.1567  0.2045  0.1933
  515loPI   C2A 8232  11.819  10.043   8.749  0.0884 -0.1299 -0.2331
  515loPI   C3A 8233  11.903  10.106   8.245  0.4009 -0.0224 -0.1689
  515loPI   C4A 8234  12.050  10.028   7.849 -0.1419  0.1993 -0.0631
  515loPI   C5A 8235  12.148   9.648   7.615  0.0845  0.0895 -0.0568
  515loPI   C6A 8236  12.203   9.224   7.409 -0.0223 -0.3575  0.0473
  515loPI   C1B 8237  11.287   9.814   9.285 -0.0458  0.3361  0.1856
  515loPI   C2B 8238  11.281   9.674   8.817  0.3309 -0.1943  0.1907
  515loPI   C3B 8239  11.388   9.898   8.433 -0.0441 -0.1079  0.0391
  515loPI   C4B 8240  11.316   9.917   8.070 -0.1334  0.0655  0.0622
  516loPI    C1 8241   4.350   1.557  10.324  0.0884 -0.0481 -0.0695
  516loPI    C2 8242   4.010   1.482  10.521 -0.0617  0.1268 -0.2580
  516loPI    C3 8243   4.252   1.775  10.644  0.2044 -0.2290  0.0917
  516loPI   PO4 8244   4.221   1.464  10.082  0.1370 -0.1531 -0.2981
  516loPI   GL1 8245   4.451   1.274   9.820 -0.1837  0.2007 -0.0455
  516loPI   GL2 8246   4.123   1.145   9.739  0.1372 -0.1622  0.2646
  516loPI   C1A 8247   4.714   1.318   9.558  0.1547  0.0882 -0.3334
  516loPI   C2A 8248   4.744   0.891   9.228  0.0656  0.0329  0.2890
  516loPI   C3A 8249   4.683   0.903   8.759 -0.1252  0.2432 -0.1512
  516loPI   C4A 8250   4.521   0.632   8.390 -0.1144 -0.2426 -0.1506
  516loPI   C5A 8251   4.537   0.723   7.877 -0.0156 -0.0511 -0.1424
  516loPI   C6A 8252   4.663   0.407   7.650 -0.2798 -0.0679  0.3924
  516loPI   C1B 8253   4.124   1.292   9.301  0.2566  0.2627  0.0224
  516loPI   C2B 8254   3.957   1.374   8.836 -0.1103 -0.0262  0.2112
  516loPI   C3B 8255   3.823   1.233   8.419 -0.0294 -0.1963  0.3027
  516loPI   C4B 8256   3.807   1.228   7.981  0.0627 -0.2403  0.3281
  517loPI    C1 8257  18.338   4.406  10.236 -0.1322  0.0357  0.0230
  517loPI    C2 8258  18.381   4.803  10.242  0.0451  0.0215 -0.1726
  517loPI    C3 8259  18.391   4.595  10.584  0.0895  0.1707 -0.0820
  517loPI   PO4 8260  18.327   4.462   9.876  0.0279  0.1864 -0.1728
  517loPI   GL1 8261  18.247   4.222   9.428  0.1451 -0.2660 -0.0437
  517loPI   GL2 8262  18.334   4.599   9.364 -0.1018  0.0293 -0.1761
  517loPI   C1A 8263  18.019   4.289   9.042  0.4511 -0.0451  0.0340
  517loPI   C2A 8264  17.660   4.221   8.867 -0.0217 -0.2252 -0.1174
  517loPI   C3A 8265  17.458   4.490   8.606 -0.1201 -0.2886 -0.0921
  517loPI   C4A 8266  17.359   4.604   8.174  0.2278 -0.0411  0.1820
  517loPI   C5A 8267  17.347   4.654   7.777  0.1785 -0.0774 -0.3233
  517loPI   C6A 8268  17.290   4.274   7.475 -0.0262 -0.1899 -0.1507
  517loPI   C1B 8269  18.397   4.716   9.012 -0.2405 -0.3512 -0.0662
  517loPI   C2B 8270  18.349   4.785   8.593  0.0133  0.0534  0.1004
  517loPI   C3B 8271  18.238   4.781   8.176  0.1183 -0.1063  0.2584
  517loPI   C4B 8272  17.853   4.739   7.951  0.0702 -0.0851  0.1218
  518loPI    C1 8273   0.246   4.318   9.957  0.0622 -0.2953  0.0161
  518loPI    C2 8274   0.293   4.577  10.257  0.0571  0.0268 -0.2547
  518loPI    C3 8275  -0.051   4.567  10.055  0.1317 -0.0474 -0.3792
  518loPI   PO4 8276   0.434   4.247   9.708 -0.0962  0.1870 -0.0125
  518loPI   GL1 8277   0.457   3.848   9.459 -0.1869 -0.2363  0.1351
  518loPI   GL2 8278   0.206   3.906   9.439 -0.0784 -0.1706  0.2904
  518loPI   C1A 8279   0.557   3.943   9.037 -0.0314 -0.0068 -0.1804
  518loPI   C2A 8280   0.386   3.725   8.593  0.2285  0.2168 -0.0070
  518loPI   C3A 8281   0.441   3.434   8.084  0.2317  0.1200  0.3285
  518loPI   C4A 8282   0.243   3.463   7.643  0.2428  0.0098 -0.0923
  518loPI   C5A 8283   0.124   3.368   7.274  0.3045 -0.1284  0.0723
  518loPI   C6A 8284   0.006   3.790   7.217 -0.0285  0.2556  0.2070
  518loPI   C1B 8285   0.067   3.753   9.037  0.1493  0.0439  0.0813
  518loPI   C2B 8286  -0.127   3.788   8.737  0.1219  0.0755 -0.1956
  518loPI   C3B 8287  -0.410   3.851   8.348 -0.0513  0.0410 -0.0750
  518loPI   C4B 8288  -0.631   3.674   8.010  0.2918 -0.3390  0.0774
  519loPI    C1 8289  10.300  14.855  10.069  0.0426 -0.0428 -0.1419
  519loPI    C2 8290   9.926  14.994  10.076  0.0977  0.1037 -0.0805
  519loPI    C3 8291  10.188  15.111  10.355  0.2239  0.1002 -0.1967
  519loPI   PO4 8292  10.336  14.837   9.794  0.0895 -0.2223 -0.3372
  519loPI   GL1 8293  10.184  14.681   9.376  0.1419 -0.2194 -0.3101
  519loPI   GL2 8294  10.112  14.366   9.382  0.0287  0.0903  0.1964
  519loPI   C1A 8295  10.287  14.994   9.028 -0.2406  0.0900  0.1517
  519loPI   C2A 8296  10.167  15.116   8.638 -0.1821  0.1246 -0.1334
  519loPI   C3A 8297  10.178  15.296   8.350  0.1947  0.2655 -0.1681
  519loPI   C4A 8298   9.859  15.312   8.025 -0.0521  0.1185 -0.1646
  519loPI   C5A 8299   9.736  15.449   7.592 -0.2386  0.1477  0.0553
  519loPI   C6A 8300   9.388  15.645   7.491  0.1113 -0.0227  0.0721
  519loPI   C1B 8301  10.194  14.133   9.018 -0.0484  0.5428 -0.2911
  519loPI   C2B 8302  10.549  14.156   8.687  0.0556 -0.2357 -0.1703
  519loPI   C3B 8303  10.780  14.365   8.324  0.0752 -0.0903 -0.0347
  519loPI   C4B 8304  10.904  14.404   7.829 -0.1575  0.2424  0.0737
  520loPI    C1 8305  16.667  15.168  10.547  0.0381 -0.1194  0.3418
  520loPI    C2 8306  17.059  15.219  10.608  0.0625 -0.0023  0.0987
  520loPI    C3 8307  16.897  14.855  10.642  0.2259 -0.0834  0.0197
  520loPI   PO4 8308  16.647  15.299  10.311 -0.0981  0.1535  0.0474
  520loPI   GL1 8309  16.823  15.443   9.866  0.1719 -0.2401 -0.0155
  520loPI   GL2 8310  17.086  15.495   9.692 -0.1380 -0.1509  0.0712
  520loPI   C1A 8311  16.671  15.195   9.536  0.1891 -0.1377  0.0799
  520loPI   C2A 8312  16.711  15.179   9.039 -0.1355 -0.1053 -0.1620
  520loPI   C3A 8313  16.736  15.205   8.684  0.2263 -0.0413  0.2492
  520loPI   C4A 8314  16.762  15.245   8.300  0.0733 -0.3825 -0.0063
  520loPI   C5A 8315  16.836  15.494   7.970 -0.0756  0.1371  0.0900
  520loPI   C6A 8316  16.654  15.839   7.817 -0.0607 -0.1758  0.1634
  520loPI   C1B 8317  17.128  15.349   9.267  0.2677  0.0975 -0.2645
  520loPI   C2B 8318  17.218  15.335   8.880 -0.0843 -0.0139  0.0384
  520loPI   C3B 8319  17.220  15.258   8.487 -0.0892  0.0840  0.2385
  520loPI   C4B 8320  17.348  15.231   8.121  0.0516  0.1454  0.1503
  521loPI    C1 8321   4.159  17.403  10.416  0.2894 -0.1253 -0.0589
  521loPI    C2 8322   4.261  17.686  10.680 -0.2124 -0.1330  0.1545
  521loPI    C3 8323   4.271  17.300  10.787  0.4550 -0.2081 -0.1310
  521loPI   PO4 8324   3.947  17.552  10.320  0.1330 -0.0828 -0.1443
  521loPI   GL1 8325   3.957  17.678   9.878  0.2371 -0.2491  0.1546
  521loPI   GL2 8326   4.178  17.413   9.790  0.1163  0.2321 -0.0167
  521loPI   C1A 8327   4.002  17.769   9.492 -0.2180  0.0712  0.1780
  521loPI   C2A 8328   4.074  17.849   9.020  0.1481  0.1083  0.1362
  521loPI   C3A 8329   4.097  18.054   8.686  0.3009 -0.0465 -0.0302
  521loPI   C4A 8330   4.163  18.142   8.262  0.1104  0.1431  0.1840
  521loPI   C5A 8331   4.316  18.479   7.945  0.2015  0.0704 -0.1501
  521loPI   C6A 8332   4.368  18.820   7.708  0.2575  0.1136 -0.4535
  521loPI   C1B 8333   4.245  17.324   9.387 -0.2023 -0.0194  0.1012
  521loPI   C2B 8334   4.229  17.336   8.961 -0.1924  0.1317  0.0836
  521loPI   C3B 8335   4.191  17.286   8.587  0.2098  0.1696  0.2748
  521loPI   C4B 8336   4.265  17.290   8.095  0.3475  0.0841 -0.1766
  522loPI    C1 8337   3.311  12.216  10.104  0.0405 -0.1502 -0.2466
  522loPI    C2 8338   3.155  11.967  10.376  0.2268  0.1572  0.1521
  522loPI    C3 8339   3.137  12.363  10.434 -0.1698  0.2548 -0.5291
  522loPI   PO4 8340   3.503  12.089  10.026  0.2578  0.2701  0.0533
  522loPI   GL1 8341   3.612  12.009   9.543 -0.3035  0.2312  0.1731
  522loPI   GL2 8342   3.361  12.041   9.305 -0.0874  0.0156  0.0079
  522loPI   C1A 8343   3.876  12.162   9.245 -0.1275  0.0559 -0.2988
  522loPI   C2A 8344   3.866  12.098   8.855  0.0400  0.0146  0.1999
  522loPI   C3A 8345   3.821  12.109   8.445 -0.1331  0.1123 -0.1070
  522loPI   C4A 8346   3.945  12.112   7.909 -0.1307  0.1521  0.0225
  522loPI   C5A 8347   4.319  12.129   7.577  0.3087  0.1084  0.2404
  522loPI   C6A 8348   4.345  11.915   7.198 -0.1804  0.1271 -0.2734
  522loPI   C1B 8349   3.404  11.958   8.858  0.1856 -0.0257 -0.1149
  522loPI   C2B 8350   3.415  11.793   8.383 -0.1930 -0.1992 -0.3130
  522loPI   C3B 8351   3.191  11.603   8.129 -0.2987  0.0581 -0.1209
  522loPI   C4B 8352   3.381  11.577   7.773  0.1323  0.1890 -0.0794
  523loPI    C1 8353   0.973  15.603  10.129 -0.1713 -0.2724 -0.0622
  523loPI    C2 8354   1.326  15.445  10.027 -0.0221  0.0300 -0.0246
  523loPI    C3 8355   1.192  15.410  10.402  0.0255  0.0205 -0.0086
  523loPI   PO4 8356   0.738  15.577   9.891 -0.2028  0.0290 -0.3659
  523loPI   GL1 8357   0.579  15.839   9.597 -0.0392 -0.1048  0.2736
  523loPI   GL2 8358   0.416  15.646   9.538 -0.2433 -0.0875 -0.3398
  523loPI   C1A 8359   0.659  15.979   9.152  0.1176 -0.0096  0.0253
  523loPI   C2A 8360   0.535  16.147   8.698 -0.0107 -0.0422  0.2755
  523loPI   C3A 8361   0.304  16.009   8.329 -0.0449  0.2012  0.1162
  523loPI   C4A 8362   0.136  16.193   7.938  0.2343 -0.1868  0.1832
  523loPI   C5A 8363  -0.135  16.500   7.740 -0.1006 -0.1540 -0.0441
  523loPI   C6A 8364  -0.257  16.581   7.290  0.0711 -0.4186 -0.1253
  523loPI   C1B 8365   0.262  15.568   9.166 -0.0261  0.0750 -0.0066
  523loPI   C2B 8366   0.170  15.721   8.804  0.1457  0.1163  0.1482
  523loPI   C3B 8367   0.065  15.523   8.461  0.0363 -0.0010  0.0826
  523loPI   C4B 8368  -0.011  15.468   8.041 -0.2946 -0.0424  0.0567
  524loPI    C1 8369   7.177   2.613  10.236 -0.0658  0.1372 -0.1250
  524loPI    C2 8370   7.045   2.550  10.608  0.2853 -0.0716 -0.0309
  524loPI    C3 8371   6.851   2.805  10.368 -0.1158 -0.1563  0.1927
  524loPI   PO4 8372   7.140   2.297  10.137  0.1370 -0.2737  0.0073
  524loPI   GL1 8373   7.135   2.215   9.800 -0.0540 -0.2012 -0.2460
  524loPI   GL2 8374   7.309   2.440   9.702 -0.1562  0.2380 -0.1520
  524loPI   C1A 8375   6.922   2.175   9.429 -0.0472 -0.2447 -0.1823
  524loPI   C2A 8376   6.901   2.179   9.065  0.1969  0.2208  0.1259
  524loPI   C3A 8377   7.027   2.355   8.694 -0.1971  0.0013 -0.2625
  524loPI   C4A 8378   7.184   2.335   8.230 -0.2302  0.1449 -0.1182
  524loPI   C5A 8379   7.050   2.027   7.866 -0.0894  0.1207 -0.0521
  524loPI   C6A 8380   6.703   1.835   7.734  0.0156  0.2101  0.2198
  524loPI   C1B 8381   7.336   2.453   9.247 -0.0282 -0.1543  0.0005
  524loPI   C2B 8382   7.529   2.284   8.856 -0.0694 -0.3127 -0.0561
  524loPI   C3B 8383   7.589   2.082   8.520  0.0774 -0.2666  0.1633
  524loPI   C4B 8384   7.355   1.847   8.278  0.0036  0.0763 -0.3326
  525loPI    C1 8385   0.457  10.356   9.994 -0.1535 -0.0982 -0.1844
  525loPI    C2 8386   0.441  10.064  10.266  0.1064  0.1830  0.1425
  525loPI    C3 8387   0.214  10.390  10.310 -0.0064  0.1382 -0.0937
  525loPI   PO4 8388   0.524  10.241   9.730  0.0418 -0.0360 -0.0178
  525loPI   GL1 8389   0.561  10.395   9.318 -0.2862  0.2150  0.1110
  525loPI   GL2 8390   0.589  10.723   9.241 -0.1362  0.1676 -0.3567
  525loPI   C1A 8391   0.833  10.231   8.996 -0.3527 -0.1514 -0.0891
  525loPI   C2A 8392   1.078  10.370   8.673 -0.3035 -0.3985  0.0816
  525loPI   C3A 8393   1.253  10.566   8.294 -0.1473 -0.0361 -0.0690
  525loPI   C4A 8394   1.570  10.841   8.066  0.0018 -0.0187 -0.2958
  525loPI   C5A 8395   2.034  10.780   8.152 -0.1713 -0.1015 -0.0111
  525loPI   C6A 8396   2.187  10.309   8.138 -0.2717 -0.2296 -0.0510
  525loPI   C1B 8397   0.715  10.677   8.796  0.1052 -0.0707  0.1065
  525loPI   C2B 8398   0.903  10.813   8.519  0.0962 -0.0171  0.0986
  525loPI   C3B 8399   0.974  10.888   8.108 -0.1091 -0.1527 -0.3088
  525loPI   C4B 8400   1.230  10.955   7.724 -0.1780  0.0645 -0.1082
  526loPI    C1 8401   1.421   3.693  10.318  0.0020 -0.0069 -0.0343
  526loPI    C2 8402   1.253   3.350  10.437  0.1499 -0.0440  0.0697
  526loPI    C3 8403   1.242   3.671  10.675  0.2448 -0.0529  0.0866
  526loPI   PO4 8404   1.407   3.605  10.011  0.2479  0.1632  0.1569
  526loPI   GL1 8405   1.442   3.408   9.633  0.3186 -0.1415  0.1046
  526loPI   GL2 8406   1.339   3.195   9.825 -0.1894  0.1384 -0.0867
  526loPI   C1A 8407   1.517   3.416   9.098 -0.1883  0.1845 -0.0635
  526loPI   C2A 8408   1.425   3.446   8.664 -0.2071 -0.0748 -0.1354
  526loPI   C3A 8409   1.079   3.470   8.376 -0.1239  0.0085 -0.2010
  526loPI   C4A 8410   1.052   3.514   7.981  0.1436 -0.1561  0.1943
  526loPI   C5A 8411   0.770   3.671   7.778 -0.0734 -0.1181 -0.0508
  526loPI   C6A 8412   0.560   3.695   7.312 -0.2441 -0.3542  0.1872
  526loPI   C1B 8413   1.160   3.036   9.378 -0.0514  0.0271  0.3146
  526loPI   C2B 8414   1.124   2.860   8.950 -0.4080  0.0405 -0.0368
  526loPI   C3B 8415   1.110   3.001   8.600 -0.3498 -0.1586 -0.0799
  526loPI   C4B 8416   1.183   2.989   8.170 -0.2196 -0.1410 -0.0768
  527loPI    C1 8417   8.128  16.602  10.187 -0.0349 -0.1271 -0.1993
  527loPI    C2 8418   8.251  16.873  10.454  0.1423 -0.2159 -0.1891
  527loPI    C3 8419   8.262  16.484  10.545  0.0441 -0.2371 -0.2645
  527loPI   PO4 8420   8.233  16.691   9.980 -0.1030  0.2256  0.0418
  527loPI   GL1 8421   8.294  16.621   9.560  0.2216  0.1709 -0.0988
  527loPI   GL2 8422   8.398  16.313   9.652  0.2407  0.1142 -0.0014
  527loPI   C1A 8423   8.399  16.862   9.211 -0.1161  0.0489  0.1293
  527loPI   C2A 8424   8.416  16.823   8.767  0.0620  0.1163 -0.2100
  527loPI   C3A 8425   8.258  16.595   8.446 -0.2763 -0.0287 -0.0990
  527loPI   C4A 8426   8.209  16.572   8.102  0.1752  0.3907 -0.1204
  527loPI   C5A 8427   8.269  16.477   7.680  0.2234 -0.2515  0.0103
  527loPI   C6A 8428   8.286  16.664   7.216 -0.0306  0.0289 -0.0397
  527loPI   C1B 8429   8.460  16.344   9.191  0.0630  0.1805  0.2251
  527loPI   C2B 8430   8.429  16.337   8.844 -0.1107 -0.0600 -0.0091
  527loPI   C3B 8431   8.291  16.054   8.454  0.4318  0.1324  0.3051
  527loPI   C4B 8432   8.351  15.635   8.302 -0.0206 -0.0692  0.2215
  528loPI    C1 8433  10.697  10.419  10.068 -0.0939  0.3073 -0.3139
  528loPI    C2 8434  10.333  10.408  10.232  0.0370  0.0539 -0.0303
  528loPI    C3 8435  10.656  10.451  10.464  0.2111 -0.0743 -0.2444
  528loPI   PO4 8436  10.674  10.197   9.922 -0.4216 -0.2315 -0.2660
  528loPI   GL1 8437  11.011  10.045   9.709 -0.0875  0.2201  0.1715
  528loPI   GL2 8438  10.791  10.074   9.436 -0.1456  0.3204 -0.0732
  528loPI   C1A 8439  10.887   9.589   9.528 -0.1485 -0.1814  0.1033
  528loPI   C2A 8440  10.871   9.417   9.124 -0.2039  0.1352  0.0052
  528loPI   C3A 8441  10.828   9.313   8.713  0.1535 -0.1695  0.3328
  528loPI   C4A 8442  10.924   9.478   8.344  0.1106 -0.0534 -0.2518
  528loPI   C5A 8443  10.921   9.639   8.016  0.3685 -0.1741 -0.0221
  528loPI   C6A 8444  10.982   9.682   7.643 -0.2909 -0.0229 -0.1079
  528loPI   C1B 8445  10.779  10.026   9.110 -0.0582  0.2334  0.0327
  528loPI   C2B 8446  10.866   9.900   8.739  0.2853 -0.1245  0.0197
  528loPI   C3B 8447  10.868   9.998   8.309  0.0692 -0.1708 -0.0460
  528loPI   C4B 8448  10.778  10.104   7.792 -0.2558  0.1960 -0.1992
  529loPI    C1 8449   5.162   8.888  10.282  0.2521  0.0176 -0.3381
  529loPI    C2 8450   5.458   8.620  10.295  0.2627  0.0414  0.0119
  529loPI    C3 8451   5.135   8.572  10.525  0.2897  0.3574  0.1202
  529loPI   PO4 8452   5.188   8.940  10.017 -0.0046  0.0874 -0.1660
  529loPI   GL1 8453   5.195   9.197   9.652 -0.1302  0.2473 -0.1409
  529loPI   GL2 8454   4.926   9.143   9.450  0.0296 -0.2740 -0.1020
  529loPI   C1A 8455   5.310   9.117   9.141 -0.1262  0.2100 -0.0434
  529loPI   C2A 8456   5.189   9.104   8.739 -0.2136  0.1259  0.1715
  529loPI   C3A 8457   5.255   9.243   8.355  0.1113  0.0733  0.3110
  529loPI   C4A 8458   5.095   8.975   7.945 -0.4109 -0.0504  0.1955
  529loPI   C5A 8459   4.763   8.825   7.490 -0.2534 -0.1895 -0.0370
  529loPI   C6A 8460   4.585   8.411   7.505 -0.0550  0.0945  0.0898
  529loPI   C1B 8461   4.771   9.240   9.053  0.0704 -0.0620  0.2414
  529loPI   C2B 8462   4.765   9.191   8.586  0.1635  0.1320  0.1714
  529loPI   C3B 8463   4.644   9.117   8.194 -0.0686 -0.2018  0.2364
  529loPI   C4B 8464   4.610   9.216   7.738  0.0637 -0.1591  0.2477
  530loPI    C1 8465  18.067   1.297  10.142 -0.1354 -0.1131 -0.0771
  530loPI    C2 8466  17.847   1.575  10.328 -0.0802  0.0579 -0.2655
  530loPI    C3 8467  18.044   1.301  10.542 -0.1557  0.1473 -0.0792
  530loPI   PO4 8468  18.234   1.397  10.005  0.0707  0.0872 -0.4177
  530loPI   GL1 8469  18.362   1.451   9.634 -0.0619  0.1079  0.1397
  530loPI   GL2 8470  18.228   1.161   9.582  0.1057  0.2131  0.0083
  530loPI   C1A 8471  18.637   1.437   9.357  0.1012 -0.4850  0.1454
  530loPI   C2A 8472  18.662   1.259   8.991 -0.0388 -0.3439  0.1681
  530loPI   C3A 8473  18.547   1.380   8.590 -0.2742 -0.1138 -0.0359
  530loPI   C4A 8474  18.529   1.383   8.140  0.2944  0.1512  0.1418
  530loPI   C5A 8475  18.623   1.058   7.898  0.2129  0.0324 -0.2380
  530loPI   C6A 8476  18.756   0.743   7.596  0.2752 -0.2522  0.1391
  530loPI   C1B 8477  18.178   1.243   9.120  0.1036 -0.1663 -0.0518
  530loPI   C2B 8478  17.986   1.446   8.769  0.0003  0.3221  0.3399
  530loPI   C3B 8479  17.741   1.390   8.422  0.1326 -0.1749  0.0180
  530loPI   C4B 8480  17.535   1.124   8.118  0.1268 -0.2078  0.0274
  531loPI    C1 8481  10.449  10.876  10.437 -0.0983 -0.1469  0.1742
  531loPI    C2 8482  10.257  10.660  10.714 -0.2680 -0.0619  0.1237
  531loPI    C3 8483  10.495  10.961  10.825 -0.2090 -0.1306  0.1841
  531loPI   PO4 8484  10.254  10.902  10.274  0.0088  0.2268  0.2952
  531loPI   GL1 8485   9.838  11.042  10.012  0.0698  0.0662 -0.2588
  531loPI   GL2 8486   9.880  10.769   9.935  0.1104 -0.3124 -0.2344
  531loPI   C1A 8487   9.945  11.116   9.584 -0.1502  0.2012 -0.0602
  531loPI   C2A 8488  10.032  10.959   9.151 -0.1573  0.0110  0.0106
  531loPI   C3A 8489   9.819  10.865   8.720 -0.2645 -0.1497 -0.1097
  531loPI   C4A 8490   9.664  10.720   8.329 -0.0974 -0.1335  0.0210
  531loPI   C5A 8491   9.825  10.494   7.967 -0.1628 -0.0694 -0.1946
  531loPI   C6A 8492   9.869  10.362   7.503  0.0554  0.1858  0.3757
  531loPI   C1B 8493   9.921  10.542   9.493  0.0816 -0.0521 -0.1897
  531loPI   C2B 8494   9.753  10.512   9.198  0.1359  0.1645 -0.1035
  531loPI   C3B 8495   9.895  10.398   8.748 -0.3165 -0.2896  0.0761
  531loPI   C4B 8496  10.154  10.613   8.351  0.2261 -0.2980 -0.1201
  532loPI    C1 8497  17.614  13.259  10.757 -0.0478 -0.0234 -0.0072
  532loPI    C2 8498  17.722  13.568  10.986  0.2231 -0.1109 -0.0132
  532loPI    C3 8499  17.742  13.196  11.131 -0.1500 -0.1257  0.0113
  532loPI   PO4 8500  17.287  13.380  10.682  0.0103  0.2047  0.0637
  532loPI   GL1 8501  17.185  13.556  10.206  0.0791 -0.1334 -0.0337
  532loPI   GL2 8502  17.177  13.922  10.321  0.0385  0.3848 -0.0538
  532loPI   C1A 8503  17.122  13.609   9.784  0.4839 -0.0748 -0.0658
  532loPI   C2A 8504  16.973  13.490   9.364 -0.1900 -0.0437 -0.0425
  532loPI   C3A 8505  17.016  13.496   8.870 -0.2455  0.2880 -0.0525
  532loPI   C4A 8506  17.022  13.510   8.461 -0.3836  0.2353 -0.3085
  532loPI   C5A 8507  17.135  13.762   8.215 -0.1723  0.1119  0.1138
  532loPI   C6A 8508  17.322  13.989   7.908  0.0692  0.0567  0.1797
  532loPI   C1B 8509  17.230  14.118   9.905  0.1298 -0.2993 -0.0036
  532loPI   C2B 8510  17.347  14.330   9.469 -0.1267 -0.3417 -0.1172
  532loPI   C3B 8511  17.605  14.285   9.096 -0.0235 -0.0001 -0.0876
  532loPI   C4B 8512  17.712  14.450   8.726  0.0889  0.1450 -0.0993
  533loPI    C1 8513  13.739  10.243  10.297 -0.0368 -0.1498 -0.0312
  533loPI    C2 8514  14.086  10.048  10.339 -0.0084 -0.1453 -0.2334
  533loPI    C3 8515  13.870  10.145  10.662  0.1684 -0.1652 -0.1080
  533loPI   PO4 8516  13.667  10.167  10.058  0.1473 -0.1422  0.2397
  533loPI   GL1 8517  13.610   9.939   9.701 -0.0137  0.1364  0.1520
  533loPI   GL2 8518  13.921   9.925   9.524 -0.1295  0.0407 -0.0434
  533loPI   C1A 8519  13.512   9.976   9.219 -0.4674  0.0140 -0.1955
  533loPI   C2A 8520  13.692   9.983   8.812  0.0756 -0.0269 -0.1318
  533loPI   C3A 8521  13.650  10.338   8.540  0.2483  0.2900 -0.0506
  533loPI   C4A 8522  13.600  10.514   8.014 -0.2984 -0.2585  0.0473
  533loPI   C5A 8523  13.263  10.424   7.736 -0.0922 -0.0801 -0.2037
  533loPI   C6A 8524  12.968  10.280   7.507 -0.0544  0.0796  0.3147
  533loPI   C1B 8525  14.034  10.110   9.169 -0.0990 -0.1536  0.0722
  533loPI   C2B 8526  14.097  10.342   8.785  0.1762  0.0408 -0.0784
  533loPI   C3B 8527  14.071  10.471   8.399  0.0914  0.3446  0.1176
  533loPI   C4B 8528  14.179  10.459   7.853  0.0780 -0.2771  0.3480
  534loPI    C1 8529   7.907  15.833  10.088  0.2059  0.0040  0.0945
  534loPI    C2 8530   7.584  16.069  10.070  0.1405 -0.0914  0.0097
  534loPI    C3 8531   7.892  16.169  10.305 -0.0889 -0.1695  0.3524
  534loPI   PO4 8532   7.979  15.808   9.841 -0.0446  0.1957 -0.1089
  534loPI   GL1 8533   8.055  15.791   9.462 -0.3984  0.0449 -0.0140
  534loPI   GL2 8534   8.034  16.079   9.320 -0.0822  0.0227 -0.0083
  534loPI   C1A 8535   8.464  15.540   9.296 -0.0575  0.1943  0.0994
  534loPI   C2A 8536   8.471  15.110   9.096 -0.2414  0.1999 -0.2574
  534loPI   C3A 8537   8.562  14.871   8.823 -0.1843 -0.1978 -0.3156
  534loPI   C4A 8538   8.634  14.727   8.416  0.1430  0.0357  0.1021
  534loPI   C5A 8539   8.710  14.362   8.214 -0.2000 -0.1270 -0.0191
  534loPI   C6A 8540   9.092  14.214   8.083 -0.1279 -0.2504 -0.2726
  534loPI   C1B 8541   8.297  15.893   8.985 -0.2670  0.1718 -0.0230
  534loPI   C2B 8542   8.542  15.540   8.759  0.3100 -0.1857 -0.0070
  534loPI   C3B 8543   8.625  15.269   8.521  0.1161  0.0196 -0.1934
  534loPI   C4B 8544   8.619  15.168   8.015  0.1920 -0.0578 -0.1840
  535loPI    C1 8545   6.540   9.546  10.256  0.2439  0.0298  0.0043
  535loPI    C2 8546   6.858   9.634  10.483  0.1608  0.1384  0.0795
  535loPI    C3 8547   6.558   9.416  10.634  0.1993  0.0349  0.0081
  535loPI   PO4 8548   6.593   9.459   9.996 -0.0756 -0.3471  0.0431
  535loPI   GL1 8549   6.855   9.513   9.591 -0.0517 -0.3076  0.3514
  535loPI   GL2 8550   6.471   9.515   9.507 -0.0195 -0.1235 -0.1134
  535loPI   C1A 8551   6.717   9.460   9.060 -0.0150 -0.1256 -0.0678
  535loPI   C2A 8552   6.681   9.418   8.592  0.0030  0.0619  0.2453
  535loPI   C3A 8553   6.486   9.362   8.138  0.0949  0.1142 -0.1282
  535loPI   C4A 8554   6.311   9.725   7.825 -0.3595 -0.0426 -0.4666
  535loPI   C5A 8555   6.194   9.924   7.568 -0.0473  0.3532 -0.2879
  535loPI   C6A 8556   6.077   9.615   7.154 -0.2080  0.0263 -0.0561
  535loPI   C1B 8557   6.405   9.888   9.310 -0.2562  0.2693  0.0382
  535loPI   C2B 8558   6.496  10.127   8.873  0.3559  0.2386  0.1184
  535loPI   C3B 8559   6.680   9.996   8.449  0.4014  0.1463  0.1407
  535loPI   C4B 8560   6.711   9.781   8.083 -0.0087  0.1102 -0.0615
  536loPI    C1 8561   1.173   1.968  10.471  0.0175  0.1024  0.0230
  536loPI    C2 8562   1.341   1.697  10.712  0.0381  0.1915  0.1096
  536loPI    C3 8563   1.521   2.049  10.652  0.1362  0.0926 -0.1962
  536loPI   PO4 8564   1.121   1.798  10.247 -0.0607  0.2130 -0.0860
  536loPI   GL1 8565   1.120   1.753   9.781 -0.1873 -0.1792 -0.1068
  536loPI   GL2 8566   1.095   1.992   9.566  0.0130 -0.2105 -0.2813
  536loPI   C1A 8567   1.368   1.610   9.458  0.1716 -0.0694 -0.2603
  536loPI   C2A 8568   1.164   1.478   9.036 -0.0849  0.2951 -0.1209
  536loPI   C3A 8569   1.051   1.652   8.624 -0.2442  0.0431 -0.0129
  536loPI   C4A 8570   1.060   1.418   8.225 -0.0058  0.0339  0.0215
  536loPI   C5A 8571   1.112   1.273   7.806 -0.0309  0.0747  0.1037
  536loPI   C6A 8572   0.850   0.920   7.742 -0.3226 -0.0852  0.1954
  536loPI   C1B 8573   1.314   2.037   9.160 -0.1701 -0.1350 -0.0619
  536loPI   C2B 8574   1.441   1.964   8.839 -0.1855  0.0457 -0.0438
  536loPI   C3B 8575   1.421   1.998   8.402 -0.0759 -0.1367  0.1907
  536loPI   C4B 8576   1.645   2.136   8.030  0.2476 -0.0963 -0.2990
  537loPI    C1 8577   9.963  12.587  10.284 -0.1029  0.1510 -0.1454
  537loPI    C2 8578  10.258  12.732  10.512 -0.1387  0.0176 -0.0129
  537loPI    C3 8579   9.931  12.577  10.682 -0.0167 -0.3966 -0.1440
  537loPI   PO4 8580  10.080  12.489  10.129 -0.2918 -0.2449  0.0210
  537loPI   GL1 8581  10.151  12.664   9.755 -0.0641 -0.0328 -0.0107
  537loPI   GL2 8582  10.066  12.966   9.831  0.0822  0.1677  0.3212
  537loPI   C1A 8583  10.216  12.473   9.339 -0.1036  0.0213 -0.0228
  537loPI   C2A 8584  10.424  12.468   8.955  0.0651 -0.0234 -0.0535
  537loPI   C3A 8585  10.479  12.435   8.526 -0.2543 -0.0482  0.1736
  537loPI   C4A 8586  10.472  12.416   8.090 -0.1243  0.1530 -0.2950
  537loPI   C5A 8587  10.104  12.331   7.768  0.0538  0.0680 -0.0739
  537loPI   C6A 8588   9.872  12.607   7.468  0.0823  0.0316 -0.0524
  537loPI   C1B 8589  10.209  13.089   9.374 -0.0593 -0.0514  0.3131
  537loPI   C2B 8590  10.101  12.965   8.948 -0.1694  0.1298 -0.0791
  537loPI   C3B 8591  10.052  12.747   8.579  0.2632 -0.1336 -0.1011
  537loPI   C4B 8592  10.048  12.751   8.031 -0.5693  0.1866  0.0004
  538loPI    C1 8593   4.876  11.061   9.990 -0.0451  0.1404 -0.1804
  538loPI    C2 8594   5.244  11.195   9.910  0.1283 -0.1744  0.0640
  538loPI    C3 8595   5.071  11.284  10.259 -0.0206 -0.0464 -0.0410
  538loPI   PO4 8596   4.701  11.153   9.806 -0.1720  0.1460 -0.2714
  538loPI   GL1 8597   4.687  11.028   9.372  0.0534 -0.1173  0.0279
  538loPI   GL2 8598   4.964  10.894   9.454 -0.0260  0.0696  0.2228
  538loPI   C1A 8599   4.684  11.063   8.939  0.0046  0.0564 -0.3532
  538loPI   C2A 8600   4.639  10.976   8.497  0.0793  0.1986  0.0185
  538loPI   C3A 8601   4.752  11.180   8.052 -0.0471  0.2415 -0.1271
  538loPI   C4A 8602   4.899  11.257   7.677  0.1999  0.1234  0.2873
  538loPI   C5A 8603   5.190  11.339   7.441 -0.0568 -0.0890  0.2106
  538loPI   C6A 8604   5.581  11.306   7.274  0.2102 -0.1604  0.4064
  538loPI   C1B 8605   5.181  10.716   9.016 -0.0257 -0.0248 -0.0874
  538loPI   C2B 8606   5.218  10.912   8.691 -0.2241  0.0529  0.0838
  538loPI   C3B 8607   5.103  10.877   8.247  0.0445 -0.3017 -0.4806
  538loPI   C4B 8608   5.292  11.004   7.854  0.0576 -0.2279  0.2088
  539loPI    C1 8609   8.296   1.275  10.374  0.0500  0.2330 -0.1059
  539loPI    C2 8610   8.210   1.655  10.462 -0.1299  0.1865 -0.0772
  539loPI    C3 8611   8.510   1.469  10.650  0.1564  0.4062 -0.3067
  539loPI   PO4 8612   8.249   1.255  10.095 -0.1355 -0.1144 -0.1184
  539loPI   GL1 8613   8.000   1.396   9.742 -0.1568  0.2973  0.0984
  539loPI   GL2 8614   7.807   1.055   9.542  0.0801 -0.0288  0.1177
  539loPI   C1A 8615   8.096   1.671   9.279 -0.1755 -0.0834  0.0007
  539loPI   C2A 8616   8.083   1.531   8.868  0.1883 -0.0863 -0.0708
  539loPI   C3A 8617   7.966   1.785   8.472 -0.1852  0.1193 -0.2436
  539loPI   C4A 8618   7.787   1.546   8.166 -0.1425 -0.0413 -0.1219
  539loPI   C5A 8619   8.110   1.265   7.989 -0.1486  0.0054  0.0622
  539loPI   C6A 8620   8.357   1.140   7.681  0.0029  0.1431 -0.2849
  539loPI   C1B 8621   8.228   1.076   9.341 -0.0942 -0.2340  0.3007
  539loPI   C2B 8622   8.660   0.803   9.338 -0.0509  0.1462 -0.0473
  539loPI   C3B 8623   8.852   0.556   8.878 -0.2959 -0.0347  0.0362
  539loPI   C4B 8624   8.826   0.238   8.688 -0.1611  0.0032 -0.0896
  540loPI    C1 8625  10.347   4.805  10.540 -0.0111  0.0632  0.0781
  540loPI    C2 8626  10.407   4.998  10.885 -0.1202  0.1406  0.0541
  540loPI    C3 8627  10.710   4.806  10.708 -0.0211  0.2530  0.1005
  540loPI   PO4 8628  10.249   4.973  10.344 -0.3139 -0.2187 -0.0066
  540loPI   GL1 8629  10.185   4.986   9.866  0.0788 -0.2171  0.0422
  540loPI   GL2 8630   9.969   5.169   9.767 -0.1381  0.1836  0.2058
  540loPI   C1A 8631  10.265   4.879   9.436 -0.0716 -0.1003  0.1121
  540loPI   C2A 8632  10.262   4.990   9.053  0.0532 -0.1292  0.4960
  540loPI   C3A 8633  10.308   4.693   8.817 -0.2159  0.0167 -0.1357
  540loPI   C4A 8634  10.365   4.529   8.413  0.0975  0.0083  0.0110
  540loPI   C5A 8635  10.054   4.409   8.110  0.2167 -0.1577  0.0348
  540loPI   C6A 8636   9.733   4.181   7.920 -0.2015  0.0675 -0.1496
  540loPI   C1B 8637  10.243   5.356   9.389  0.2170 -0.3103  0.1057
  540loPI   C2B 8638  10.602   5.481   9.135  0.3400 -0.0111 -0.3372
  540loPI   C3B 8639  10.990   5.392   9.038  0.2304 -0.1165 -0.0380
  540loPI   C4B 8640  11.277   5.330   8.601 -0.1076  0.0997 -0.0417
  541POPI    C1 8641   0.664  14.080  10.220  0.2901 -0.2167  0.0060
  541POPI    C2 8642   0.352  13.845  10.132  0.0801  0.1263 -0.1871
  541POPI    C3 8643   0.541  13.804  10.483 -0.2211 -0.0437 -0.0408
  541POPI   PO4 8644   0.510  14.323   9.951  0.0323 -0.4011 -0.0758
  541POPI   GL1 8645   0.309  14.409   9.555 -0.0288  0.0945  0.4221
  541POPI   GL2 8646   0.522  14.613   9.525  0.1068  0.2697 -0.0132
  541POPI   C1A 8647   0.296  14.153   9.166  0.0025 -0.0723 -0.2383
  541POPI   D2A 8648   0.410  14.277   8.714  0.0752 -0.0443  0.1939
  541POPI   C3A 8649   0.227  14.737   8.655 -0.0101 -0.0857 -0.0597
  541POPI   C4A 8650   0.048  15.040   8.368 -0.0225 -0.1987 -0.1290
  541POPI   C1B 8651   0.563  14.648   9.112  0.1443 -0.1349 -0.0412
  541POPI   C2B 8652   0.791  14.622   8.687 -0.1625 -0.4325  0.1276
  541POPI   C3B 8653   0.749  14.770   8.265 -0.1993  0.2397 -0.0291
  541POPI   C4B 8654   0.432  15.148   8.098  0.2018 -0.0607 -0.1511
  542POPI    C1 8655  18.793  11.861   9.790 -0.1191 -0.1148 -0.1661
  542POPI    C2 8656  18.484  11.711   9.996 -0.0117 -0.1798 -0.0511
  542POPI    C3 8657  18.752  11.945  10.179 -0.0888  0.0210 -0.1920
  542POPI   PO4 8658  18.868  11.898   9.510 -0.1563  0.1305 -0.1084
  542POPI   GL1 8659  18.801  11.701   9.101  0.2690 -0.2893 -0.2306
  542POPI   GL2 8660  18.594  12.008   8.970 -0.1388  0.1399 -0.0762
  542POPI   C1A 8661  19.047  11.564   8.818  0.0494  0.4016  0.0583
  542POPI   D2A 8662  19.101  11.449   8.408  0.3683  0.0052  0.3588
  542POPI   C3A 8663  18.854  11.293   8.030 -0.1616  0.1124  0.0240
  542POPI   C4A 8664  18.709  11.392   7.641 -0.0309  0.1439  0.0708
  542POPI   C1B 8665  18.736  11.949   8.459 -0.1221 -0.1885 -0.0400
  542POPI   C2B 8666  18.827  11.843   8.075  0.2241  0.1164 -0.2295
  542POPI   C3B 8667  18.971  12.067   7.808  0.1911 -0.2574 -0.0923
  542POPI   C4B 8668  18.883  12.311   7.540 -0.0802  0.1123  0.1529
  543POPI    C1 8669  13.819  13.577  10.211  0.0394  0.0999 -0.0276
  543POPI    C2 8670  14.034  13.840  10.421  0.3038 -0.1299 -0.0040
  543POPI    C3 8671  14.013  13.459  10.540 -0.0507 -0.1299 -0.0544
  543POPI   PO4 8672  13.782  13.748   9.999  0.3405  0.0449 -0.1706
  543POPI   GL1 8673  13.952  13.866   9.659  0.0459 -0.1536  0.0938
  543POPI   GL2 8674  14.177  14.183   9.631 -0.1225 -0.2092  0.0012
  543POPI   C1A 8675  14.024  13.890   9.244  0.2705 -0.1095 -0.3320
  543POPI   D2A 8676  14.113  13.669   8.837  0.2575  0.0799  0.1986
  543POPI   C3A 8677  13.987  13.637   8.328  0.0058  0.1399 -0.1733
  543POPI   C4A 8678  14.214  13.726   7.878  0.0065  0.0673 -0.2161
  543POPI   C1B 8679  14.084  14.428   9.257  0.1887  0.0221 -0.0070
  543POPI   C2B 8680  14.110  14.273   8.784 -0.0271 -0.1498  0.0763
  543POPI   C3B 8681  14.159  14.182   8.340 -0.0817 -0.1235  0.2611
  543POPI   C4B 8682  14.022  14.168   7.873  0.0151 -0.2258 -0.1113
  544POPI    C1 8683   7.748  17.501   9.832 -0.1266  0.0169  0.1794
  544POPI    C2 8684   7.949  17.646  10.146  0.0588  0.0728  0.0370
  544POPI    C3 8685   7.644  17.393  10.203 -0.1249  0.3412  0.2772
  544POPI   PO4 8686   7.852  17.400   9.700 -0.0114 -0.4445  0.0115
  544POPI   GL1 8687   7.993  17.603   9.347 -0.1070  0.1255 -0.0168
  544POPI   GL2 8688   8.256  17.585   9.456  0.0289  0.2828  0.0136
  544POPI   C1A 8689   7.799  17.543   8.938 -0.1724  0.1528  0.0642
  544POPI   D2A 8690   7.821  17.471   8.535  0.0153 -0.3119 -0.0447
  544POPI   C3A 8691   8.136  17.615   8.189 -0.3329  0.1353  0.0760
  544POPI   C4A 8692   8.163  17.541   7.787  0.2050 -0.1548 -0.1467
  544POPI   C1B 8693   8.347  17.469   8.986  0.0926  0.0671 -0.0185
  544POPI   C2B 8694   8.382  17.401   8.608  0.0984  0.0059  0.1458
  544POPI   C3B 8695   8.410  17.041   8.230 -0.1122 -0.0325  0.6238
  544POPI   C4B 8696   8.392  17.090   7.745  0.1846 -0.1639 -0.2539
  545POPI    C1 8697  16.315   1.215   9.956 -0.2678  0.1087 -0.0851
  545POPI    C2 8698  16.012   0.977  10.062 -0.0936 -0.0697  0.0200
  545POPI    C3 8699  16.158   1.243  10.323 -0.1097 -0.0364 -0.0048
  545POPI   PO4 8700  16.408   1.031   9.773  0.1055 -0.0207  0.1362
  545POPI   GL1 8701  16.532   1.043   9.360  0.0384 -0.0631 -0.0285
  545POPI   GL2 8702  16.663   1.429   9.199 -0.4060 -0.0275  0.1880
  545POPI   C1A 8703  16.827   0.940   9.076 -0.1179 -0.0891  0.2572
  545POPI   D2A 8704  17.082   0.814   8.791 -0.1047 -0.0330 -0.1622
  545POPI   C3A 8705  16.938   0.487   8.576 -0.0689  0.0944 -0.0781
  545POPI   C4A 8706  16.832   0.120   8.480  0.0778  0.2055  0.0797
  545POPI   C1B 8707  16.595   1.343   8.736 -0.1831  0.1162 -0.1642
  545POPI   C2B 8708  16.590   1.018   8.444  0.2625 -0.1766 -0.0390
  545POPI   C3B 8709  16.407   0.587   8.244 -0.3261  0.1615 -0.1786
  545POPI   C4B 8710  16.271   0.464   7.911  0.0034  0.0029  0.0226
  546POPI    C1 8711   1.989  11.211   9.986  0.0444  0.0290  0.3734
  546POPI    C2 8712   1.648  11.015  10.060 -0.0170 -0.0778 -0.1544
  546POPI    C3 8713   1.690  11.395  10.178 -0.2991 -0.0792 -0.0434
  546POPI   PO4 8714   2.033  11.112   9.727  0.4794 -0.2047 -0.0488
  546POPI   GL1 8715   1.975  11.082   9.332 -0.2117  0.2377  0.0123
  546POPI   GL2 8716   2.034  10.799   9.286  0.4132  0.1969 -0.0905
  546POPI   C1A 8717   1.966  11.171   8.936  0.1289 -0.2141 -0.1236
  546POPI   D2A 8718   2.037  11.152   8.553 -0.0381 -0.3056  0.0404
  546POPI   C3A 8719   1.789  11.302   8.192 -0.2082 -0.2007  0.1271
  546POPI   C4A 8720   1.626  11.269   7.728 -0.2560  0.2411  0.0378
  546POPI   C1B 8721   2.437  10.869   8.997  0.0809  0.0370 -0.1044
  546POPI   C2B 8722   2.671  10.796   8.682  0.0513 -0.3735 -0.0295
  546POPI   C3B 8723   2.528  10.702   8.243 -0.0874 -0.2332  0.2338
  546POPI   C4B 8724   2.529  10.837   7.849  0.0147 -0.0780 -0.2910
  547POPI    C1 8725  12.584   8.541  10.251 -0.1278 -0.2050 -0.2161
  547POPI    C2 8726  12.446   8.760   9.946  0.0067  0.1908 -0.0011
  547POPI    C3 8727  12.241   8.742  10.289 -0.0463 -0.0957 -0.0447
  547POPI   PO4 8728  12.867   8.446  10.136  0.0949  0.0857  0.0481
  547POPI   GL1 8729  13.043   8.489   9.712  0.4586  0.1021 -0.2799
  547POPI   GL2 8730  12.795   8.545   9.389 -0.0225  0.0965  0.1251
  547POPI   C1A 8731  13.488   8.605   9.566 -0.1226  0.3715  0.0970
  547POPI   D2A 8732  13.742   8.592   9.125  0.2033  0.2544  0.0117
  547POPI   C3A 8733  13.556   8.545   8.798  0.0453  0.1913 -0.0099
  547POPI   C4A 8734  13.476   8.628   8.320 -0.2371 -0.0842 -0.0079
  547POPI   C1B 8735  12.591   8.341   9.156  0.0904  0.3062 -0.0578
  547POPI   C2B 8736  12.394   8.304   8.846 -0.0343 -0.4169  0.3511
  547POPI   C3B 8737  12.034   8.167   8.603  0.2689  0.4620 -0.3186
  547POPI   C4B 8738  12.030   7.986   8.173  0.0981  0.0277 -0.0248
  548POPI    C1 8739   6.799  10.203  10.292 -0.2695  0.1639  0.0920
  548POPI    C2 8740   7.121  10.391  10.438 -0.0765 -0.1317  0.0566
  548POPI    C3 8741   6.966  10.079  10.634 -0.0238 -0.3162 -0.1919
  548POPI   PO4 8742   6.878  10.182  10.016  0.0304 -0.0619 -0.0738
  548POPI   GL1 8743   6.695   9.970   9.667 -0.3293 -0.1099  0.2532
  548POPI   GL2 8744   6.618  10.287   9.629  0.1000 -0.1300  0.0714
  548POPI   C1A 8745   6.917   9.875   9.268  0.3528  0.1778  0.0160
  548POPI   D2A 8746   6.956   9.950   8.890  0.1496 -0.4196 -0.2571
  548POPI   C3A 8747   7.054   9.710   8.510  0.0011 -0.0517 -0.0938
  548POPI   C4A 8748   7.122   9.376   8.201 -0.1835 -0.3345 -0.1503
  548POPI   C1B 8749   6.673  10.357   9.334 -0.1234  0.0839 -0.1772
  548POPI   C2B 8750   6.675  10.647   8.924 -0.2397 -0.0876 -0.1709
  548POPI   C3B 8751   6.720  10.910   8.511  0.4863 -0.0342 -0.2307
  548POPI   C4B 8752   6.920  11.311   8.272 -0.1463  0.0992  0.0256
  549POPI    C1 8753  18.232   3.946   9.885 -0.0256 -0.0197 -0.0346
  549POPI    C2 8754  18.400   3.584   9.904 -0.1030 -0.0485  0.1290
  549POPI    C3 8755  18.454   3.845  10.202 -0.4645 -0.1110  0.2537
  549POPI   PO4 8756  17.928   3.805   9.779 -0.0310 -0.0190  0.5947
  549POPI   GL1 8757  17.757   3.964   9.446 -0.0940  0.0277  0.1534
  549POPI   GL2 8758  18.130   3.757   9.319 -0.3528  0.0687 -0.1318
  549POPI   C1A 8759  17.589   3.696   9.165 -0.1092 -0.0119  0.1515
  549POPI   D2A 8760  17.566   3.522   8.748  0.0748 -0.1357 -0.0558
  549POPI   C3A 8761  17.483   3.362   8.362  0.0563 -0.0353 -0.1107
  549POPI   C4A 8762  17.436   3.096   8.083  0.1819  0.1225 -0.3797
  549POPI   C1B 8763  18.250   3.842   8.932  0.1091 -0.0449 -0.1092
  549POPI   C2B 8764  18.009   4.063   8.592  0.0078 -0.1225  0.1533
  549POPI   C3B 8765  17.593   3.981   8.427  0.1594 -0.3985 -0.2370
  549POPI   C4B 8766  17.187   4.133   8.440  0.1105  0.0366  0.1583
  550POPI    C1 8767  14.575   3.692  10.281 -0.1241  0.0009  0.0787
  550POPI    C2 8768  14.213   3.789  10.420 -0.0861  0.3305 -0.0450
  550POPI    C3 8769  14.478   3.610  10.660 -0.2713  0.2404  0.0943
  550POPI   PO4 8770  14.622   3.814  10.077  0.2979 -0.3310  0.0069
  550POPI   GL1 8771  14.758   4.052   9.848  0.2731  0.0354 -0.2415
  550POPI   GL2 8772  14.679   4.409   9.849  0.1359 -0.4336  0.2058
  550POPI   C1A 8773  14.712   4.041   9.456  0.1107 -0.1919  0.1823
  550POPI   D2A 8774  14.639   4.092   8.989  0.2470  0.1579 -0.1978
  550POPI   C3A 8775  14.858   3.858   8.685  0.0409  0.1195  0.0160
  550POPI   C4A 8776  14.845   3.770   8.199 -0.2625  0.2144 -0.0427
  550POPI   C1B 8777  14.599   4.532   9.470  0.2077  0.0197  0.2245
  550POPI   C2B 8778  14.631   4.664   9.039 -0.1993 -0.0884  0.0564
  550POPI   C3B 8779  14.621   4.483   8.610 -0.0492 -0.2647  0.0582
  550POPI   C4B 8780  14.583   4.470   8.125  0.0376  0.0315  0.0503
  551POPI    C1 8781  18.728  10.942   9.758  0.2169  0.0733 -0.1843
  551POPI    C2 8782  18.821  11.299   9.912  0.0103  0.0713 -0.0504
  551POPI    C3 8783  18.708  11.000  10.153  0.1266 -0.0686 -0.1673
  551POPI   PO4 8784  18.583  10.966   9.579 -0.2081 -0.2937 -0.2192
  551POPI   GL1 8785  18.493  11.178   9.158 -0.2543  0.0303 -0.2293
  551POPI   GL2 8786  18.513  10.881   9.082 -0.0320  0.2203  0.0532
  551POPI   C1A 8787  18.524  11.474   8.776  0.1471 -0.1285  0.1326
  551POPI   D2A 8788  18.477  11.385   8.336 -0.2884 -0.1902  0.2653
  551POPI   C3A 8789  18.409  11.658   7.968  0.3507 -0.0291  0.2963
  551POPI   C4A 8790  18.394  12.073   7.733  0.5478  0.1871 -0.2690
  551POPI   C1B 8791  18.603  10.623   8.644 -0.0379  0.0196  0.1197
  551POPI   C2B 8792  18.460  10.464   8.247 -0.0945 -0.1813 -0.2916
  551POPI   C3B 8793  18.703  10.348   7.998  0.1301 -0.2650  0.1167
  551POPI   C4B 8794  18.675  10.522   7.494 -0.1496 -0.1509 -0.0405
  552POPI    C1 8795  15.741  13.034  10.215 -0.0993 -0.0096 -0.2156
  552POPI    C2 8796  15.786  13.401  10.061  0.0447 -0.0004 -0.1534
  552POPI    C3 8797  15.894  13.328  10.439  0.0936 -0.1271 -0.1913
  552POPI   PO4 8798  15.615  12.945   9.987  0.2472  0.1816 -0.1512
  552POPI   GL1 8799  15.537  13.111   9.578 -0.0819 -0.0439 -0.0696
  552POPI   GL2 8800  15.642  13.401   9.569 -0.0240  0.4510  0.1875
  552POPI   C1A 8801  15.931  13.050   9.255 -0.0535 -0.1618 -0.2440
  552POPI   D2A 8802  16.097  13.131   8.903 -0.0463 -0.0677  0.4722
  552POPI   C3A 8803  16.172  12.978   8.556  0.3269 -0.1522 -0.0410
  552POPI   C4A 8804  16.323  12.857   8.265 -0.0496  0.3250  0.0882
  552POPI   C1B 8805  16.098  13.668   9.542  0.0657  0.1262 -0.0003
  552POPI   C2B 8806  16.452  13.908   9.386  0.0348  0.0617 -0.2471
  552POPI   C3B 8807  16.735  13.883   9.028  0.2010 -0.0629 -0.1434
  552POPI   C4B 8808  16.882  14.044   8.648 -0.1241 -0.3345  0.1543
  553POPI    C1 8809  15.164  13.218  10.163 -0.4116  0.1721 -0.0982
  553POPI    C2 8810  15.367  13.325  10.491 -0.2021 -0.1023 -0.1350
  553POPI    C3 8811  14.974  13.254  10.513 -0.1768 -0.1873  0.0729
  553POPI   PO4 8812  15.265  13.344   9.921 -0.0744 -0.3145 -0.1381
  553POPI   GL1 8813  15.244  13.645   9.629  0.2552  0.1287 -0.0223
  553POPI   GL2 8814  15.124  13.371   9.483  0.2467 -0.0038 -0.0299
  553POPI   C1A 8815  15.166  13.849   9.279  0.1326 -0.0537  0.3314
  553POPI   D2A 8816  15.264  13.810   8.720 -0.2082  0.0309 -0.1585
  553POPI   C3A 8817  15.629  13.673   8.568 -0.5179  0.0717  0.0869
  553POPI   C4A 8818  16.021  13.487   8.476 -0.3657  0.1090 -0.0092
  553POPI   C1B 8819  15.107  13.417   8.972 -0.0273  0.2898 -0.1381
  553POPI   C2B 8820  15.257  13.327   8.587 -0.1111  0.1988  0.3059
  553POPI   C3B 8821  15.037  13.167   8.275 -0.0349 -0.1462 -0.1994
  553POPI   C4B 8822  15.112  13.187   7.792  0.1930 -0.1084  0.2097
  554POPI    C1 8823   7.547  15.171  10.086 -0.0451  0.0306 -0.1832
  554POPI    C2 8824   7.894  14.981  10.034 -0.0316  0.0459 -0.1498
  554POPI    C3 8825   7.888  15.340  10.209 -0.0715  0.0152 -0.0879
  554POPI   PO4 8826   7.366  15.101   9.872 -0.1743 -0.2664  0.1813
  554POPI   GL1 8827   7.365  14.714   9.669  0.0402  0.3265 -0.0122
  554POPI   GL2 8828   7.022  14.881   9.630 -0.0559  0.0125 -0.2902
  554POPI   C1A 8829   7.563  14.800   9.259  0.3368  0.0794 -0.1198
  554POPI   D2A 8830   7.695  14.867   8.836  0.3333 -0.1884  0.1347
  554POPI   C3A 8831   7.420  14.848   8.551  0.1502  0.0495  0.3211
  554POPI   C4A 8832   7.329  14.745   8.157 -0.1898 -0.1678  0.1510
  554POPI   C1B 8833   7.105  14.954   9.159  0.1149  0.0614  0.0773
  554POPI   C2B 8834   6.957  14.853   8.800 -0.0144 -0.0484 -0.1904
  554POPI   C3B 8835   6.927  14.794   8.403  0.1702 -0.1067 -0.0587
  554POPI   C4B 8836   6.847  14.472   8.147  0.2979  0.1293 -0.0252
  555POPI    C1 8837  18.361   5.774  10.429 -0.1152  0.0708  0.0243
  555POPI    C2 8838  18.516   6.057  10.665 -0.2814  0.2172 -0.0394
  555POPI    C3 8839  18.188   5.859  10.779 -0.1456  0.0243  0.0205
  555POPI   PO4 8840  18.527   5.771  10.188  0.0073 -0.1081  0.0780
  555POPI   GL1 8841  18.428   5.892   9.811 -0.2103  0.0195  0.1016
  555POPI   GL2 8842  18.492   6.203   9.801 -0.1595  0.1495  0.0252
  555POPI   C1A 8843  18.425   5.905   9.345 -0.3787 -0.0211  0.0443
  555POPI   D2A 8844  18.335   5.675   9.030  0.1888  0.0075  0.1428
  555POPI   C3A 8845  18.234   5.696   8.629  0.0630 -0.0837 -0.0915
  555POPI   C4A 8846  18.031   5.858   8.271  0.1604  0.3037  0.2989
  555POPI   C1B 8847  18.225   6.303   9.390 -0.0617 -0.1467  0.1972
  555POPI   C2B 8848  18.192   6.220   9.013 -0.3821  0.1729  0.1963
  555POPI   C3B 8849  18.154   6.254   8.584 -0.1323  0.1778 -0.0562
  555POPI   C4B 8850  18.085   6.430   8.176  0.1635 -0.0379  0.2892
  556POPI    C1 8851  17.176   9.774   9.839  0.1287  0.1459 -0.2590
  556POPI    C2 8852  17.473   9.617  10.055 -0.1311 -0.0051 -0.0050
  556POPI    C3 8853  17.298   9.956  10.174 -0.1377  0.0224 -0.0923
  556POPI   PO4 8854  17.266   9.691   9.608 -0.2033  0.0359 -0.0148
  556POPI   GL1 8855  17.415   9.577   9.239  0.1540  0.1276 -0.0540
  556POPI   GL2 8856  17.057   9.731   9.122  0.0918 -0.1789  0.1642
  556POPI   C1A 8857  17.715   9.701   8.941  0.3183 -0.0978 -0.0108
  556POPI   D2A 8858  17.718   9.983   8.528  0.0569  0.4361 -0.1642
  556POPI   C3A 8859  18.041  10.165   8.199  0.1743  0.1557 -0.1701
  556POPI   C4A 8860  18.350   9.946   7.898 -0.1209 -0.0150 -0.0999
  556POPI   C1B 8861  16.828  10.096   8.859 -0.0920  0.0436  0.0407
  556POPI   C2B 8862  16.780  10.090   8.440  0.0632  0.1978  0.2659
  556POPI   C3B 8863  16.968   9.924   7.987  0.1626  0.1860  0.1194
  556POPI   C4B 8864  17.346   9.636   7.828  0.1623  0.0333  0.4157
  557POPI    C1 8865  17.591   6.282  10.174 -0.1347 -0.0540 -0.0018
  557POPI    C2 8866  17.503   5.893  10.196 -0.2605 -0.0174  0.1596
  557POPI    C3 8867  17.825   6.036  10.385 -0.0453 -0.0919 -0.1436
  557POPI   PO4 8868  17.454   6.400   9.849 -0.0871  0.0522 -0.0199
  557POPI   GL1 8869  17.259   6.306   9.387  0.1585  0.1180 -0.2702
  557POPI   GL2 8870  17.233   5.943   9.331 -0.0613  0.2789  0.2610
  557POPI   C1A 8871  17.302   6.269   8.984  0.3746 -0.0919  0.1574
  557POPI   D2A 8872  17.176   6.415   8.582  0.2078 -0.0872  0.1697
  557POPI   C3A 8873  17.017   6.386   8.200  0.0322 -0.2205 -0.1449
  557POPI   C4A 8874  16.893   6.608   7.817  0.0557  0.2480  0.2175
  557POPI   C1B 8875  17.232   5.761   8.915  0.0457 -0.2133 -0.0932
  557POPI   C2B 8876  17.279   5.901   8.497 -0.0695  0.1809  0.0210
  557POPI   C3B 8877  17.219   5.934   8.109 -0.1602  0.0893 -0.2660
  557POPI   C4B 8878  16.896   5.746   7.812 -0.1074  0.0121 -0.1794
  558POPI    C1 8879   8.272  10.992  10.463 -0.0603 -0.2957  0.0608
  558POPI    C2 8880   8.047  10.836  10.755 -0.1697 -0.0223  0.1250
  558POPI    C3 8881   8.432  10.921  10.823 -0.1294 -0.1918  0.1124
  558POPI   PO4 8882   8.176  10.835  10.191  0.3958 -0.2950 -0.0459
  558POPI   GL1 8883   8.122  10.931   9.800 -0.0660  0.1335  0.4027
  558POPI   GL2 8884   7.826  10.982   9.792  0.0759  0.3463  0.0258
  558POPI   C1A 8885   8.252  10.715   9.362 -0.1285  0.1678  0.0767
  558POPI   D2A 8886   8.196  10.698   8.923  0.3789 -0.0919  0.3114
  558POPI   C3A 8887   8.312  10.436   8.554 -0.3299  0.1838  0.0437
  558POPI   C4A 8888   8.541  10.380   8.175 -0.1582 -0.1554  0.0547
  558POPI   C1B 8889   7.731  11.027   9.424  0.0111  0.1440 -0.2122
  558POPI   C2B 8890   7.822  10.972   9.075  0.1571  0.0597 -0.0622
  558POPI   C3B 8891   7.878  11.001   8.645  0.1717  0.3270  0.0735
  558POPI   C4B 8892   7.940  10.832   8.223  0.0279 -0.0374 -0.4969
  559POPI    C1 8893  18.587   1.066   9.953  0.0385  0.0867  0.0043
  559POPI    C2 8894  18.535   1.200  10.326  0.2238  0.0158  0.0569
  559POPI    C3 8895  18.310   0.899  10.188  0.0912  0.1040  0.0792
  559POPI   PO4 8896  18.780   1.060   9.899 -0.1643  0.1035  0.1758
  559POPI   GL1 8897  18.887   1.061   9.531  0.0933  0.1344 -0.0566
  559POPI   GL2 8898  19.054   0.712   9.688 -0.0189  0.2207  0.0084
  559POPI   C1A 8899  19.016   0.911   9.078 -0.0733 -0.0262  0.0431
  559POPI   D2A 8900  19.416   0.808   8.912  0.2746 -0.4231  0.3741
  559POPI   C3A 8901  19.417   0.726   8.520  0.0439 -0.1130 -0.0456
  559POPI   C4A 8902  19.276   0.299   8.345  0.2943 -0.0742  0.1789
  559POPI   C1B 8903  18.892   0.536   9.367 -0.1833 -0.1981 -0.0985
  559POPI   C2B 8904  18.919   0.295   9.099 -0.0269  0.0605  0.3603
  559POPI   C3B 8905  19.027   0.459   8.776  0.2580  0.1420  0.0630
  559POPI   C4B 8906  18.846   0.577   8.322 -0.0424  0.0869 -0.0958
  560POPI    C1 8907   2.921  13.833   9.951  0.1191  0.0741 -0.1654
  560POPI    C2 8908   2.587  13.621  10.004  0.2926 -0.1853 -0.0893
  560POPI    C3 8909   2.590  14.012  10.086  0.0304 -0.1960 -0.0172
  560POPI   PO4 8910   3.127  13.603   9.931  0.2570  0.0790  0.0273
  560POPI   GL1 8911   3.247  13.494   9.507 -0.0974 -0.0339  0.1132
  560POPI   GL2 8912   3.291  13.763   9.352  0.1589 -0.0713 -0.1075
  560POPI   C1A 8913   3.138  13.325   9.126 -0.3124  0.0761 -0.0811
  560POPI   D2A 8914   3.270  13.364   8.714 -0.2829  0.1325  0.2500
  560POPI   C3A 8915   3.215  13.236   8.340 -0.2261  0.0668 -0.0231
  560POPI   C4A 8916   3.184  13.243   7.913 -0.0725 -0.4594 -0.1058
  560POPI   C1B 8917   3.031  13.815   9.008  0.1831 -0.0286  0.2827
  560POPI   C2B 8918   3.018  13.758   8.612 -0.1007  0.3489  0.0644
  560POPI   C3B 8919   2.954  13.922   8.244  0.0579 -0.3225 -0.1214
  560POPI   C4B 8920   2.991  13.871   7.886 -0.0841 -0.1088 -0.0955
  561POPI    C1 8921   8.355  15.322   9.960 -0.2334  0.0478  0.0593
  561POPI    C2 8922   8.524  15.292  10.321 -0.1589 -0.0281  0.0186
  561POPI    C3 8923   8.330  15.626  10.218 -0.0566  0.0498  0.0756
  561POPI   PO4 8924   8.519  15.099   9.776  0.0711 -0.0027 -0.4019
  561POPI   GL1 8925   8.902  15.158   9.547  0.0597  0.2356 -0.1862
  561POPI   GL2 8926   8.806  15.423   9.579 -0.2065 -0.1078  0.2279
  561POPI   C1A 8927   9.005  14.839   9.144 -0.2129 -0.2452 -0.0542
  561POPI   D2A 8928   9.253  14.652   8.799 -0.0814  0.0835 -0.0127
  561POPI   C3A 8929   9.142  14.714   8.377 -0.1302  0.0314 -0.2382
  561POPI   C4A 8930   9.060  14.810   7.960  0.1447  0.0024  0.4708
  561POPI   C1B 8931   8.928  15.419   9.095  0.0200  0.1356  0.1947
  561POPI   C2B 8932   9.039  15.117   8.683 -0.1583 -0.0304  0.1564
  561POPI   C3B 8933   9.089  15.234   8.242 -0.0367  0.1736 -0.0967
  561POPI   C4B 8934   9.092  15.294   7.727  0.0158 -0.3164  0.0095
  562POPI    C1 8935   6.620  16.854   9.966 -0.0379 -0.0374 -0.1012
  562POPI    C2 8936   6.239  16.814   9.853 -0.1005  0.1591  0.0359
  562POPI    C3 8937   6.353  16.696  10.218  0.0510 -0.2497 -0.1375
  562POPI   PO4 8938   6.711  17.050   9.910  0.3315  0.0772 -0.1391
  562POPI   GL1 8939   6.885  17.208   9.549 -0.4095 -0.0486  0.0168
  562POPI   GL2 8940   6.935  16.858   9.468  0.2245 -0.0700  0.0576
  562POPI   C1A 8941   6.984  17.388   9.109  0.0033  0.0950 -0.4246
  562POPI   D2A 8942   7.002  17.421   8.728 -0.2763  0.0437 -0.0264
  562POPI   C3A 8943   6.689  17.500   8.504  0.1256  0.3371  0.2220
  562POPI   C4A 8944   6.605  17.351   8.057 -0.0568 -0.0204  0.0630
  562POPI   C1B 8945   6.893  16.760   8.982  0.1951  0.2057  0.2145
  562POPI   C2B 8946   6.817  16.977   8.510 -0.0941 -0.1775  0.0908
  562POPI   C3B 8947   6.895  16.882   8.081  0.1432 -0.1515  0.1081
  562POPI   C4B 8948   6.998  16.849   7.641 -0.2134  0.0931  0.0547
  563POPI    C1 8949   5.015   8.670   9.624 -0.0904  0.2140 -0.0303
  563POPI    C2 8950   4.931   8.523   9.987 -0.0923  0.1373 -0.0615
  563POPI    C3 8951   4.644   8.549   9.710 -0.0614  0.0726 -0.1000
  563POPI   PO4 8952   5.258   8.473   9.517  0.3871 -0.0820 -0.2081
  563POPI   GL1 8953   5.564   8.560   9.324  0.0645 -0.0235 -0.0051
  563POPI   GL2 8954   5.582   8.860   9.429 -0.1709  0.1954 -0.1751
  563POPI   C1A 8955   5.535   8.750   8.930 -0.4314  0.0374 -0.0753
  563POPI   D2A 8956   5.623   8.928   8.518  0.1980 -0.2057 -0.0163
  563POPI   C3A 8957   5.600   8.969   8.059  0.0720 -0.4120 -0.1614
  563POPI   C4A 8958   5.737   9.097   7.642 -0.3080 -0.2790 -0.1282
  563POPI   C1B 8959   5.970   9.051   9.159 -0.0777 -0.0976 -0.3506
  563POPI   C2B 8960   6.095   8.940   8.714 -0.2178 -0.2582  0.1528
  563POPI   C3B 8961   6.115   9.050   8.290  0.1229 -0.1379  0.1969
  563POPI   C4B 8962   5.985   9.364   8.001  0.0274  0.0275  0.1115
  564POPI    C1 8963  12.674   9.765  10.120 -0.2230  0.0723 -0.0544
  564POPI    C2 8964  12.898   9.822  10.446 -0.0130 -0.0141 -0.1814
  564POPI    C3 8965  12.644   9.514  10.429 -0.0185 -0.0141 -0.1035
  564POPI   PO4 8966  12.679   9.989  10.008  0.1379 -0.1702 -0.1688
  564POPI   GL1 8967  12.611  10.047   9.659 -0.2534 -0.0696 -0.3007
  564POPI   GL2 8968  12.340  10.197   9.616  0.3822 -0.0317 -0.0137
  564POPI   C1A 8969  12.661   9.888   9.251  0.1526  0.1084  0.2412
  564POPI   D2A 8970  12.961   9.830   8.902  0.0732  0.1782  0.0958
  564POPI   C3A 8971  12.802   9.964   8.552 -0.0334  0.1065 -0.3292
  564POPI   C4A 8972  12.858  10.226   8.125  0.1905 -0.1055 -0.1657
  564POPI   C1B 8973  12.180   9.995   9.238  0.2494 -0.1245  0.0122
  564POPI   C2B 8974  12.291   9.820   8.808  0.0836 -0.0499 -0.1646
  564POPI   C3B 8975  12.257   9.778   8.441 -0.1438 -0.1379  0.3016
  564POPI   C4B 8976  12.495   9.875   8.104  0.1907 -0.1146 -0.0126
  565POPI    C1 8977   0.689   1.042  10.282 -0.1743 -0.0667 -0.0610
  565POPI    C2 8978   0.927   0.978  10.597  0.0702  0.1307 -0.2025
  565POPI    C3 8979   0.554   1.112  10.652  0.0294 -0.0649  0.0140
  565POPI   PO4 8980   0.781   0.769  10.066 -0.1680  0.0105  0.0747
  565POPI   GL1 8981   0.794   0.562   9.753  0.0996 -0.5528  0.3669
  565POPI   GL2 8982   0.844   0.272   9.669  0.3126  0.0738 -0.0477
  565POPI   C1A 8983   0.522   0.407   9.291 -0.3505  0.2062  0.0648
  565POPI   D2A 8984   0.567   0.260   8.871 -0.3874  0.0661  0.0658
  565POPI   C3A 8985   0.886   0.305   8.648  0.0835  0.1892 -0.3762
  565POPI   C4A 8986   1.037   0.061   8.382  0.2511  0.4021  0.3454
  565POPI   C1B 8987   0.827   0.014   9.314 -0.1189  0.1218 -0.0778
  565POPI   C2B 8988   0.966  -0.173   8.976  0.1939  0.1531  0.0492
  565POPI   C3B 8989   1.023  -0.415   8.626 -0.1569 -0.1197  0.0908
  565POPI   C4B 8990   0.887  -0.423   8.208 -0.2077 -0.0642 -0.2061
  566POPI    C1 8991   9.689  14.121  10.320 -0.0828 -0.1126 -0.0154
  566POPI    C2 8992   9.553  14.449  10.504 -0.2228 -0.1101 -0.1224
  566POPI    C3 8993   9.828  14.220  10.682 -0.0107  0.1482 -0.1122
  566POPI   PO4 8994   9.741  14.126   9.997 -0.0439 -0.1664 -0.1480
  566POPI   GL1 8995   9.457  14.018   9.692 -0.0116  0.1542  0.0334
  566POPI   GL2 8996   9.346  13.753   9.606 -0.0370  0.2208 -0.0494
  566POPI   C1A 8997   9.554  14.335   9.437 -0.2260  0.0420  0.0450
  566POPI   D2A 8998   9.663  14.388   9.029  0.2477 -0.1766  0.0110
  566POPI   C3A 8999   9.747  14.301   8.666  0.0891 -0.0200 -0.0889
  566POPI   C4A 9000   9.565  14.377   8.274 -0.1415  0.2089  0.2935
  566POPI   C1B 9001   9.513  13.841   9.251  0.1008  0.3827  0.2211
  566POPI   C2B 9002   9.779  13.875   8.953 -0.1408 -0.1322 -0.1090
  566POPI   C3B 9003  10.268  13.713   8.761 -0.0007  0.1570  0.0196
  566POPI   C4B 9004  10.596  13.530   8.583 -0.0113  0.1206  0.1590
  567POPI    C1 9005  18.285  13.525  10.304  0.1251 -0.1878 -0.1189
  567POPI    C2 9006  18.369  13.174  10.476 -0.0021 -0.2754 -0.2339
  567POPI    C3 9007  18.125  13.433  10.658  0.1916 -0.1922 -0.0898
  567POPI   PO4 9008  18.317  13.478  10.090  0.2301 -0.0139 -0.2328
  567POPI   GL1 9009  18.382  13.586   9.729 -0.1646 -0.0082  0.1684
  567POPI   GL2 9010  18.326  13.324   9.545 -0.0604 -0.1052 -0.1859
  567POPI   C1A 9011  18.506  13.859   9.322  0.0470 -0.0508  0.1125
  567POPI   D2A 9012  18.479  13.815   8.857  0.3330 -0.0667  0.1466
  567POPI   C3A 9013  18.630  13.887   8.460 -0.2798 -0.3796 -0.1684
  567POPI   C4A 9014  18.454  14.058   8.028  0.0255 -0.2053 -0.1359
  567POPI   C1B 9015  18.099  13.416   9.219 -0.0641 -0.1587  0.1699
  567POPI   C2B 9016  18.018  13.558   8.853  0.1953  0.1564  0.0868
  567POPI   C3B 9017  18.247  13.541   8.489  0.1691  0.1767  0.0908
  567POPI   C4B 9018  18.133  13.520   8.118 -0.0528 -0.1331 -0.0320
  568POPI    C1 9019   8.382  10.221  10.195  0.0358  0.2019 -0.1357
  568POPI    C2 9020   8.663  10.157  10.473 -0.0015 -0.0327 -0.1502
  568POPI    C3 9021   8.446  10.493  10.482  0.0592  0.0025  0.0506
  568POPI   PO4 9022   8.318  10.004  10.176 -0.0312 -0.1842 -0.0961
  568POPI   GL1 9023   8.143   9.850   9.860 -0.0587 -0.1726  0.0914
  568POPI   GL2 9024   8.497   9.681   9.791 -0.0390  0.1480 -0.3050
  568POPI   C1A 9025   7.817   9.664   9.557  0.2193 -0.1457  0.1976
  568POPI   D2A 9026   7.951   9.773   9.144  0.1209  0.1625  0.0114
  568POPI   C3A 9027   7.949   9.642   8.835 -0.3180  0.2550  0.3071
  568POPI   C4A 9028   7.866   9.768   8.411 -0.0752  0.2599 -0.2148
  568POPI   C1B 9029   8.429   9.836   9.327  0.3171  0.1492 -0.2112
  568POPI   C2B 9030   8.417  10.064   8.943  0.0350 -0.2230  0.1453
  568POPI   C3B 9031   8.527   9.912   8.514  0.0776  0.0168 -0.0065
  568POPI   C4B 9032   8.337   9.910   8.157  0.2962 -0.1609  0.4124
  569POPI    C1 9033   7.209  16.769   9.848  0.2186 -0.1368  0.1359
  569POPI    C2 9034   7.045  16.727  10.210 -0.2113 -0.0249 -0.0397
  569POPI    C3 9035   7.183  17.084  10.092  0.0312 -0.0860  0.0514
  569POPI   PO4 9036   7.458  16.489   9.752 -0.0901 -0.1027 -0.0324
  569POPI   GL1 9037   7.287  16.406   9.451  0.4775 -0.3813 -0.1746
  569POPI   GL2 9038   7.369  16.695   9.213  0.2536 -0.0638 -0.2621
  569POPI   C1A 9039   7.574  16.217   9.160  0.0305 -0.0911 -0.1161
  569POPI   D2A 9040   7.770  16.186   8.782 -0.0186  0.1879 -0.1424
  569POPI   C3A 9041   7.829  16.197   8.399  0.1791  0.1724 -0.0314
  569POPI   C4A 9042   7.582  16.174   8.109 -0.1081 -0.0952 -0.2007
  569POPI   C1B 9043   7.291  16.537   8.872 -0.0324 -0.2022  0.3661
  569POPI   C2B 9044   7.413  16.425   8.511 -0.2101 -0.2746  0.4037
  569POPI   C3B 9045   7.261  16.567   8.122 -0.1259  0.1222  0.2343
  569POPI   C4B 9046   7.330  16.373   7.779 -0.2308 -0.1599  0.0903
  570POPI    C1 9047   5.276  11.818  10.259 -0.0641  0.0379  0.0521
  570POPI    C2 9048   4.886  11.833  10.345 -0.0806  0.0956 -0.0313
  570POPI    C3 9049   5.135  11.626  10.580 -0.1529  0.1027  0.0522
  570POPI   PO4 9050   5.311  11.735  10.047  0.1566 -0.0914 -0.0000
  570POPI   GL1 9051   5.117  11.741   9.563  0.4010  0.0762 -0.1944
  570POPI   GL2 9052   5.047  11.434   9.501 -0.0079  0.0182 -0.1863
  570POPI   C1A 9053   5.187  12.213   9.376 -0.4472  0.1798  0.0937
  570POPI   D2A 9054   5.291  12.396   9.002  0.2046  0.2022 -0.1664
  570POPI   C3A 9055   5.244  12.264   8.666 -0.0470  0.0718 -0.0208
  570POPI   C4A 9056   5.219  12.053   8.285 -0.0274  0.0071  0.1040
  570POPI   C1B 9057   5.241  11.339   9.097 -0.1339  0.0818 -0.0011
  570POPI   C2B 9058   5.533  11.406   8.754  0.3492  0.1079 -0.1656
  570POPI   C3B 9059   5.889  11.470   8.574 -0.1387 -0.2293 -0.0337
  570POPI   C4B 9060   6.132  11.722   8.270  0.0001  0.0513 -0.0098
  571POPI    C1 9061  12.239   7.483  10.148  0.1460  0.1514  0.0297
  571POPI    C2 9062  11.929   7.560  10.389  0.1168  0.0903  0.0118
  571POPI    C3 9063  12.002   7.798  10.076  0.1021  0.1184  0.0296
  571POPI   PO4 9064  12.168   7.260  10.046  0.0223  0.1111 -0.0315
  571POPI   GL1 9065  12.130   7.206   9.641 -0.0323  0.0953 -0.1760
  571POPI   GL2 9066  12.381   6.982   9.716  0.0782  0.3600 -0.1296
  571POPI   C1A 9067  12.069   7.472   9.236  0.0468  0.1105  0.0819
  571POPI   D2A 9068  11.824   7.139   8.961  0.2594  0.0362 -0.0815
  571POPI   C3A 9069  11.783   7.159   8.567  0.0059  0.4678  0.0357
  571POPI   C4A 9070  11.560   7.118   8.312 -0.0514 -0.1261 -0.0769
  571POPI   C1B 9071  12.234   6.971   9.225 -0.0983  0.1286  0.0886
  571POPI   C2B 9072  12.302   7.047   8.833  0.1078 -0.1120 -0.2132
  571POPI   C3B 9073  12.315   7.041   8.441  0.1448  0.0956  0.0927
  571POPI   C4B 9074  12.434   6.929   8.152 -0.1697  0.1979 -0.1371
  572POPI    C1 9075  17.968   9.685   9.943  0.0665  0.1400  0.0047
  572POPI    C2 9076  18.209   9.452  10.163  0.1207  0.1044 -0.0913
  572POPI    C3 9077  17.891   9.627  10.332  0.0862 -0.0293 -0.0156
  572POPI   PO4 9078  18.109   9.668   9.672 -0.0596 -0.2108  0.1985
  572POPI   GL1 9079  18.108   9.797   9.249  0.3086  0.2417  0.1759
  572POPI   GL2 9080  18.035  10.107   9.137 -0.0979 -0.0663 -0.0673
  572POPI   C1A 9081  18.189   9.795   8.778  0.1313  0.2699 -0.3763
  572POPI   D2A 9082  18.428  10.026   8.479 -0.1217 -0.1988  0.2393
  572POPI   C3A 9083  18.823  10.100   8.641 -0.4026  0.2053 -0.0218
  572POPI   C4A 9084  19.101  10.162   9.019 -0.1733  0.1184  0.1826
  572POPI   C1B 9085  17.670  10.286   8.969  0.0230  0.1477 -0.0296
  572POPI   C2B 9086  17.317  10.153   9.070  0.0857  0.2246  0.0240
  572POPI   C3B 9087  16.918  10.163   9.335  0.2942 -0.0825 -0.0863
  572POPI   C4B 9088  16.578  10.033   9.459  0.0762  0.0448  0.1409
  573POPI    C1 9089   7.655   7.074  10.449  0.2983 -0.1714 -0.0480
  573POPI    C2 9090   7.602   6.692  10.553  0.0568 -0.1002  0.0989
  573POPI    C3 9091   7.874   6.915  10.744  0.2801 -0.2278 -0.0650
  573POPI   PO4 9092   7.466   7.060  10.195 -0.2318  0.0378  0.2891
  573POPI   GL1 9093   7.463   6.898   9.795 -0.0195  0.2646  0.0777
  573POPI   GL2 9094   7.315   6.567   9.723  0.4860 -0.0233  0.0906
  573POPI   C1A 9095   7.569   6.918   9.412  0.2437  0.0778  0.3472
  573POPI   D2A 9096   7.591   6.929   8.995  0.0373 -0.0031  0.1028
  573POPI   C3A 9097   7.710   7.172   8.624  0.1097  0.0341 -0.4334
  573POPI   C4A 9098   7.503   7.293   8.326  0.2027 -0.3474  0.1703
  573POPI   C1B 9099   7.299   6.167   9.614 -0.0211  0.2121 -0.2157
  573POPI   C2B 9100   7.339   6.002   9.296  0.0926 -0.0685  0.2583
  573POPI   C3B 9101   6.964   5.811   8.928  0.2883 -0.0431  0.0560
  573POPI   C4B 9102   6.782   5.554   8.680  0.3751 -0.1835 -0.0368
  574DPPI    C1 9103   8.580  18.064   9.899 -0.0134 -0.0476  0.2066
  574DPPI    C2 9104   8.346  18.376   9.813  0.1534  0.0110 -0.0475
  574DPPI    C3 9105   8.182  18.027   9.918 -0.0351  0.1723  0.2081
  574DPPI   PO4 9106   8.721  18.039   9.650  0.2014 -0.1106  0.1846
  574DPPI   GL1 9107   8.586  17.856   9.282 -0.1641  0.1093 -0.0097
  574DPPI   GL2 9108   8.372  18.049   9.360  0.0629  0.3868 -0.1228
  574DPPI   C1A 9109   8.498  17.943   8.866  0.0584 -0.1921  0.4036
  574DPPI   C2A 9110   8.733  18.227   8.548 -0.1091  0.1330  0.2399
  574DPPI   C3A 9111   9.107  18.319   8.245 -0.1797 -0.0543 -0.1410
  574DPPI   C4A 9112   9.186  18.228   7.801 -0.0162 -0.0287 -0.0138
  574DPPI   C1B 9113   8.047  17.990   9.030  0.0638 -0.1004  0.0175
  574DPPI   C2B 9114   8.073  17.878   8.641  0.0383  0.6038  0.1972
  574DPPI   C3B 9115   8.512  17.820   8.371 -0.0585  0.2237  0.3315
  574DPPI   C4B 9116   8.960  17.868   8.196  0.1394 -0.2793 -0.0861
  575DPPI    C1 9117  18.114   7.867   9.792 -0.1140 -0.1651  0.0902
  575DPPI    C2 9118  18.315   7.521   9.791  0.3426  0.0895 -0.1634
  575DPPI    C3 9119  18.203   7.686  10.138  0.2494 -0.2348 -0.0347
  575DPPI   PO4 9120  17.929   7.912   9.562  0.0007 -0.2466 -0.1674
  575DPPI   GL1 9121  17.923   8.227   9.294  0.0902 -0.0194  0.1192
  575DPPI   GL2 9122  17.592   8.083   9.242  0.0119 -0.3811 -0.1758
  575DPPI   C1A 9123  17.855   8.387   8.908  0.0722 -0.4569 -0.0772
  575DPPI   C2A 9124  17.579   8.563   8.678 -0.1154 -0.1270 -0.2343
  575DPPI   C3A 9125  17.300   8.500   8.335  0.2228 -0.0497  0.0401
  575DPPI   C4A 9126  17.344   8.575   7.926  0.3949  0.1056  0.0480
  575DPPI   C1B 9127  17.514   8.594   9.207  0.0610 -0.0647  0.0556
  575DPPI   C2B 9128  17.504   9.055   9.248 -0.0576  0.5008  0.1631
  575DPPI   C3B 9129  17.535   9.267   8.815  0.1288 -0.0537  0.0021
  575DPPI   C4B 9130  17.522   9.430   8.383  0.3044 -0.2032  0.0197
  576DPPI    C1 9131   9.317   1.097  10.169 -0.2343  0.0766 -0.0839
  576DPPI    C2 9132   9.388   0.712  10.087 -0.0928  0.1069 -0.1067
  576DPPI    C3 9133   9.237   0.817  10.443 -0.2490  0.0195 -0.1463
  576DPPI   PO4 9134   9.384   1.187   9.975  0.1118 -0.0246  0.0880
  576DPPI   GL1 9135   9.158   1.323   9.658  0.3446 -0.0021  0.2413
  576DPPI   GL2 9136   9.450   1.246   9.494 -0.2341  0.0675 -0.0552
  576DPPI   C1A 9137   9.090   1.551   9.262 -0.0674  0.0965 -0.1368
  576DPPI   C2A 9138   8.922   1.647   8.794  0.2314 -0.0958  0.3147
  576DPPI   C3A 9139   8.864   1.665   8.357 -0.0403 -0.0077  0.0487
  576DPPI   C4A 9140   8.934   1.949   7.915  0.0955  0.2762 -0.0199
  576DPPI   C1B 9141   9.557   1.352   9.171 -0.1157  0.1057 -0.1231
  576DPPI   C2B 9142   9.468   1.545   8.864 -0.1623 -0.0319  0.2022
  576DPPI   C3B 9143   9.458   1.453   8.476 -0.1298  0.2403  0.0118
  576DPPI   C4B 9144   9.294   1.588   8.048  0.0835  0.0349  0.1266
  577DPPI    C1 9145  13.646   6.698  10.407 -0.2550 -0.0009  0.1669
  577DPPI    C2 9146  13.421   6.459  10.636  0.0809 -0.2854  0.2089
  577DPPI    C3 9147  13.768   6.600  10.775  0.0629 -0.0740  0.0450
  577DPPI   PO4 9148  13.719   6.567  10.190  0.1264 -0.3768  0.1337
  577DPPI   GL1 9149  13.733   6.572   9.755  0.2649 -0.2930 -0.0227
  577DPPI   GL2 9150  13.409   6.626   9.690  0.1493  0.1819 -0.0100
  577DPPI   C1A 9151  13.654   6.353   9.370 -0.0553 -0.1246  0.4267
  577DPPI   C2A 9152  13.522   6.248   8.897  0.2471  0.1320  0.1582
  577DPPI   C3A 9153  13.738   6.150   8.543  0.0893  0.0128 -0.1484
  577DPPI   C4A 9154  14.032   5.951   8.378  0.0173 -0.2008 -0.2133
  577DPPI   C1B 9155  13.310   6.692   9.277 -0.1996 -0.1263  0.2891
  577DPPI   C2B 9156  13.259   6.658   8.877 -0.2134  0.0784  0.2699
  577DPPI   C3B 9157  13.295   6.548   8.539 -0.0229 -0.0711  0.0428
  577DPPI   C4B 9158  13.481   6.524   8.294 -0.0225 -0.2143  0.0187
  578DPPI    C1 9159   5.416   5.983  10.232  0.2297  0.2710 -0.2060
  578DPPI    C2 9160   5.603   6.198  10.513 -0.0875  0.0876  0.1546
  578DPPI    C3 9161   5.561   5.802  10.558 -0.1829  0.0633 -0.1298
  578DPPI   PO4 9162   5.524   5.996   9.959 -0.1235  0.0187 -0.0435
  578DPPI   GL1 9163   5.404   5.787   9.666  0.2691 -0.0862  0.0123
  578DPPI   GL2 9164   5.593   5.515   9.751  0.0959  0.0890 -0.1046
  578DPPI   C1A 9165   5.240   5.691   9.240 -0.2723  0.2448 -0.2208
  578DPPI   C2A 9166   4.958   5.507   9.018  0.0899  0.2882  0.0916
  578DPPI   C3A 9167   5.019   5.378   8.645 -0.0697 -0.0895 -0.0938
  578DPPI   C4A 9168   5.220   5.162   8.400 -0.1361  0.0996  0.0699
  578DPPI   C1B 9169   5.711   5.424   9.302  0.0308 -0.0777  0.2971
  578DPPI   C2B 9170   5.477   5.519   8.874 -0.1695  0.0050  0.3475
  578DPPI   C3B 9171   5.194   5.851   8.740  0.0192 -0.1369 -0.2172
  578DPPI   C4B 9172   5.269   6.161   8.464  0.0744  0.0479  0.0189
  579DPPI    C1 9173   6.554   3.066  10.644  0.0126 -0.1161  0.1212
  579DPPI    C2 9174   6.419   3.407  10.803 -0.3071 -0.1053 -0.1615
  579DPPI    C3 9175   6.527   3.104  11.041 -0.1096  0.1557  0.0890
  579DPPI   PO4 9176   6.483   3.184  10.367  0.0764 -0.1571  0.1167
  579DPPI   GL1 9177   6.443   2.982  10.058 -0.1340  0.1595  0.3127
  579DPPI   GL2 9178   6.115   2.999   9.987  0.0979  0.3309  0.0657
  579DPPI   C1A 9179   6.519   2.942   9.612 -0.2681 -0.1358 -0.0406
  579DPPI   C2A 9180   6.353   2.851   9.150 -0.2334  0.0274  0.1343
  579DPPI   C3A 9181   6.345   3.016   8.755  0.0127 -0.1246  0.3388
  579DPPI   C4A 9182   6.134   3.125   8.299 -0.4673 -0.1219  0.0162
  579DPPI   C1B 9183   6.127   3.197   9.580 -0.3014  0.1152 -0.1893
  579DPPI   C2B 9184   5.991   3.257   9.161  0.0669 -0.1439 -0.0436
  579DPPI   C3B 9185   5.893   3.304   8.715  0.0747  0.0244 -0.0317
  579DPPI   C4B 9186   5.795   3.506   8.315  0.0207  0.0610 -0.0852
  580DPPI    C1 9187   9.785   6.766  10.353 -0.0029 -0.0777 -0.2201
  580DPPI    C2 9188  10.164   6.820  10.470 -0.1428  0.3196  0.0710
  580DPPI    C3 9189   9.952   6.512  10.614  0.1157 -0.0039 -0.2237
  580DPPI   PO4 9190   9.800   6.708  10.093 -0.1008  0.0990  0.2467
  580DPPI   GL1 9191   9.629   6.556   9.790 -0.0886  0.1241 -0.3372
  580DPPI   GL2 9192   9.753   6.231   9.805  0.1680  0.1283  0.2502
  580DPPI   C1A 9193   9.555   6.654   9.335 -0.2091 -0.2189 -0.1848
  580DPPI   C2A 9194   9.455   6.692   8.977 -0.0807  0.0360  0.0297
  580DPPI   C3A 9195   9.170   6.841   8.740  0.1132  0.1705  0.0615
  580DPPI   C4A 9196   8.822   7.145   8.558  0.0304  0.3165 -0.3111
  580DPPI   C1B 9197   9.792   6.149   9.345 -0.2584 -0.0091 -0.0122
  580DPPI   C2B 9198   9.603   6.240   8.954 -0.1496 -0.1124  0.2776
  580DPPI   C3B 9199   9.608   6.348   8.579  0.1477  0.0344 -0.0360
  580DPPI   C4B 9200   9.788   6.522   8.164  0.2596  0.1200  0.1694
  581DPPI    C1 9201   4.680   5.604  10.424  0.0780 -0.0752  0.0494
  581DPPI    C2 9202   5.034   5.788  10.461 -0.0437  0.1543  0.0864
  581DPPI    C3 9203   4.765   5.809  10.757 -0.1410  0.0941  0.0030
  581DPPI   PO4 9204   4.684   5.594  10.132 -0.0361 -0.0957 -0.1048
  581DPPI   GL1 9205   4.529   5.790   9.782  0.0089 -0.3684 -0.0228
  581DPPI   GL2 9206   4.598   6.210   9.781 -0.1927  0.0279 -0.1160
  581DPPI   C1A 9207   4.736   5.833   9.416 -0.1928 -0.4017  0.3510
  581DPPI   C2A 9208   4.869   6.066   9.037 -0.0755  0.0714 -0.3050
  581DPPI   C3A 9209   4.973   6.486   8.856  0.1101  0.1871 -0.3106
  581DPPI   C4A 9210   4.835   6.572   8.336 -0.1962  0.0724  0.2033
  581DPPI   C1B 9211   4.819   6.397   9.377 -0.2467 -0.1507  0.1937
  581DPPI   C2B 9212   4.950   6.826   9.313 -0.0706  0.1676  0.0719
  581DPPI   C3B 9213   4.979   6.978   8.975  0.0916  0.1240 -0.1436
  581DPPI   C4B 9214   5.054   7.450   9.051  0.0625  0.0208  0.0143
  582DPPI    C1 9215   2.341   3.836  10.169 -0.2650  0.2458  0.3370
  582DPPI    C2 9216   2.670   3.866  10.395 -0.0148 -0.0749  0.0277
  582DPPI    C3 9217   2.409   3.569  10.460 -0.2614  0.1919  0.2870
  582DPPI   PO4 9218   2.396   3.834   9.878 -0.0979 -0.0081  0.1476
  582DPPI   GL1 9219   2.552   3.613   9.521 -0.1345 -0.0427  0.1680
  582DPPI   GL2 9220   2.302   3.404   9.566  0.0187 -0.0504  0.0580
  582DPPI   C1A 9221   2.410   3.655   9.135  0.0429 -0.0009  0.1961
  582DPPI   C2A 9222   2.292   3.761   8.675 -0.0278 -0.1262 -0.4684
  582DPPI   C3A 9223   2.281   3.760   8.257  0.3662 -0.1824  0.0180
  582DPPI   C4A 9224   2.343   3.895   7.762 -0.0926 -0.2940  0.0482
  582DPPI   C1B 9225   2.033   3.288   9.247 -0.0520 -0.1279  0.0263
  582DPPI   C2B 9226   1.940   3.337   8.769 -0.0644  0.0046 -0.0481
  582DPPI   C3B 9227   1.890   3.451   8.356 -0.0810 -0.1829  0.2325
  582DPPI   C4B 9228   2.017   3.552   7.905  0.0761  0.0567  0.0459
  583DPPI    C1 9229   1.306  16.250  10.340 -0.2420  0.0369 -0.0553
  583DPPI    C2 9230   1.436  16.133   9.980  0.1219  0.0636  0.0630
  583DPPI    C3 9231   1.409  15.869  10.278  0.1932  0.1202  0.1201
  583DPPI   PO4 9232   1.116  16.438  10.245  0.2565 -0.0263  0.0729
  583DPPI   GL1 9233   0.841  16.557   9.846 -0.2272  0.0201 -0.2822
  583DPPI   GL2 9234   1.232  16.549   9.721 -0.0103  0.0231  0.0050
  583DPPI   C1A 9235   0.568  16.437   9.508  0.0494  0.0279  0.0669
  583DPPI   C2A 9236   0.334  16.421   9.119 -0.1067 -0.1150  0.2575
  583DPPI   C3A 9237   0.070  16.326   8.772  0.2323 -0.0619  0.2179
  583DPPI   C4A 9238  -0.008  16.446   8.364  0.1004  0.1134 -0.0335
  583DPPI   C1B 9239   1.129  16.368   9.373 -0.0964 -0.2183 -0.1864
  583DPPI   C2B 9240   1.121  16.227   8.926 -0.0427  0.0601  0.0653
  583DPPI   C3B 9241   0.983  15.920   8.698 -0.1498 -0.0647  0.3295
  583DPPI   C4B 9242   0.651  15.547   8.808 -0.2507  0.0038  0.3147
  584DPPI    C1 9243   3.362   1.184  10.293  0.1465  0.3191 -0.1998
  584DPPI    C2 9244   3.600   1.090   9.985 -0.0238 -0.0995 -0.2101
  584DPPI    C3 9245   3.731   1.045  10.360  0.0441  0.0317 -0.2176
  584DPPI   PO4 9246   3.205   1.381  10.080 -0.2197 -0.0378 -0.0182
  584DPPI   GL1 9247   3.395   1.538   9.705 -0.0987 -0.0083 -0.0039
  584DPPI   GL2 9248   3.779   1.497   9.618  0.2908 -0.5770 -0.0112
  584DPPI   C1A 9249   3.448   1.675   9.321 -0.1367 -0.2352  0.3300
  584DPPI   C2A 9250   3.523   1.747   8.943 -0.2993  0.2939  0.0718
  584DPPI   C3A 9251   3.668   1.754   8.478  0.1529 -0.3563 -0.4073
  584DPPI   C4A 9252   3.641   1.762   8.113  0.0741 -0.0298 -0.0718
  584DPPI   C1B 9253   3.923   1.763   9.245 -0.0828 -0.0918  0.1193
  584DPPI   C2B 9254   4.023   1.899   8.844  0.3013 -0.0327 -0.0819
  584DPPI   C3B 9255   4.141   1.863   8.433  0.2115 -0.3954 -0.1563
  584DPPI   C4B 9256   4.189   1.563   8.043  0.0231 -0.0025 -0.1747
  585DPPI    C1 9257  14.543   7.548  10.783  0.0613 -0.1324  0.0590
  585DPPI    C2 9258  14.708   7.891  10.907  0.0265  0.0075 -0.2703
  585DPPI    C3 9259  14.350   7.780  11.047  0.1966 -0.0779  0.1108
  585DPPI   PO4 9260  14.496   7.565  10.474  0.0096 -0.2250 -0.1392
  585DPPI   GL1 9261  14.580   7.387  10.058 -0.2883 -0.1193  0.0964
  585DPPI   GL2 9262  14.450   7.210   9.873 -0.1465 -0.3435 -0.1896
  585DPPI   C1A 9263  14.591   7.637   9.613  0.2821 -0.0808 -0.0822
  585DPPI   C2A 9264  14.296   7.834   9.398  0.0342  0.2057 -0.4729
  585DPPI   C3A 9265  14.171   8.223   9.053  0.1919 -0.1403 -0.0688
  585DPPI   C4A 9266  14.473   8.503   8.798 -0.0929  0.1783 -0.0690
  585DPPI   C1B 9267  14.610   7.172   9.527  0.0799 -0.0682 -0.1429
  585DPPI   C2B 9268  14.837   7.394   9.128  0.1773  0.0803  0.1770
  585DPPI   C3B 9269  14.878   7.487   8.808 -0.1901 -0.1407 -0.2265
  585DPPI   C4B 9270  14.937   7.763   8.540  0.0537  0.1118  0.1496
  586DPPI    C1 9271  10.930   5.295  10.095 -0.0962  0.2117  0.0566
  586DPPI    C2 9272  10.988   5.091  10.434  0.3150  0.1018 -0.0745
  586DPPI    C3 9273  10.699   4.980  10.182  0.2896 -0.0854  0.0350
  586DPPI   PO4 9274  10.882   5.502  10.082 -0.2088  0.0125  0.2407
  586DPPI   GL1 9275  11.112   5.682   9.712 -0.1205 -0.3664  0.0778
  586DPPI   GL2 9276  11.094   5.370   9.566 -0.2672 -0.1397 -0.0201
  586DPPI   C1A 9277  11.458   5.742   9.494 -0.0594 -0.1370 -0.2283
  586DPPI   C2A 9278  11.905   5.577   9.290  0.1372 -0.1092 -0.1218
  586DPPI   C3A 9279  12.109   5.600   8.897  0.0584  0.2130 -0.0999
  586DPPI   C4A 9280  12.234   5.459   8.438 -0.1971  0.0292  0.1853
  586DPPI   C1B 9281  11.433   5.355   9.254  0.1368 -0.3612  0.1799
  586DPPI   C2B 9282  11.741   5.207   8.885  0.2028 -0.3257 -0.1043
  586DPPI   C3B 9283  11.805   5.246   8.553 -0.0807 -0.0889 -0.0840
  586DPPI   C4B 9284  11.918   5.200   8.097  0.0827 -0.0045 -0.0743
  587DPPI    C1 9285   5.427   0.528  10.653  0.0855 -0.0120  0.0008
  587DPPI    C2 9286   5.291   0.157  10.714  0.0212 -0.0086 -0.1182
  587DPPI    C3 9287   5.495   0.345  11.002  0.1986 -0.1990 -0.1178
  587DPPI   PO4 9288   5.463   0.504  10.359 -0.1461  0.0796 -0.3333
  587DPPI   GL1 9289   5.266   0.559   9.901 -0.2730 -0.1954  0.2928
  587DPPI   GL2 9290   5.015   0.378   9.832  0.0794  0.0608  0.2091
  587DPPI   C1A 9291   5.508   0.355   9.701 -0.3665  0.0872  0.1567
  587DPPI   C2A 9292   5.389   0.410   9.251 -0.6431  0.2825 -0.1700
  587DPPI   C3A 9293   5.332   0.822   9.076  0.0801  0.0663 -0.0341
  587DPPI   C4A 9294   5.202   1.095   8.707 -0.0186  0.0374  0.1236
  587DPPI   C1B 9295   4.955   0.499   9.473 -0.1908  0.2906  0.0418
  587DPPI   C2B 9296   4.925   0.436   9.031  0.0347 -0.2001  0.0240
  587DPPI   C3B 9297   4.998   0.630   8.523 -0.1171 -0.1939  0.1560
  587DPPI   C4B 9298   4.870   0.465   8.105 -0.0884  0.0414  0.2131
  588DPPI    C1 9299  10.587  14.191  10.254  0.0755 -0.2863 -0.0178
  588DPPI    C2 9300  10.568  13.791  10.262 -0.0078 -0.2803  0.1140
  588DPPI    C3 9301  10.239  14.008  10.329  0.0055 -0.1897 -0.1051
  588DPPI   PO4 9302  10.737  14.195   9.993 -0.0989  0.0062 -0.3261
  588DPPI   GL1 9303  10.789  13.993   9.677  0.0961  0.1383  0.2129
  588DPPI   GL2 9304  10.524  14.096   9.486 -0.0189  0.0257 -0.1685
  588DPPI   C1A 9305  10.819  13.698   9.327 -0.0575 -0.0095 -0.3351
  588DPPI   C2A 9306  10.929  13.800   8.968  0.2055  0.0816 -0.3510
  588DPPI   C3A 9307  10.888  13.877   8.462  0.2044 -0.1793 -0.1483
  588DPPI   C4A 9308  10.919  13.911   7.960  0.2220 -0.1787 -0.1018
  588DPPI   C1B 9309  10.548  14.509   9.085  0.0845  0.1066  0.0563
  588DPPI   C2B 9310  10.277  14.549   8.719  0.0517 -0.0990 -0.3162
  588DPPI   C3B 9311  10.127  14.357   8.319  0.2493  0.1137 -0.0246
  588DPPI   C4B 9312   9.907  14.224   7.956 -0.1936 -0.1293  0.0317
  589DPPI    C1 9313  13.479   2.905  10.561 -0.3543  0.0185 -0.2032
  589DPPI    C2 9314  13.782   2.889  10.822 -0.1309 -0.3263 -0.4740
  589DPPI    C3 9315  13.513   3.185  10.845  0.1410 -0.0971 -0.1395
  589DPPI   PO4 9316  13.643   2.890  10.325  0.4319 -0.1555 -0.0731
  589DPPI   GL1 9317  13.389   2.978   9.894 -0.3439  0.2831  0.1111
  589DPPI   GL2 9318  13.628   2.777   9.893  0.1286 -0.1262 -0.0019
  589DPPI   C1A 9319  13.584   3.299   9.548  0.2630  0.1049  0.0365
  589DPPI   C2A 9320  13.978   3.176   9.529 -0.1334 -0.0178  0.3186
  589DPPI   C3A 9321  13.977   2.969   9.127 -0.0657 -0.3714 -0.2739
  589DPPI   C4A 9322  14.040   2.805   8.763 -0.2284  0.0639 -0.3044
  589DPPI   C1B 9323  13.602   2.775   9.473  0.1312 -0.1125  0.0927
  589DPPI   C2B 9324  13.465   3.035   9.130 -0.0893 -0.0540  0.1195
  589DPPI   C3B 9325  13.597   3.202   8.787 -0.1157 -0.1103 -0.1923
  589DPPI   C4B 9326  13.673   2.966   8.437 -0.0086 -0.0207 -0.0493
  590DPPI    C1 9327  10.883   9.644  10.041 -0.0743  0.0341 -0.1532
  590DPPI    C2 9328  11.178   9.540  10.290 -0.0309 -0.0289 -0.2303
  590DPPI    C3 9329  11.263   9.721   9.944 -0.1035  0.2324 -0.1139
  590DPPI   PO4 9330  10.719   9.406  10.210 -0.3795 -0.1672 -0.0461
  590DPPI   GL1 9331  10.508   9.129   9.992  0.4905 -0.0581  0.0080
  590DPPI   GL2 9332  10.531   8.889   9.803  0.2411  0.1597  0.0812
  590DPPI   C1A 9333  10.396   9.301   9.552  0.0959 -0.0264  0.4616
  590DPPI   C2A 9334  10.384   9.750   9.386  0.2879  0.1668  0.3435
  590DPPI   C3A 9335  10.457   9.693   8.926 -0.0285  0.1260 -0.1608
  590DPPI   C4A 9336  10.405   9.705   8.529 -0.5194  0.1635  0.1405
  590DPPI   C1B 9337  10.262   8.873   9.317  0.1654 -0.2434  0.0264
  590DPPI   C2B 9338  10.315   8.943   8.865  0.0798  0.0594  0.0573
  590DPPI   C3B 9339  10.468   8.883   8.434  0.0681  0.0840  0.3300
  590DPPI   C4B 9340  10.562   8.709   8.036 -0.1586 -0.2725 -0.0366
  591DPPI    C1 9341   7.787  18.530  10.120 -0.3309  0.0351  0.0709
  591DPPI    C2 9342   7.859  18.178  10.297 -0.1975  0.1232  0.1935
  591DPPI    C3 9343   7.910  18.519  10.501 -0.1953  0.2192  0.0334
  591DPPI   PO4 9344   7.842  18.434   9.847  0.2996  0.0616 -0.0921
  591DPPI   GL1 9345   7.634  18.506   9.488  0.0618 -0.0914  0.1506
  591DPPI   GL2 9346   7.352  18.655   9.317  0.0383 -0.1639 -0.1220
  591DPPI   C1A 9347   7.674  18.321   9.111  0.2298 -0.0210 -0.0242
  591DPPI   C2A 9348   7.694  18.195   8.693  0.0486 -0.1262  0.1410
  591DPPI   C3A 9349   7.710  17.896   8.323  0.1818 -0.2637 -0.2017
  591DPPI   C4A 9350   7.658  17.497   8.029 -0.0864 -0.0206 -0.5246
  591DPPI   C1B 9351   7.410  18.700   8.852  0.3150 -0.0628 -0.3077
  591DPPI   C2B 9352   7.385  18.641   8.378  0.1905  0.1375  0.0068
  591DPPI   C3B 9353   7.427  18.935   8.098 -0.1606 -0.0526  0.0980
  591DPPI   C4B 9354   7.484  19.107   7.722 -0.0482 -0.2906  0.0241
  592DPPI    C1 9355   3.453   9.847  10.060  0.0269  0.0366  0.0093
  592DPPI    C2 9356   3.086  10.005  10.067 -0.0377 -0.1025 -0.1610
  592DPPI    C3 9357   3.301   9.984  10.403 -0.0633  0.2612 -0.1180
  592DPPI   PO4 9358   3.455   9.817   9.695 -0.1636 -0.1950  0.0585
  592DPPI   GL1 9359   3.512   9.939   9.252  0.2240 -0.0160 -0.0851
  592DPPI   GL2 9360   3.590  10.246   9.396  0.2103 -0.1468  0.1314
  592DPPI   C1A 9361   3.930   9.864   9.051  0.1755 -0.0823 -0.0549
  592DPPI   C2A 9362   4.038   9.804   8.658 -0.3075 -0.2467 -0.0126
  592DPPI   C3A 9363   4.034   9.796   8.293  0.0234 -0.0471 -0.2069
  592DPPI   C4A 9364   4.006   9.802   7.929  0.1005 -0.2266  0.0892
  592DPPI   C1B 9365   3.480  10.335   8.958 -0.1752 -0.1387 -0.3259
  592DPPI   C2B 9366   3.516  10.422   8.564 -0.1716  0.1089 -0.2632
  592DPPI   C3B 9367   3.468  10.494   8.097  0.0258  0.0261  0.0896
  592DPPI   C4B 9368   3.467  10.483   7.568  0.1543 -0.3548  0.1090
  593DPPI    C1 9369   7.051   7.820  10.270 -0.1640 -0.1796 -0.0398
  593DPPI    C2 9370   6.689   7.829  10.439  0.0114  0.3386  0.3337
  593DPPI    C3 9371   6.931   7.518  10.503 -0.2345  0.1498  0.3627
  593DPPI   PO4 9372   7.046   7.879  10.041  0.4431 -0.0201 -0.1414
  593DPPI   GL1 9373   6.782   8.042   9.749  0.2052 -0.1725 -0.1644
  593DPPI   GL2 9374   6.497   8.216   9.545 -0.1506 -0.0275  0.0745
  593DPPI   C1A 9375   6.902   7.673   9.538  0.0205 -0.0953 -0.1241
  593DPPI   C2A 9376   7.143   7.335   9.237  0.2597  0.0264 -0.2708
  593DPPI   C3A 9377   7.380   7.340   8.946 -0.1817 -0.2294  0.2491
  593DPPI   C4A 9378   7.190   6.959   8.665 -0.0789  0.1166  0.2882
  593DPPI   C1B 9379   6.884   8.054   9.248  0.1275  0.0230  0.0015
  593DPPI   C2B 9380   6.870   7.766   9.011  0.3355 -0.3305 -0.1079
  593DPPI   C3B 9381   6.908   7.407   8.649 -0.1966  0.1262  0.3111
  593DPPI   C4B 9382   7.034   7.243   8.257  0.1309  0.1197 -0.0955
  594PYPI    C1 9383   8.585  17.102  10.139  0.0751  0.2246 -0.1228
  594PYPI    C2 9384   8.619  17.428  10.369  0.4151 -0.0135  0.1751
  594PYPI    C3 9385   8.684  17.065  10.524  0.0073 -0.2320 -0.1443
  594PYPI   PO4 9386   8.760  17.184   9.941  0.2367  0.0217  0.2956
  594PYPI   GL1 9387   8.968  17.137   9.494 -0.3106  0.2420  0.2245
  594PYPI   GL2 9388   8.757  17.410   9.395 -0.2515 -0.0756  0.1033
  594PYPI   C1A 9389   8.916  16.981   9.073  0.1988  0.2844 -0.0672
  594PYPI   C2A 9390   8.987  17.164   8.638  0.1757 -0.0519  0.2835
  594PYPI   D3A 9391   8.891  17.263   8.252 -0.0665 -0.0871  0.1717
  594PYPI   C4A 9392   8.604  17.428   8.037  0.3691 -0.1061 -0.0726
  594PYPI   C1B 9393   8.848  17.500   8.975  0.1045 -0.2451  0.1934
  594PYPI   C2B 9394   9.151  17.736   8.631  0.4610  0.2371 -0.0690
  594PYPI   C3B 9395   9.482  17.862   8.391 -0.1839 -0.2865 -0.1253
  594PYPI   C4B 9396   9.567  17.917   7.981 -0.3386  0.1184 -0.0970
  595PYPI    C1 9397   5.649   3.543  10.665  0.0481  0.1291  0.0142
  595PYPI    C2 9398   5.313   3.648  10.854  0.0653 -0.0936  0.1729
  595PYPI    C3 9399   5.482   3.294  10.930  0.2051 -0.0844 -0.0845
  595PYPI   PO4 9400   5.647   3.659  10.386 -0.0432 -0.0323  0.2220
  595PYPI   GL1 9401   5.821   3.713   9.996 -0.5250 -0.0785  0.1780
  595PYPI   GL2 9402   5.466   3.615   9.899 -0.0575  0.2024  0.1198
  595PYPI   C1A 9403   5.872   3.610   9.590 -0.0825  0.0670 -0.1015
  595PYPI   C2A 9404   5.700   3.739   9.210 -0.0482 -0.1248 -0.0335
  595PYPI   D3A 9405   5.505   4.098   8.987 -0.1764 -0.2013  0.2216
  595PYPI   C4A 9406   5.314   4.099   8.659 -0.1117 -0.4648 -0.0906
  595PYPI   C1B 9407   5.290   3.627   9.480  0.0287 -0.0428 -0.0805
  595PYPI   C2B 9408   4.977   3.607   9.162 -0.0781  0.0171 -0.2326
  595PYPI   C3B 9409   4.992   3.500   8.690  0.1362 -0.1781  0.5488
  595PYPI   C4B 9410   5.299   3.317   8.444 -0.0803  0.1138 -0.2173
  596PYPI    C1 9411   3.419   8.301   9.943  0.0647  0.1267  0.2356
  596PYPI    C2 9412   3.534   8.365  10.321 -0.1844 -0.0072  0.3364
  596PYPI    C3 9413   3.186   8.512  10.190 -0.0846  0.0652  0.1486
  596PYPI   PO4 9414   3.671   8.196   9.835 -0.3693  0.1473 -0.2482
  596PYPI   GL1 9415   3.716   8.415   9.500 -0.0258 -0.2393 -0.1135
  596PYPI   GL2 9416   3.432   8.388   9.334  0.0189 -0.3938 -0.0447
  596PYPI   C1A 9417   3.802   8.246   9.060 -0.0923  0.0453  0.2935
  596PYPI   C2A 9418   3.815   8.155   8.611  0.0571  0.1369  0.2430
  596PYPI   D3A 9419   3.626   7.942   8.180 -0.1659  0.0879 -0.3147
  596PYPI   C4A 9420   3.625   8.136   7.831 -0.2315  0.2313 -0.2268
  596PYPI   C1B 9421   3.407   8.420   8.840  0.1082 -0.2109 -0.0637
  596PYPI   C2B 9422   3.531   8.487   8.400  0.2436 -0.0160  0.0956
  596PYPI   C3B 9423   3.759   8.651   7.993 -0.3626  0.1667 -0.1177
  596PYPI   C4B 9424   3.798   8.898   7.646 -0.0160  0.0750 -0.0431
  597PYPI    C1 9425   4.300   9.950  10.095  0.1221 -0.1621 -0.1297
  597PYPI    C2 9426   4.675  10.076  10.156  0.0343  0.1493 -0.2162
  597PYPI    C3 9427   4.366  10.311  10.255 -0.1458 -0.2059  0.0869
  597PYPI   PO4 9428   4.380   9.856   9.802  0.2260  0.5357 -0.2272
  597PYPI   GL1 9429   4.414  10.010   9.306  0.2225  0.0374  0.0448
  597PYPI   GL2 9430   4.695   9.882   9.188  0.0047 -0.2000  0.0367
  597PYPI   C1A 9431   4.456  10.171   8.850 -0.1161 -0.0890 -0.1213
  597PYPI   C2A 9432   4.396  10.179   8.448  0.0108  0.1797 -0.2058
  597PYPI   D3A 9433   4.367  10.129   8.027  0.3540  0.0766 -0.3143
  597PYPI   C4A 9434   4.657  10.214   7.743  0.0775 -0.0304 -0.0692
  597PYPI   C1B 9435   4.462   9.664   8.777  0.0532 -0.4261  0.2461
  597PYPI   C2B 9436   4.510   9.640   8.365 -0.1497 -0.0036  0.4243
  597PYPI   C3B 9437   4.473   9.672   7.966 -0.0867  0.3673 -0.2775
  597PYPI   C4B 9438   4.323   9.818   7.556 -0.0491  0.1221 -0.0143
  598PYPI    C1 9439   0.856  11.757   9.880 -0.2448  0.2366  0.2551
  598PYPI    C2 9440   1.191  11.937  10.003 -0.0144 -0.0420  0.0477
  598PYPI    C3 9441   0.909  11.839  10.268  0.2231 -0.1209  0.2758
  598PYPI   PO4 9442   0.903  11.871   9.592  0.1807 -0.3156 -0.0953
  598PYPI   GL1 9443   0.881  11.936   9.239 -0.1393  0.2988 -0.1188
  598PYPI   GL2 9444   1.118  11.924   9.043  0.4217  0.0957  0.1591
  598PYPI   C1A 9445   0.690  12.300   9.057  0.0537 -0.1163  0.1238
  598PYPI   C2A 9446   0.492  12.502   8.676  0.2578  0.0621  0.0711
  598PYPI   D3A 9447   0.186  12.477   8.381 -0.1406  0.2448 -0.0301
  598PYPI   C4A 9448   0.188  12.536   7.929 -0.1135 -0.1435  0.2158
  598PYPI   C1B 9449   1.409  11.816   8.726 -0.0709  0.0031 -0.1057
  598PYPI   C2B 9450   1.468  11.718   8.367  0.0162  0.1862 -0.0749
  598PYPI   C3B 9451   1.466  11.788   7.945  0.2152  0.1632 -0.0039
  598PYPI   C4B 9452   1.377  11.683   7.423  0.1904  0.0423 -0.2148
  599PYPI    C1 9453  15.917   5.792  10.078 -0.3266  0.1734  0.1874
  599PYPI    C2 9454  16.180   5.718  10.370 -0.2959  0.0674  0.1332
  599PYPI    C3 9455  15.788   5.709  10.447 -0.2916 -0.1021  0.1395
  599PYPI   PO4 9456  16.176   5.753   9.898  0.0979  0.3797 -0.0055
  599PYPI   GL1 9457  16.493   5.802   9.598  0.2724  0.0942  0.1462
  599PYPI   GL2 9458  16.264   6.011   9.516  0.4500 -0.3563 -0.1302
  599PYPI   C1A 9459  16.834   5.587   9.335 -0.1919 -0.3007 -0.2997
  599PYPI   C2A 9460  16.939   5.403   8.993  0.0354  0.2092 -0.1961
  599PYPI   D3A 9461  17.122   5.346   8.629 -0.4609  0.4245  0.1582
  599PYPI   C4A 9462  17.038   5.470   8.240  0.0579 -0.0917  0.3115
  599PYPI   C1B 9463  16.338   5.886   9.144  0.3043 -0.1056  0.1022
  599PYPI   C2B 9464  16.122   5.925   8.858 -0.3324  0.2406 -0.1991
  599PYPI   C3B 9465  16.144   5.939   8.365  0.0187  0.1343 -0.0104
  599PYPI   C4B 9466  16.178   5.825   7.960 -0.2147  0.0412 -0.1241
  600PYPI    C1 9467  16.753  18.630  10.404 -0.0003 -0.0488  0.0861
  600PYPI    C2 9468  16.497  18.790  10.666 -0.0320  0.0945 -0.0310
  600PYPI    C3 9469  16.867  18.692  10.782 -0.0939  0.0171  0.1038
  600PYPI   PO4 9470  16.664  18.769  10.074 -0.0166 -0.2278 -0.1258
  600PYPI   GL1 9471  16.589  18.619   9.675  0.0102  0.0853  0.0545
  600PYPI   GL2 9472  16.835  18.413   9.694  0.1470 -0.0222  0.0515
  600PYPI   C1A 9473  16.365  18.636   9.243 -0.0901  0.2760 -0.1551
  600PYPI   C2A 9474  16.276  18.748   8.876 -0.3437 -0.1469 -0.0310
  600PYPI   D3A 9475  16.274  19.064   8.596  0.1883 -0.1005  0.0167
  600PYPI   C4A 9476  15.963  19.196   8.346  0.2591  0.0527 -0.0540
  600PYPI   C1B 9477  16.736  18.307   9.336  0.1475 -0.1603 -0.2433
  600PYPI   C2B 9478  16.430  18.198   8.965  0.2633  0.1622  0.0911
  600PYPI   C3B 9479  16.428  18.055   8.537  0.1109  0.0645  0.1158
  600PYPI   C4B 9480  16.380  18.147   8.069  0.2093  0.1580 -0.2491
  601PYPI    C1 9481  11.215   6.735  10.390  0.2530 -0.0585  0.0228
  601PYPI    C2 9482  11.150   6.549  10.738  0.0429 -0.0356 -0.0026
  601PYPI    C3 9483  11.213   6.944  10.731  0.1142 -0.0465  0.0152
  601PYPI   PO4 9484  11.072   6.624  10.176  0.2232 -0.1531  0.1540
  601PYPI   GL1 9485  10.981   6.672   9.789  0.0049 -0.0354  0.0256
  601PYPI   GL2 9486  10.964   6.941   9.677 -0.1242 -0.3746  0.2824
  601PYPI   C1A 9487  10.991   6.399   9.407 -0.1365  0.1761  0.2867
  601PYPI   C2A 9488  10.988   6.317   8.995 -0.0035  0.2428  0.0169
  601PYPI   D3A 9489  11.074   6.511   8.607 -0.3001  0.2454  0.1794
  601PYPI   C4A 9490  10.932   6.368   8.211 -0.0128  0.0173 -0.1205
  601PYPI   C1B 9491  10.948   7.068   9.238  0.1739 -0.2024  0.1702
  601PYPI   C2B 9492  10.918   7.024   8.769  0.3914 -0.1589  0.3437
  601PYPI   C3B 9493  11.065   6.992   8.309  0.0707  0.0895 -0.2622
  601PYPI   C4B 9494  11.069   6.776   7.944 -0.1546  0.1706 -0.0558
  602PYPI    C1 9495   6.420   2.003  10.369 -0.1330  0.2072  0.0703
  602PYPI    C2 9496   6.714   2.267  10.435  0.0074  0.0093  0.2500
  602PYPI    C3 9497   6.471   2.160  10.734 -0.2316  0.1495  0.1090
  602PYPI   PO4 9498   6.332   2.144  10.158  0.3094  0.2011  0.1324
  602PYPI   GL1 9499   6.170   2.493   9.987  0.2433  0.0863  0.4518
  602PYPI   GL2 9500   5.796   2.304   9.900  0.1493  0.2728 -0.1056
  602PYPI   C1A 9501   6.448   2.455   9.531 -0.0359 -0.1591  0.1301
  602PYPI   C2A 9502   6.388   2.382   9.087  0.0384 -0.0538 -0.1019
  602PYPI   D3A 9503   6.540   2.413   8.700 -0.1176 -0.0200  0.0773
  602PYPI   C4A 9504   6.322   2.672   8.235  0.0574  0.0318  0.0622
  602PYPI   C1B 9505   6.021   2.196   9.580  0.1052  0.1942 -0.4560
  602PYPI   C2B 9506   5.951   2.089   9.165  0.0735 -0.0348 -0.1876
  602PYPI   C3B 9507   6.024   2.132   8.751 -0.0135 -0.1766  0.0043
  602PYPI   C4B 9508   6.260   2.174   8.337 -0.0504 -0.2037 -0.2994
  603PYPI    C1 9509   7.297  12.387  10.773  0.1528 -0.1176 -0.0108
  603PYPI    C2 9510   6.959  12.199  10.669  0.0824 -0.0052  0.0130
  603PYPI    C3 9511   6.949  12.585  10.773  0.1958 -0.0408  0.1595
  603PYPI   PO4 9512   7.480  12.268  10.521 -0.1212 -0.0535 -0.1368
  603PYPI   GL1 9513   7.521  12.475  10.121  0.1043  0.0872  0.1035
  603PYPI   GL2 9514   7.835  12.326  10.118 -0.1064 -0.0117 -0.1912
  603PYPI   C1A 9515   7.537  12.292   9.698 -0.4285  0.0046  0.0356
  603PYPI   C2A 9516   7.541  12.452   9.309 -0.1056  0.1023 -0.1181
  603PYPI   D3A 9517   7.635  12.374   8.815 -0.1431  0.0108 -0.1144
  603PYPI   C4A 9518   7.414  12.346   8.410 -0.5637 -0.3719  0.0034
  603PYPI   C1B 9519   8.028  12.160   9.754  0.0932  0.2014 -0.1150
  603PYPI   C2B 9520   8.246  11.917   9.482 -0.0933 -0.1515  0.0533
  603PYPI   C3B 9521   8.450  11.884   9.103 -0.3011 -0.4512  0.0210
  603PYPI   C4B 9522   8.603  12.105   8.741  0.2205 -0.0258 -0.4286
  604PYPI    C1 9523  18.711   6.930  10.013 -0.0983  0.0263 -0.0992
  604PYPI    C2 9524  18.500   6.596  10.068  0.0964 -0.0986 -0.1006
  604PYPI    C3 9525  18.770   6.709  10.341  0.0730  0.0260 -0.1289
  604PYPI   PO4 9526  18.703   6.950   9.787  0.1080 -0.2321 -0.2417
  604PYPI   GL1 9527  18.913   6.782   9.409 -0.2863  0.1763 -0.0470
  604PYPI   GL2 9528  19.197   6.595   9.362 -0.1192  0.0766  0.1103
  604PYPI   C1A 9529  18.906   6.773   8.999  0.0378  0.3116  0.0699
  604PYPI   C2A 9530  18.969   6.721   8.579 -0.1124 -0.1287 -0.1087
  604PYPI   D3A 9531  18.810   6.935   8.094  0.0002 -0.2223 -0.0716
  604PYPI   C4A 9532  18.916   7.234   7.798 -0.0601 -0.1721  0.1123
  604PYPI   C1B 9533  19.290   6.464   8.914  0.0099  0.1223  0.2483
  604PYPI   C2B 9534  19.270   6.381   8.446 -0.1496  0.0224  0.3166
  604PYPI   C3B 9535  19.116   6.605   8.013  0.1962 -0.1752  0.0536
  604PYPI   C4B 9536  19.010   6.719   7.598 -0.2615  0.0996  0.2148
  605PYPI    C1 9537   6.373  11.715  10.384 -0.0324 -0.1300 -0.1639
  605PYPI    C2 9538   6.529  11.349  10.425 -0.0372 -0.1096  0.0449
  605PYPI    C3 9539   6.175  11.435  10.590 -0.1286 -0.0673 -0.1708
  605PYPI   PO4 9540   6.424  11.738  10.052 -0.1626 -0.0515  0.2839
  605PYPI   GL1 9541   6.256  11.680   9.660  0.2984 -0.0648  0.0186
  605PYPI   GL2 9542   6.435  11.602   9.451 -0.2369  0.1348  0.0579
  605PYPI   C1A 9543   6.034  11.802   9.234 -0.1525  0.3365  0.3164
  605PYPI   C2A 9544   6.165  11.906   8.815 -0.0110 -0.1151 -0.3793
  605PYPI   D3A 9545   6.273  12.165   8.528 -0.2040 -0.0650 -0.0126
  605PYPI   C4A 9546   6.311  12.134   8.068 -0.1008  0.1086 -0.1696
  605PYPI   C1B 9547   6.784  11.920   9.323  0.0574  0.0381  0.2168
  605PYPI   C2B 9548   7.011  12.249   9.211  0.1822 -0.1581 -0.0120
  605PYPI   C3B 9549   7.068  12.459   8.705  0.1619  0.5256 -0.0266
  605PYPI   C4B 9550   7.048  12.582   8.210 -0.1378 -0.1457 -0.0819
  606PYPI    C1 9551  14.842   6.856  10.318 -0.1300  0.0467  0.0347
  606PYPI    C2 9552  14.515   7.037  10.461 -0.1513  0.0234  0.0156
  606PYPI    C3 9553  14.874   7.204  10.513 -0.1890  0.1602 -0.1559
  606PYPI   PO4 9554  14.731   6.781  10.028 -0.0985  0.3468  0.2989
  606PYPI   GL1 9555  14.749   6.619   9.626 -0.1185  0.0477  0.0495
  606PYPI   GL2 9556  15.010   6.375   9.684 -0.1209 -0.0245 -0.0342
  606PYPI   C1A 9557  14.540   6.718   9.316  0.3384  0.0992 -0.0234
  606PYPI   C2A 9558  14.302   6.888   9.125  0.3144 -0.1606  0.0587
  606PYPI   D3A 9559  13.934   7.211   8.894 -0.1842  0.1693 -0.1585
  606PYPI   C4A 9560  14.059   7.357   8.442  0.1080 -0.1888 -0.0085
  606PYPI   C1B 9561  14.987   6.415   9.228 -0.2759  0.0023  0.0635
  606PYPI   C2B 9562  15.192   6.537   8.813  0.2575  0.1593 -0.0350
  606PYPI   C3B 9563  15.304   6.326   8.525  0.0924  0.1980 -0.0391
  606PYPI   C4B 9564  15.340   6.213   8.072  0.1723 -0.1015 -0.0894
  607ERGO   ROH 9565   9.024  14.037   9.904 -0.2157  0.1361 -0.0044
  607ERGO    R1 9566   8.932  14.046   9.636 -0.1554  0.2308 -0.0226
  607ERGO    R2 9567   9.000  14.250   9.462  0.0658  0.1788 -0.0024
  607ERGO    R3 9568   9.082  14.045   9.305 -0.0890  0.1072  0.0080
  607ERGO    R4 9569   9.142  14.286   9.150  0.2136  0.0595  0.0500
  607ERGO    R5 9570   9.027  14.114   9.083  0.0601  0.1842 -0.0054
  607ERGO    C1 9571   9.303  14.114   8.820  0.1542 -0.0773  0.0902
  607ERGO    C2 9572   9.325  14.013   8.510 -0.2341  0.0399 -0.2119
  608ERGO   ROH 9573  13.676  18.351   9.812  0.0296  0.0958 -0.0300
  608ERGO    R1 9574  13.848  18.367   9.588  0.2111 -0.0415  0.0964
  608ERGO    R2 9575  13.979  18.146   9.485 -0.1897 -0.2287 -0.0355
  608ERGO    R3 9576  13.860  18.224   9.254  0.1133  0.2635 -0.0411
  608ERGO    R4 9577  14.082  18.051   9.170 -0.2959 -0.2831 -0.0545
  608ERGO    R5 9578  14.042  18.255   9.101  0.2772 -0.1107  0.0682
  608ERGO    C1 9579  14.031  18.069   8.768 -0.0732  0.1476 -0.0707
  608ERGO    C2 9580  14.235  18.031   8.475  0.0715 -0.2033 -0.2918
  609ERGO   ROH 9581   7.326   3.356   9.785  0.0637  0.0363 -0.0947
  609ERGO    R1 9582   7.376   3.314   9.510  0.0675 -0.0305 -0.0850
  609ERGO    R2 9583   7.176   3.247   9.331  0.0842 -0.1796 -0.0571
  609ERGO    R3 9584   7.269   3.464   9.196 -0.0197 -0.1783 -0.1252
  609ERGO    R4 9585   7.192   3.274   8.987  0.1350 -0.2975 -0.0636
  609ERGO    R5 9586   7.386   3.372   9.008  0.0684 -0.1768 -0.0665
  609ERGO    C1 9587   7.289   3.494   8.660  0.0670 -0.3649 -0.1312
  609ERGO    C2 9588   7.409   3.692   8.412  0.0054 -0.0170 -0.3141
  610ERGO   ROH 9589  12.933   6.772   9.713  0.1932 -0.1064 -0.0800
  610ERGO    R1 9590  12.801   6.882   9.488  0.1352 -0.0873 -0.0360
  610ERGO    R2 9591  12.932   7.032   9.296  0.0886 -0.0861 -0.0641
  610ERGO    R3 9592  12.823   6.850   9.126  0.0285 -0.0697 -0.0450
  610ERGO    R4 9593  12.981   7.027   8.954  0.0404 -0.1054 -0.0717
  610ERGO    R5 9594  12.771   6.976   8.930  0.0260 -0.0641 -0.0415
  610ERGO    C1 9595  12.907   6.853   8.595 -0.0439 -0.1011 -0.0579
  610ERGO    C2 9596  12.854   6.724   8.313 -0.1202 -0.1964  0.0090
  611ERGO   ROH 9597   2.037   6.363   9.550  0.1053  0.0630  0.0881
  611ERGO    R1 9598   2.209   6.370   9.325  0.1212  0.2619  0.1064
  611ERGO    R2 9599   2.170   6.210   9.103  0.4167  0.0987  0.1735
  611ERGO    R3 9600   2.178   6.447   8.971  0.0277  0.0618  0.0692
  611ERGO    R4 9601   2.183   6.243   8.759  0.0971 -0.0163  0.1457
  611ERGO    R5 9602   2.325   6.406   8.785 -0.0714  0.1658 -0.0351
  611ERGO    C1 9603   2.197   6.485   8.435 -0.4542 -0.1177  0.0316
  611ERGO    C2 9604   2.057   6.622   8.104  0.1793  0.3508  0.0226
  612ERGO   ROH 9605   4.252  13.923   9.450  0.1944 -0.0019  0.0219
  612ERGO    R1 9606   4.331  13.819   9.198  0.0751 -0.1679  0.0500
  612ERGO    R2 9607   4.173  13.646   9.052 -0.1513  0.0019  0.0767
  612ERGO    R3 9608   4.207  13.832   8.857  0.1092 -0.0800  0.0428
  612ERGO    R4 9609   4.109  13.595   8.717 -0.1181  0.0115  0.0696
  612ERGO    R5 9610   4.289  13.707   8.670  0.0166 -0.2051  0.0918
  612ERGO    C1 9611   4.104  13.739   8.338  0.1457 -0.0599  0.0338
  612ERGO    C2 9612   4.035  13.723   8.029  0.1560 -0.0577  0.0813
  613ERGO   ROH 9613  18.855   6.226   9.411  0.1164 -0.1507  0.0400
  613ERGO    R1 9614  18.895   6.187   9.133  0.1138 -0.1359  0.0371
  613ERGO    R2 9615  18.690   6.113   8.962  0.0933 -0.0475  0.0193
  613ERGO    R3 9616  18.769   6.334   8.825  0.1765 -0.0595  0.0486
  613ERGO    R4 9617  18.615   6.178   8.631  0.0259  0.0801  0.0592
  613ERGO    R5 9618  18.817   6.254   8.605  0.0595 -0.0310  0.0136
  613ERGO    C1 9619  18.646   6.423   8.309  0.0647  0.1431  0.1097
  613ERGO    C2 9620  18.578   6.509   7.955  0.0963 -0.0209 -0.0351
  614ERGO   ROH 9621   0.836   7.881   9.534 -0.1339  0.0569  0.0297
  614ERGO    R1 9622   0.893   7.806   9.267  0.0329  0.0434  0.0683
  614ERGO    R2 9623   0.695   7.762   9.080  0.1418 -0.1629  0.0006
  614ERGO    R3 9624   0.835   7.945   8.936  0.0472 -0.0784  0.0140
  614ERGO    R4 9625   0.756   7.741   8.740 -0.0021 -0.0117 -0.0363
  614ERGO    R5 9626   0.958   7.814   8.777  0.0019  0.0082 -0.0943
  614ERGO    C1 9627   0.924   7.901   8.407 -0.1747  0.1557 -0.0453
  614ERGO    C2 9628   0.794   7.919   8.045 -0.2878 -0.0369  0.0606
  615ERGO   ROH 9629  16.554   9.540   9.516 -0.1799  0.2920  0.0237
  615ERGO    R1 9630  16.463   9.552   9.248 -0.1176  0.4584  0.0092
  615ERGO    R2 9631  16.547   9.746   9.071  0.3809  0.2280 -0.0189
  615ERGO    R3 9632  16.612   9.531   8.917 -0.1118  0.0295  0.0316
  615ERGO    R4 9633  16.531   9.739   8.725  0.5250  0.2551 -0.0272
  615ERGO    R5 9634  16.452   9.536   8.739 -0.0295  0.4490 -0.0462
  615ERGO    C1 9635  16.582   9.533   8.380  0.1465  0.0846  0.0154
  615ERGO    C2 9636  16.599   9.448   8.020 -0.4785 -0.2096  0.0040
  616ERGO   ROH 9637  10.445   4.149   9.819 -0.2876  0.0252  0.4034
  616ERGO    R1 9638  10.239   4.142   9.625 -0.1740  0.0318  0.2800
  616ERGO    R2 9639  10.162   4.365   9.483 -0.0600  0.0284  0.2063
  616ERGO    R3 9640  10.210   4.205   9.268  0.0497 -0.0032  0.2543
  616ERGO    R4 9641  10.005   4.396   9.177 -0.0851 -0.1768  0.1978
  616ERGO    R5 9642   9.994   4.178   9.166  0.0690 -0.1868  0.2638
  616ERGO    C1 9643   9.958   4.264   8.796  0.0032 -0.3259  0.2379
  616ERGO    C2 9644   9.931   4.248   8.578 -0.0597  0.0835  0.0331
  617ERGO   ROH 9645   7.078   6.780   9.347 -0.0267  0.0957  0.1679
  617ERGO    R1 9646   7.156   6.711   9.084 -0.2007  0.1432  0.1020
  617ERGO    R2 9647   7.317   6.492   9.029 -0.0196  0.3035 -0.0153
  617ERGO    R3 9648   7.113   6.426   8.861 -0.1119  0.0649  0.1833
  617ERGO    R4 9649   7.329   6.240   8.793  0.0373  0.2985 -0.0072
  617ERGO    R5 9650   7.222   6.371   8.655 -0.2431  0.1721  0.0819
  617ERGO    C1 9651   7.146   6.032   8.498 -0.0162  0.0716  0.1841
  617ERGO    C2 9652   6.964   5.958   8.338 -0.0565  0.1053  0.1245
  618ERGO   ROH 9653   5.597   4.033   9.598 -0.1871 -0.0139  0.1740
  618ERGO    R1 9654   5.549   4.281   9.469 -0.0940 -0.0646  0.0378
  618ERGO    R2 9655   5.643   4.521   9.569 -0.2216 -0.0104  0.0480
  618ERGO    R3 9656   5.752   4.544   9.321  0.0218 -0.0949  0.1452
  618ERGO    R4 9657   5.744   4.818   9.424 -0.1679 -0.0546 -0.0032
  618ERGO    R5 9658   5.662   4.748   9.235  0.0477 -0.1698 -0.0494
  618ERGO    C1 9659   5.905   5.012   9.106  0.0919 -0.1598  0.0582
  618ERGO    C2 9660   6.016   5.325   8.859 -0.1709  0.1565  0.0611
  619ERGO   ROH 9661   2.122  16.682   9.411  0.0604  0.1532 -0.0368
  619ERGO    R1 9662   1.958  16.574   9.207  0.1485 -0.1528  0.0503
  619ERGO    R2 9663   1.890  16.716   8.980 -0.3621 -0.2111  0.1564
  619ERGO    R3 9664   1.992  16.498   8.853  0.0560  0.0677 -0.0085
  619ERGO    R4 9665   1.816  16.624   8.655 -0.5618 -0.3496  0.2387
  619ERGO    R5 9666   1.810  16.416   8.720  0.0775 -0.3945  0.2238
  619ERGO    C1 9667   1.868  16.367   8.347 -0.2855 -0.1689  0.1317
  619ERGO    C2 9668   1.905  16.221   8.157  0.0253 -0.0263  0.2406
  620ERGO   ROH 9669  12.960  15.766   9.858  0.4497 -0.0345  0.0824
  620ERGO    R1 9670  12.895  15.810   9.585  0.1388 -0.1310  0.1352
  620ERGO    R2 9671  13.053  15.963   9.418 -0.2033  0.0624 -0.0300
  620ERGO    R3 9672  13.049  15.740   9.263 -0.0684  0.0406 -0.0011
  620ERGO    R4 9673  13.075  15.962   9.073 -0.3078  0.0288 -0.0361
  620ERGO    R5 9674  12.925  15.805   9.069 -0.1772 -0.0915  0.0291
  620ERGO    C1 9675  13.085  15.752   8.727 -0.2420 -0.0112 -0.0124
  620ERGO    C2 9676  13.210  15.862   8.432 -0.1298  0.0844 -0.1791
  621ERGO   ROH 9677   6.124  14.984   9.355  0.0956  0.2567 -0.0562
  621ERGO    R1 9678   5.978  15.025   9.116  0.0932  0.1493 -0.0731
  621ERGO    R2 9679   6.031  15.234   8.943  0.0957  0.0670 -0.1702
  621ERGO    R3 9680   6.052  15.035   8.760  0.0869 -0.0180 -0.0803
  621ERGO    R4 9681   6.030  15.280   8.601  0.0778 -0.0879 -0.1919
  621ERGO    R5 9682   5.906  15.101   8.582  0.0764 -0.0984 -0.1038
  621ERGO    C1 9683   6.049  15.119   8.229  0.0591 -0.2579 -0.1201
  621ERGO    C2 9684   6.052  15.151   7.936 -0.1268  0.3426  0.0708
  622ERGO   ROH 9685  12.257   8.648   9.478  0.4166 -0.2506 -0.0919
  622ERGO    R1 9686  12.112   8.726   9.248  0.0861 -0.1979  0.1267
  622ERGO    R2 9687  12.223   8.726   8.995 -0.1863  0.1202 -0.0038
  622ERGO    R3 9688  12.009   8.570   8.936 -0.1013 -0.0420  0.1102
  622ERGO    R4 9689  12.072   8.708   8.685 -0.3356 -0.0060  0.0755
  622ERGO    R5 9690  11.878   8.703   8.785 -0.2791 -0.1475  0.1723
  622ERGO    C1 9691  11.782   8.551   8.449 -0.3427 -0.2316  0.2288
  622ERGO    C2 9692  11.809   8.497   8.152 -0.3843  0.1638 -0.1059
  623ERGO   ROH 9693  10.192   6.528   9.754  0.1022 -0.0106  0.0102
  623ERGO    R1 9694  10.065   6.537   9.501  0.0677 -0.0742  0.0246
  623ERGO    R2 9695  10.080   6.758   9.335 -0.1231 -0.0353  0.0531
  623ERGO    R3 9696  10.168   6.575   9.155  0.0041  0.0581  0.0203
  623ERGO    R4 9697  10.042   6.785   8.993 -0.1715 -0.0233  0.0593
  623ERGO    R5 9698   9.998   6.571   8.986 -0.0048 -0.0545  0.0343
  623ERGO    C1 9699  10.104   6.629   8.624 -0.0802  0.0713  0.0322
  623ERGO    C2 9700  10.126   6.797   8.350 -0.3396 -0.2918 -0.0265
  624ERGO   ROH 9701   7.077  15.757   9.526 -0.1509  0.1378  0.0254
  624ERGO    R1 9702   7.171  15.895   9.298 -0.2971  0.1811 -0.0094
  624ERGO    R2 9703   7.340  15.779   9.113 -0.0148  0.3707  0.1229
  624ERGO    R3 9704   7.148  15.855   8.937 -0.0839 -0.0578  0.0007
  624ERGO    R4 9705   7.388  15.818   8.773  0.0605  0.3028  0.1250
  624ERGO    R5 9706   7.263  15.996   8.781 -0.2708  0.0836 -0.0115
  624ERGO    C1 9707   7.236  15.913   8.410  0.0394 -0.1389  0.0116
  624ERGO    C2 9708   7.116  16.029   8.059 -0.1996 -0.1034 -0.0741
  625ERGO   ROH 9709  16.777  16.563   9.822 -0.2263  0.1090  0.0053
  625ERGO    R1 9710  16.891  16.509   9.569 -0.1947  0.1709  0.0060
  625ERGO    R2 9711  16.849  16.271   9.436  0.0784  0.0723  0.0866
  625ERGO    R3 9712  16.770  16.435   9.234 -0.1572 -0.0850  0.0473
  625ERGO    R4 9713  16.840  16.183   9.101  0.1051 -0.0443  0.1156
  625ERGO    R5 9714  16.916  16.382   9.052 -0.1358  0.0277  0.0333
  625ERGO    C1 9715  16.760  16.286   8.718 -0.1004 -0.2600  0.0956
  625ERGO    C2 9716  16.710  16.080   8.463 -0.0376 -0.4075 -0.2050
  626ERGO   ROH 9717  13.768   4.681  10.067  0.1191  0.1347 -0.1126
  626ERGO    R1 9718  13.679   4.834   9.845  0.1170  0.0842 -0.1453
  626ERGO    R2 9719  13.788   4.808   9.593  0.0671 -0.0218 -0.1514
  626ERGO    R3 9720  13.529   4.766   9.521  0.0447  0.0173 -0.0997
  626ERGO    R4 9721  13.665   4.841   9.272  0.0390 -0.1279 -0.1533
  626ERGO    R5 9722  13.486   4.934   9.355  0.0724 -0.0398 -0.1692
  626ERGO    C1 9723  13.351   4.821   9.016  0.0017 -0.1530 -0.1058
  626ERGO    C2 9724  13.090   4.881   8.746 -0.2502  0.2899 -0.1935
  627ERGO   ROH 9725   7.001   2.932   9.855  0.1435  0.0111  0.0319
  627ERGO    R1 9726   7.045   2.859   9.585  0.1228  0.0965  0.0047
  627ERGO    R2 9727   6.877   2.688   9.447  0.2265 -0.0305  0.0292
  627ERGO    R3 9728   6.869   2.893   9.269 -0.0109 -0.0036  0.0680
  627ERGO    R4 9729   6.877   2.651   9.104  0.5460  0.0405  0.0185
  627ERGO    R5 9730   7.011   2.822   9.090  0.2522  0.2890  0.1547
  627ERGO    C1 9731   6.869   2.822   8.736  0.5092  0.1069  0.0487
  627ERGO    C2 9732   6.901   2.773   8.354 -0.0083  0.2043  0.1561
  628ERGO   ROH 9733   4.616  13.570   9.445 -0.0028  0.2251 -0.1100
  628ERGO    R1 9734   4.718  13.458   9.206  0.0066  0.2687 -0.1262
  628ERGO    R2 9735   4.570  13.287   9.047  0.0586  0.1981 -0.0948
  628ERGO    R3 9736   4.632  13.467   8.852 -0.0601  0.2218 -0.1123
  628ERGO    R4 9737   4.459  13.271   8.720  0.2468 -0.0419 -0.1494
  628ERGO    R5 9738   4.657  13.334   8.654  0.2100  0.1871 -0.0622
  628ERGO    C1 9739   4.453  13.430   8.347  0.2449 -0.1593 -0.1978
  628ERGO    C2 9740   4.419  13.326   8.030  0.3364  0.1170 -0.1096
  629ERGO   ROH 9741  15.422   5.504   9.661  0.0039 -0.2892 -0.0299
  629ERGO    R1 9742  15.308   5.394   9.426  0.1934 -0.2819 -0.1269
  629ERGO    R2 9743  15.147   5.540   9.256 -0.1238 -0.4239  0.0430
  629ERGO    R3 9744  15.326   5.459   9.069  0.0250  0.1203 -0.0672
  629ERGO    R4 9745  15.075   5.494   8.922 -0.1253 -0.4140  0.0422
  629ERGO    R5 9746  15.200   5.316   8.924  0.3243 -0.1176 -0.1020
  629ERGO    C1 9747  15.201   5.391   8.551  0.0134  0.1027 -0.0618
  629ERGO    C2 9748  15.091   5.298   8.280 -0.0603  0.3859  0.1917
  630ERGO   ROH 9749   5.146  13.204   9.565  0.2941  0.1260  0.0751
  630ERGO    R1 9750   5.109  13.332   9.315  0.2635  0.1386  0.0858
  630ERGO    R2 9751   5.321  13.416   9.158  0.2510 -0.0687 -0.0472
  630ERGO    R3 9752   5.197  13.265   8.968 -0.0012  0.0254  0.0384
  630ERGO    R4 9753   5.285  13.505   8.826  0.1961 -0.0982 -0.0494
  630ERGO    R5 9754   5.083  13.424   8.830  0.1077  0.1218  0.0595
  630ERGO    C1 9755   5.149  13.416   8.455 -0.0727 -0.0272  0.0297
  630ERGO    C2 9756   5.047  13.465   8.091  0.0181 -0.0822  0.2235
  631ERGO   ROH 9757  13.215   2.498   9.816  0.1936 -0.0327 -0.0904
  631ERGO    R1 9758  13.075   2.532   9.572  0.2453 -0.1222 -0.1329
  631ERGO    R2 9759  13.068   2.773   9.438  0.0127 -0.0856 -0.0605
  631ERGO    R3 9760  13.160   2.623   9.230  0.2715  0.0836 -0.0728
  631ERGO    R4 9761  13.016   2.846   9.104 -0.0639 -0.1185 -0.0561
  631ERGO    R5 9762  12.984   2.633   9.067  0.2711 -0.1678 -0.0905
  631ERGO    C1 9763  13.073   2.747   8.715  0.1345  0.0212 -0.0650
  631ERGO    C2 9764  13.164   2.697   8.335  0.0259  0.0846  0.0363
  632ERGO   ROH 9765   6.370   1.924   9.637 -0.1536  0.1836 -0.0131
  632ERGO    R1 9766   6.452   1.988   9.373 -0.2323  0.0543 -0.0700
  632ERGO    R2 9767   6.614   1.822   9.224 -0.0844  0.0858  0.0491
  632ERGO    R3 9768   6.413   1.842   9.042 -0.1212 -0.2466  0.0465
  632ERGO    R4 9769   6.649   1.766   8.885  0.0180  0.1829  0.0433
  632ERGO    R5 9770   6.518   1.937   8.848 -0.2826 -0.0400  0.0588
  632ERGO    C1 9771   6.481   1.753   8.516  0.0433 -0.0726  0.0373
  632ERGO    C2 9772   6.464   1.660   8.189 -0.2645 -0.0687 -0.1868
  633ERGO   ROH 9773  11.317   2.461   9.812  0.3448 -0.0130 -0.0170
  633ERGO    R1 9774  11.182   2.530   9.573  0.1726 -0.0660  0.0639
  633ERGO    R2 9775  11.314   2.623   9.349 -0.0049  0.0410  0.0039
  633ERGO    R3 9776  11.183   2.419   9.226  0.0517 -0.0236  0.0491
  633ERGO    R4 9777  11.289   2.581   9.007 -0.0640  0.0053  0.0120
  633ERGO    R5 9778  11.082   2.520   9.034 -0.0340 -0.0789  0.0634
  633ERGO    C1 9779  11.152   2.365   8.693 -0.0453 -0.0760  0.0590
  633ERGO    C2 9780  11.194   2.551   8.415  0.2362  0.1272 -0.0896
  634ERGO   ROH 9781   2.037   3.820   9.465  0.0032 -0.1431  0.0251
  634ERGO    R1 9782   1.866   3.752   9.249  0.0143 -0.0731 -0.0064
  634ERGO    R2 9783   1.728   3.942   9.103  0.0006 -0.0260  0.0638
  634ERGO    R3 9784   1.851   3.821   8.892  0.0182  0.0671  0.0207
  634ERGO    R4 9785   1.694   4.036   8.772 -0.1695 -0.0412  0.0765
  634ERGO    R5 9786   1.688   3.826   8.717 -0.0395 -0.0419  0.0723
  634ERGO    C1 9787   1.789   3.978   8.382 -0.2521  0.0374  0.0434
  634ERGO    C2 9788   1.946   4.070   8.005  0.1936  0.2745  0.4477
  635ERGO   ROH 9789  14.181  12.520   9.743 -0.0591 -0.0982 -0.0293
  635ERGO    R1 9790  14.146  12.424   9.479  0.0727 -0.2078 -0.0078
  635ERGO    R2 9791  14.012  12.568   9.285 -0.0308 -0.3879 -0.0697
  635ERGO    R3 9792  14.242  12.530   9.144  0.0283 -0.2152 -0.0237
  635ERGO    R4 9793  14.034  12.573   8.940  0.0275 -0.3847 -0.0663
  635ERGO    R5 9794  14.173  12.404   8.952  0.1597 -0.2795 -0.0325
  635ERGO    C1 9795  14.262  12.539   8.607  0.1169 -0.2205 -0.0211
  635ERGO    C2 9796  14.187  12.800   8.255  0.0988  0.2487  0.1459
  636ERGO   ROH 9797   2.902   5.028   9.296 -0.2563  0.1453 -0.0570
  636ERGO    R1 9798   3.004   4.967   9.040 -0.1969  0.0895 -0.0191
  636ERGO    R2 9799   2.858   4.829   8.851 -0.1556  0.0608 -0.0232
  636ERGO    R3 9800   2.917   5.044   8.695 -0.1067  0.0243 -0.0579
  636ERGO    R4 9801   2.915   4.815   8.510 -0.3369  0.0160 -0.0539
  636ERGO    R5 9802   3.076   4.960   8.536 -0.2341 -0.0769 -0.1384
  636ERGO    C1 9803   3.002   5.010   8.165 -0.3967 -0.0443 -0.1043
  636ERGO    C2 9804   2.996   4.902   7.774  0.0336  0.1054  0.1288
  637ERGO   ROH 9805  12.530   1.555   9.762 -0.1696  0.0856  0.1838
  637ERGO    R1 9806  12.419   1.622   9.510 -0.2729  0.1792  0.2554
  637ERGO    R2 9807  12.404   1.882   9.419  0.0769  0.1701  0.1876
  637ERGO    R3 9808  12.535   1.780   9.203 -0.2709 -0.1147  0.0981
  637ERGO    R4 9809  12.363   1.991   9.093  0.2662  0.4575  0.2538
  637ERGO    R5 9810  12.372   1.783   9.028 -0.3466  0.4348  0.1483
  637ERGO    C1 9811  12.462   1.958   8.701  0.0499  0.3575  0.2083
  637ERGO    C2 9812  12.476   2.074   8.415  0.0885  0.0568 -0.2975
  638ERGO   ROH 9813   0.420  16.759   9.954  0.0114 -0.0581  0.0909
  638ERGO    R1 9814   0.298  16.891   9.736  0.1226 -0.0152  0.0535
  638ERGO    R2 9815   0.420  16.915   9.489  0.1097 -0.2666  0.0194
  638ERGO    R3 9816   0.190  16.801   9.400 -0.0392 -0.0460  0.1130
  638ERGO    R4 9817   0.315  16.914   9.160  0.1579 -0.4786  0.0030
  638ERGO    R5 9818   0.112  16.951   9.230  0.1941 -0.1177 -0.0619
  638ERGO    C1 9819   0.038  16.807   8.884  0.0461 -0.3948  0.0812
  638ERGO    C2 9820   0.111  16.918   8.484  0.3887  0.0105 -0.0697
  639ERGO   ROH 9821  14.487   9.998   9.622  0.0741  0.1488  0.0556
  639ERGO    R1 9822  14.555  10.164   9.403  0.0480  0.0708 -0.0115
  639ERGO    R2 9823  14.706  10.074   9.189 -0.0253 -0.0215 -0.0236
  639ERGO    R3 9824  14.495  10.164   9.044 -0.0459 -0.0246  0.0029
  639ERGO    R4 9825  14.672  10.038   8.847 -0.0689 -0.0293 -0.0187
  639ERGO    R5 9826  14.592  10.240   8.838 -0.0714 -0.0278 -0.0120
  639ERGO    C1 9827  14.454  10.101   8.511 -0.1136 -0.0367  0.0090
  639ERGO    C2 9828  14.431  10.175   8.194  0.1775  0.1250 -0.0588
  640ERGO   ROH 9829  10.511   4.653   9.784 -0.0527  0.1989 -0.0983
  640ERGO    R1 9830  10.688   4.564   9.583 -0.1642 -0.1893 -0.0350
  640ERGO    R2 9831  10.624   4.361   9.408 -0.5851 -0.0072 -0.1131
  640ERGO    R3 9832  10.688   4.546   9.219 -0.0453 -0.0984 -0.0386
  640ERGO    R4 9833  10.667   4.293   9.071 -0.7861  0.0167 -0.1446
  640ERGO    R5 9834  10.836   4.431   9.070 -0.3758 -0.4695 -0.0889
  640ERGO    C1 9835  10.750   4.427   8.698 -0.3964 -0.0551 -0.0930
  640ERGO    C2 9836  10.673   4.184   8.356 -0.1117  0.0374  0.0507
  641ERGO   ROH 9837   0.504   2.249   9.513 -0.0441 -0.1588  0.0667
  641ERGO    R1 9838   0.370   2.182   9.273  0.0722 -0.1383 -0.0035
  641ERGO    R2 9839   0.355   2.354   9.058  0.0671 -0.0710  0.0560
  641ERGO    R3 9840   0.459   2.143   8.922  0.2124  0.0255  0.0115
  641ERGO    R4 9841   0.310   2.295   8.720 -0.0570 -0.1306  0.0812
  641ERGO    R5 9842   0.287   2.083   8.765  0.1835 -0.1567  0.1062
  641ERGO    C1 9843   0.381   2.062   8.396  0.0072 -0.0746  0.0540
  641ERGO    C2 9844   0.281   1.967   8.142 -0.2490  0.1853  0.1210
  642ERGO   ROH 9845  16.390   3.287   9.537  0.0155  0.1385  0.0232
  642ERGO    R1 9846  16.475   3.229   9.274  0.0593  0.1342  0.0387
  642ERGO    R2 9847  16.368   3.023   9.125  0.1248  0.0972  0.0462
  642ERGO    R3 9848  16.323   3.220   8.943  0.1007  0.0689  0.0206
  642ERGO    R4 9849  16.240   2.975   8.807 -0.0205  0.0550  0.1100
  642ERGO    R5 9850  16.382   3.122   8.733 -0.0111  0.0036  0.0171
  642ERGO    C1 9851  16.124   3.132   8.452 -0.1277  0.0038  0.1231
  642ERGO    C2 9852  15.902   3.026   8.285  0.2069  0.3279  0.1382
  643ERGO   ROH 9853  15.476   8.749   9.633  0.0998 -0.1547 -0.1384
  643ERGO    R1 9854  15.413   8.890   9.396  0.0591 -0.1019 -0.0968
  643ERGO    R2 9855  15.607   9.002   9.234  0.0316 -0.0659 -0.1054
  643ERGO    R3 9856  15.486   8.854   9.041 -0.0014 -0.0235 -0.1171
  643ERGO    R4 9857  15.743   8.932   8.924  0.0458 -0.1321 -0.0848
  643ERGO    R5 9858  15.545   8.963   8.836  0.0706 -0.0554 -0.1128
  643ERGO    C1 9859  15.707   8.754   8.561  0.0230 -0.1309 -0.0836
  643ERGO    C2 9860  15.749   8.641   8.181  0.0498  0.0933 -0.0779
  644ERGO   ROH 9861   7.256  11.014   9.763 -0.1001 -0.2175 -0.1222
  644ERGO    R1 9862   7.277  10.908   9.502 -0.0351 -0.1553 -0.1441
  644ERGO    R2 9863   7.083  10.947   9.308 -0.0418 -0.1963 -0.1571
  644ERGO    R3 9864   7.293  11.040   9.163 -0.0661 -0.0742 -0.1113
  644ERGO    R4 9865   7.122  10.905   8.967  0.1088 -0.2340 -0.1347
  644ERGO    R5 9866   7.334  10.870   9.001  0.1168 -0.0692 -0.0618
  644ERGO    C1 9867   7.342  10.969   8.633  0.1737 -0.1414 -0.0786
  644ERGO    C2 9868   7.300  11.014   8.366  0.0217 -0.2466 -0.1032
  645ERGO   ROH 9869   1.698   8.789   9.306 -0.0913 -0.0182  0.0110
  645ERGO    R1 9870   1.833   8.964   9.129  0.0831 -0.1146  0.0475
  645ERGO    R2 9871   2.010   8.874   8.937 -0.0370 -0.2550  0.0008
  645ERGO    R3 9872   1.850   9.016   8.769  0.0986 -0.0271  0.0609
  645ERGO    R4 9873   2.092   8.960   8.613 -0.0081 -0.3100 -0.0067
  645ERGO    R5 9874   2.002   9.156   8.647  0.2462 -0.1987  0.0443
  645ERGO    C1 9875   1.989   9.144   8.266  0.1361 -0.1281  0.0453
  645ERGO    C2 9876   2.044   9.318   8.020 -0.0882  0.1432  0.0968
  646ERGO   ROH 9877  13.345  18.522   9.570 -0.2114  0.2729 -0.0777
  646ERGO    R1 9878  13.473  18.374   9.366 -0.2195  0.1397  0.0131
  646ERGO    R2 9879  13.336  18.261   9.155 -0.1998  0.2047 -0.0309
  646ERGO    R3 9880  13.514  18.402   9.005 -0.0195  0.0431  0.0259
  646ERGO    R4 9881  13.416  18.190   8.826 -0.1476  0.1190 -0.0007
  646ERGO    R5 9882  13.624  18.235   8.873 -0.1197 -0.0642  0.0719
  646ERGO    C1 9883  13.630  18.281   8.494  0.0522 -0.0828  0.0702
  646ERGO    C2 9884  13.503  18.228   8.188 -0.1577  0.0275  0.2988
  647ERGO   ROH 9885   8.053  15.350   9.145  0.1726 -0.1024  0.0652
  647ERGO    R1 9886   7.980  15.265   8.885  0.0690 -0.0679  0.0818
  647ERGO    R2 9887   8.115  15.346   8.658 -0.0026 -0.0581  0.0372
  647ERGO    R3 9888   8.136  15.078   8.614 -0.0468 -0.0560  0.0081
  647ERGO    R4 9889   8.165  15.199   8.349 -0.0511 -0.0417  0.0221
  647ERGO    R5 9890   8.024  15.043   8.405 -0.0667 -0.0227  0.0171
  647ERGO    C1 9891   8.214  14.863   8.127 -0.1207 -0.0301 -0.0139
  647ERGO    C2 9892   8.281  14.933   7.717 -0.5254  0.3296  0.1084
  648ERGO   ROH 9893   2.892   4.703   9.702  0.0575  0.2490 -0.1480
  648ERGO    R1 9894   3.046   4.646   9.472  0.1110 -0.2487 -0.0014
  648ERGO    R2 9895   3.062   4.393   9.362 -0.6277 -0.3204 -0.0011
  648ERGO    R3 9896   2.983   4.522   9.136  0.0126 -0.0141 -0.0701
  648ERGO    R4 9897   3.123   4.284   9.039 -0.5373 -0.3887  0.0389
  648ERGO    R5 9898   3.163   4.490   8.982  0.1217 -0.4750  0.1429
  648ERGO    C1 9899   3.084   4.343   8.640  0.1164 -0.1409 -0.0026
  648ERGO    C2 9900   3.044   4.248   8.375 -0.1265  0.1846 -0.0678
  649ERGO   ROH 9901  17.751   6.417   9.362 -0.0635  0.1218 -0.0241
  649ERGO    R1 9902  17.776   6.614   9.159 -0.0274  0.1276 -0.0144
  649ERGO    R2 9903  17.880   6.557   8.909  0.0427  0.1416  0.0110
  649ERGO    R3 9904  17.645   6.664   8.823  0.0562  0.1228 -0.0480
  649ERGO    R4 9905  17.787   6.590   8.578  0.0651  0.0038 -0.0091
  649ERGO    R5 9906  17.704   6.786   8.625  0.0778  0.0318 -0.0982
  649ERGO    C1 9907  17.513   6.709   8.304  0.0912 -0.0942 -0.0760
  649ERGO    C2 9908  17.443   6.576   7.974  0.1488  0.2601  0.6611
  650ERGO   ROH 9909  16.735   6.142   9.313 -0.0753  0.3820  0.1270
  650ERGO    R1 9910  16.782   6.137   9.034 -0.0438  0.4237  0.1315
  650ERGO    R2 9911  16.743   5.911   8.881  0.5130  0.2763  0.1860
  650ERGO    R3 9912  16.585   6.077   8.734  0.1099 -0.1357  0.1324
  650ERGO    R4 9913  16.750   5.934   8.536  0.6956  0.4102  0.1974
  650ERGO    R5 9914  16.728   6.151   8.556  0.0302  0.3561  0.2592
  650ERGO    C1 9915  16.607   6.103   8.197  0.4233  0.1013  0.1536
  650ERGO    C2 9916  16.576   6.161   7.838  0.0690  0.0911  0.1182
  651ERGO   ROH 9917  11.067   0.915   9.825  0.0135 -0.0918  0.0019
  651ERGO    R1 9918  11.031   1.053   9.580  0.0344  0.0247  0.0633
  651ERGO    R2 9919  11.242   1.117   9.413  0.0397  0.0198  0.0644
  651ERGO    R3 9920  11.093   0.986   9.228 -0.0300  0.1493  0.0286
  651ERGO    R4 9921  11.313   1.103   9.075  0.1191 -0.0631  0.0844
  651ERGO    R5 9922  11.100   1.126   9.034  0.1528  0.1315  0.0236
  651ERGO    C1 9923  11.213   0.971   8.704  0.0998  0.0102  0.0622
  651ERGO    C2 9924  11.252   1.001   8.306  0.2051 -0.2449  0.1773
  652ERGO   ROH 9925   3.201  12.818   9.263 -0.0565 -0.0215  0.1317
  652ERGO    R1 9926   3.003  12.781   9.064 -0.0548  0.0658  0.1142
  652ERGO    R2 9927   3.025  12.888   8.811  0.0469  0.0007  0.0965
  652ERGO    R3 9928   2.984  12.631   8.734 -0.1095  0.0102  0.1420
  652ERGO    R4 9929   2.951  12.788   8.488  0.1760 -0.0275  0.0748
  652ERGO    R5 9930   2.809  12.645   8.570  0.0052  0.1075  0.0238
  652ERGO    C1 9931   2.870  12.488   8.228  0.1043 -0.0350  0.1049
  652ERGO    C2 9932   3.070  12.445   7.827 -0.2678  0.0227 -0.3529
  653ERGO   ROH 9933  15.544   9.950   9.671  0.1193 -0.2827 -0.0864
  653ERGO    R1 9934  15.471   9.989   9.401  0.0946 -0.1804 -0.0656
  653ERGO    R2 9935  15.616  10.152   9.229  0.1058 -0.1523 -0.0299
  653ERGO    R3 9936  15.622   9.928   9.075  0.0443 -0.1040 -0.1037
  653ERGO    R4 9937  15.721  10.140   8.900 -0.0131 -0.0498 -0.0723
  653ERGO    R5 9938  15.558  10.003   8.857 -0.0327 -0.0322 -0.0573
  653ERGO    C1 9939  15.788   9.923   8.564 -0.1400  0.0553 -0.1663
  653ERGO    C2 9940  16.061   9.672   8.340 -0.3910  0.1778 -0.2516
  654ERGO   ROH 9941   3.986  15.160   9.320 -0.2693  0.0770 -0.1863
  654ERGO    R1 9942   3.843  15.063   9.096 -0.0986 -0.0974 -0.2221
  654ERGO    R2 9943   3.906  15.134   8.836 -0.0655 -0.0921 -0.2117
  654ERGO    R3 9944   3.918  14.865   8.799  0.1909 -0.0907 -0.1564
  654ERGO    R4 9945   3.871  14.975   8.531 -0.0551 -0.1935 -0.1604
  654ERGO    R5 9946   3.753  14.821   8.631  0.1495 -0.2947 -0.0665
  654ERGO    C1 9947   3.862  14.630   8.319  0.1916 -0.2511 -0.0787
  654ERGO    C2 9948   3.790  14.564   8.052 -0.1317  0.1717  0.0847
  655ERGO   ROH 9949   7.373   8.044   9.690 -0.0082 -0.0642 -0.0683
  655ERGO    R1 9950   7.449   8.144   9.436 -0.2775  0.0156 -0.1216
  655ERGO    R2 9951   7.287   8.313   9.288 -0.2834  0.3788  0.2711
  655ERGO    R3 9952   7.508   8.471   9.288 -0.0369  0.0476  0.0418
  655ERGO    R4 9953   7.324   8.601   9.101  0.0184  0.2575  0.1391
  655ERGO    R5 9954   7.530   8.543   9.061 -0.0980 -0.0703  0.0007
  655ERGO    C1 9955   7.553   8.917   8.992  0.4254 -0.1240 -0.1531
  655ERGO    C2 9956   7.600   9.073   8.706  0.1545 -0.0603  0.0929
  656ERGO   ROH 9957   3.248  16.097   9.184 -0.1510 -0.0258  0.0008
  656ERGO    R1 9958   3.339  16.242   8.958 -0.1223  0.1148  0.1014
  656ERGO    R2 9959   3.370  16.126   8.709  0.1281  0.2116  0.0835
  656ERGO    R3 9960   3.209  16.331   8.631  0.0136  0.1079  0.0449
  656ERGO    R4 9961   3.378  16.276   8.398  0.0113  0.1291  0.0401
  656ERGO    R5 9962   3.350  16.469   8.495 -0.0748  0.1421 -0.0118
  656ERGO    C1 9963   3.232  16.554   8.142 -0.1641 -0.0163 -0.0213
  656ERGO    C2 9964   3.113  16.608   7.792 -0.1550 -0.0580  0.3575
  657ERGO   ROH 9965  16.451   1.984   9.569 -0.0638 -0.0569 -0.0805
  657ERGO    R1 9966  16.423   2.051   9.295  0.0013  0.0284 -0.0669
  657ERGO    R2 9967  16.558   1.917   9.095 -0.0364  0.0162 -0.0857
  657ERGO    R3 9968  16.309   1.884   8.993 -0.0405  0.1608 -0.1242
  657ERGO    R4 9969  16.490   1.818   8.771 -0.0420 -0.1871 -0.0238
  657ERGO    R5 9970  16.327   1.963   8.767  0.0912 -0.0397 -0.1851
  657ERGO    C1 9971  16.216   1.729   8.486 -0.0492 -0.1698 -0.0240
  657ERGO    C2 9972  16.120   1.581   8.155 -0.2526 -0.0173 -0.1248
  658ERGO   ROH 9973   4.032   9.341   9.043  0.0465 -0.1166  0.0556
  658ERGO    R1 9974   4.113   9.255   8.786  0.0817 -0.0581  0.0466
  658ERGO    R2 9975   3.935   9.161   8.598  0.1077 -0.0242  0.0028
  658ERGO    R3 9976   4.049   9.352   8.442  0.1203  0.0149  0.0603
  658ERGO    R4 9977   3.978   9.137   8.255 -0.2925  0.2599 -0.0739
  658ERGO    R5 9978   4.174   9.229   8.279 -0.1759  0.0470 -0.1987
  658ERGO    C1 9979   4.110   9.303   7.910 -0.5137  0.4620 -0.0644
  658ERGO    C2 9980   4.112   9.306   7.497 -0.1691 -0.0449 -0.0274
  659ERGO   ROH 9981  17.250   7.301   9.471 -0.1301  0.0233  0.4446
  659ERGO    R1 9982  17.194   7.289   9.194  0.0103 -0.0691  0.4195
  659ERGO    R2 9983  16.955   7.190   9.095  0.0560 -0.0873  0.3332
  659ERGO    R3 9984  16.946   7.431   8.969  0.1339 -0.1310  0.2418
  659ERGO    R4 9985  16.819   7.244   8.782 -0.0467 -0.1412  0.3675
  659ERGO    R5 9986  16.985   7.379   8.738  0.0103 -0.2460  0.2441
  659ERGO    C1 9987  16.732   7.502   8.481 -0.0334 -0.2136  0.3016
  659ERGO    C2 9988  16.648   7.439   8.141  0.1415 -0.1910  0.1837
  660ERGO   ROH 9989   4.070   7.989   9.450 -0.0122  0.3989 -0.0262
  660ERGO    R1 9990   4.180   7.881   9.213 -0.0533  0.2473  0.0235
  660ERGO    R2 9991   4.033   7.727   9.037 -0.1228  0.2584  0.0739
  660ERGO    R3 9992   4.120   7.910   8.856 -0.0110  0.1407  0.0067
  660ERGO    R4 9993   4.023   7.685   8.694 -0.3270  0.2128  0.0841
  660ERGO    R5 9994   4.220   7.778   8.682 -0.2291  0.0041 -0.0207
  660ERGO    C1 9995   4.099   7.832   8.324 -0.3410  0.0756  0.0270
  660ERGO    C2 9996   4.133   7.851   7.961  0.0823  0.2744 -0.2045
  661ERGO   ROH 9997   0.429   4.386   9.253 -0.1034  0.0476  0.0934
  661ERGO    R1 9998   0.282   4.401   9.012  0.0219  0.1017  0.0199
  661ERGO    R2 9999   0.400   4.374   8.764  0.0945 -0.2344  0.0892
  661ERGO    R310000   0.212   4.180   8.731 -0.1751  0.0128  0.1359
  661ERGO    R410001   0.323   4.222   8.462  0.1204 -0.4244  0.1763
  661ERGO    R510002   0.112   4.230   8.518  0.0763 -0.0464 -0.0012
  661ERGO    C110003   0.102   3.953   8.256 -0.1177 -0.3030  0.2709
  661ERGO    C210004  -0.098   3.832   7.940  0.0098  0.0114  0.0387
  662ERGO   ROH10005   1.144  11.425   8.873  0.1571 -0.1313 -0.1165
  662ERGO    R110006   0.946  11.465   8.676  0.2427  0.0340 -0.1719
  662ERGO    R210007   1.007  11.516   8.411  0.3631 -0.3084 -0.2193
  662ERGO    R310008   0.844  11.303   8.366 -0.0004 -0.0786 -0.0344
  662ERGO    R410009   0.829  11.461   8.120  0.2755 -0.2749 -0.1719
  662ERGO    R510010   0.661  11.393   8.241  0.1541  0.1167 -0.1176
  662ERGO    C110011   0.572  11.229   7.909 -0.1167 -0.0397  0.0292
  662ERGO    C210012   0.486  11.194   7.572 -0.3113 -0.1227 -0.1672
  663ERGO   ROH10013   1.861   0.447   9.860 -0.0531 -0.3394 -0.1036
  663ERGO    R110014   1.707   0.490   9.627 -0.0090 -0.3123 -0.1282
  663ERGO    R210015   1.759   0.697   9.451 -0.1269 -0.1405  0.0323
  663ERGO    R310016   1.768   0.496   9.268  0.1167 -0.0096 -0.1045
  663ERGO    R410017   1.753   0.742   9.109 -0.0353  0.0868  0.0590
  663ERGO    R510018   1.621   0.569   9.093  0.1201 -0.0185 -0.1093
  663ERGO    C110019   1.757   0.580   8.737  0.2466  0.3420 -0.0540
  663ERGO    C210020   1.803   0.555   8.331 -0.0770 -0.0268  0.0603
  664ERGO   ROH10021  15.874  17.740   9.689 -0.1535  0.1206 -0.0048
  664ERGO    R110022  15.899  17.853   9.431 -0.1054  0.0320 -0.0382
  664ERGO    R210023  16.133  17.841   9.285 -0.0976 -0.0659 -0.0106
  664ERGO    R310024  15.972  17.732   9.095 -0.1015 -0.0898  0.0048
  664ERGO    R410025  16.233  17.761   8.964 -0.1071 -0.0701 -0.0136
  664ERGO    R510026  16.042  17.837   8.891 -0.1220 -0.0894 -0.0053
  664ERGO    C110027  16.141  17.612   8.599 -0.1163 -0.0949 -0.0008
  664ERGO    C210028  16.238  17.567   8.332  0.2264 -0.0752 -0.4121
  665ERGO   ROH10029   1.982   2.442   9.843  0.1209  0.1768  0.1429
  665ERGO    R110030   2.017   2.621   9.627  0.3877  0.1422  0.1543
  665ERGO    R210031   2.222   2.596   9.445  0.1778 -0.3471 -0.0282
  665ERGO    R310032   2.020   2.600   9.264  0.0150  0.2049  0.1426
  665ERGO    R410033   2.257   2.685   9.112  0.1691 -0.5249 -0.0785
  665ERGO    R510034   2.066   2.791   9.126  0.4721  0.0525  0.0627
  665ERGO    C110035   2.086   2.740   8.749  0.0114 -0.1103  0.0524
  665ERGO    C210036   2.329   2.761   8.503  0.1244 -0.0208  0.0122
  666ERGO   ROH10037  16.266  15.311   9.919 -0.1006 -0.2067 -0.1132
  666ERGO    R110038  16.125  15.367   9.680 -0.1586 -0.2584 -0.0907
  666ERGO    R210039  16.233  15.517   9.475 -0.3630  0.0592  0.0287
  666ERGO    R310040  16.169  15.300   9.326 -0.0044  0.0581 -0.1361
  666ERGO    R410041  16.282  15.490   9.134 -0.1797  0.3411  0.0284
  666ERGO    R510042  16.089  15.390   9.119 -0.0439  0.0822 -0.1124
  666ERGO    C110043  16.250  15.269   8.795  0.2635  0.5042 -0.1266
  666ERGO    C210044  16.202  15.262   8.471 -0.0093  0.2894 -0.1285
  667ERGO   ROH10045   4.244  11.137   9.307 -0.2331 -0.1869 -0.0066
  667ERGO    R110046   4.126  11.187   9.055 -0.1616 -0.1027 -0.0231
  667ERGO    R210047   4.230  11.370   8.876 -0.1510  0.0050  0.0977
  667ERGO    R310048   4.226  11.158   8.706 -0.0392  0.0842 -0.0063
  667ERGO    R410049   4.256  11.393   8.532 -0.3435  0.2119  0.0941
  667ERGO    R510050   4.104  11.237   8.516 -0.2123  0.0744  0.0943
  667ERGO    C110051   4.267  11.207   8.172 -0.3506  0.4066 -0.0054
  667ERGO    C210052   4.378  11.017   7.804  0.2160 -0.0391  0.0261
  668ERGO   ROH10053   7.526  17.175   9.131  0.0463  0.0141  0.0401
  668ERGO    R110054   7.525  17.078   8.865 -0.0091 -0.0493  0.0626
  668ERGO    R210055   7.292  17.023   8.727 -0.0426  0.0355  0.0807
  668ERGO    R310056   7.399  17.191   8.543  0.0397 -0.0607  0.0401
  668ERGO    R410057   7.332  16.949   8.392 -0.0791 -0.0597  0.0972
  668ERGO    R510058   7.526  17.049   8.398 -0.0316 -0.1547  0.0721
  668ERGO    C110059   7.455  17.064   8.024 -0.0229 -0.2053  0.0687
  668ERGO    C210060   7.477  17.196   7.634 -0.3612 -0.0005  0.0087
  669ERGO   ROH10061   9.036  10.810   9.803  0.0988  0.0649  0.0976
  669ERGO    R110062   8.994  10.818   9.523  0.0711  0.0365  0.1011
  669ERGO    R210063   8.774  10.939   9.409  0.0248 -0.0355  0.1145
  669ERGO    R310064   8.963  11.074   9.267 -0.0284  0.0124  0.0887
  669ERGO    R410065   8.748  11.020   9.074 -0.0067 -0.1122  0.0982
  669ERGO    R510066   8.960  10.970   9.051  0.0140 -0.0320  0.1090
  669ERGO    C110067   8.910  11.193   8.746 -0.0750 -0.1118  0.0645
  669ERGO    C210068   8.806  11.274   8.447  0.1396 -0.0909 -0.0148
  670ERGO   ROH10069  11.114   1.404   9.921 -0.2260  0.0274 -0.0174
  670ERGO    R110070  10.989   1.520   9.694 -0.3105 -0.0711 -0.0217
  670ERGO    R210071  11.127   1.579   9.462 -0.2869  0.2879  0.0770
  670ERGO    R310072  10.935   1.426   9.347  0.0318  0.0055 -0.0993
  670ERGO    R410073  11.075   1.550   9.122 -0.0580  0.3521  0.0348
  670ERGO    R510074  10.861   1.555   9.159 -0.0908 -0.0337 -0.0764
  670ERGO    C110075  10.864   1.390   8.815  0.3745  0.1243 -0.1553
  670ERGO    C210076  10.791   1.188   8.557  0.3698 -0.0291 -0.4507
  671ERGO   ROH10077  18.493   7.248   9.438  0.0426 -0.2976 -0.0726
  671ERGO    R110078  18.648   7.170   9.215  0.0167 -0.1153 -0.1555
  671ERGO    R210079  18.537   7.122   8.967 -0.0048  0.1380 -0.1967
  671ERGO    R310080  18.721   7.304   8.884  0.0235  0.1835 -0.0369
  671ERGO    R410081  18.611   7.192   8.637  0.1371  0.2787 -0.1364
  671ERGO    R510082  18.822   7.204   8.691  0.1147  0.2673 -0.0359
  671ERGO    C110083  18.827   7.404   8.367  0.2464  0.4035  0.0487
  671ERGO    C210084  18.763   7.659   8.085  0.0930 -0.7478 -0.0012
  672ERGO   ROH10085   4.527   0.275   9.629  0.1317  0.0972 -0.1836
  672ERGO    R110086   4.347   0.349   9.423 -0.1025 -0.1365 -0.0688
  672ERGO    R210087   4.428   0.482   9.195 -0.4654  0.2690  0.0253
  672ERGO    R310088   4.304   0.276   9.070 -0.0146  0.0774 -0.1252
  672ERGO    R410089   4.335   0.480   8.862 -0.1378  0.1512 -0.0693
  672ERGO    R510090   4.150   0.380   8.919 -0.0403 -0.1538 -0.2636
  672ERGO    C110091   4.165   0.284   8.551  0.4761 -0.0972 -0.2655
  672ERGO    C210092   4.238   0.236   8.223  0.0077  0.3674  0.0236
  673ERGO   ROH10093   5.920  16.436   9.621  0.0070  0.2348  0.1021
  673ERGO    R110094   5.934  16.312   9.367 -0.2558  0.0890  0.1560
  673ERGO    R210095   5.744  16.353   9.171 -0.1627  0.4249  0.1362
  673ERGO    R310096   5.961  16.421   9.021  0.0007 -0.1163  0.1075
  673ERGO    R410097   5.740  16.413   8.830 -0.0555  0.3970  0.1289
  673ERGO    R510098   5.929  16.306   8.814 -0.3017 -0.0725  0.1230
  673ERGO    C110099   5.941  16.510   8.492  0.1604 -0.1270  0.0979
  673ERGO    C210100   5.973  16.793   8.411 -0.1130 -0.3738  0.0294
  674loPI    C110101  12.078  14.371   5.227  0.1239  0.0497  0.2627
  674loPI    C210102  12.122  14.732   5.059  0.2734 -0.1417 -0.1225
  674loPI    C310103  11.779  14.531   5.014  0.2464 -0.1144 -0.0393
  674loPI   PO410104  12.046  14.397   5.481 -0.2338 -0.1169  0.2030
  674loPI   GL110105  11.904  14.468   5.927  0.1320  0.3313 -0.0645
  674loPI   GL210106  11.578  14.533   5.900  0.2135  0.0491 -0.1332
  674loPI   C1A10107  11.999  14.751   6.295  0.0353 -0.0202  0.0090
  674loPI   C2A10108  12.288  14.712   6.695  0.1155  0.1220 -0.1228
  674loPI   C3A10109  12.382  14.364   7.043 -0.0404 -0.1602 -0.0952
  674loPI   C4A10110  12.285  14.267   7.414 -0.1190 -0.2392  0.2404
  674loPI   C5A10111  12.158  13.890   7.743  0.1668 -0.0026 -0.4369
  674loPI   C6A10112  12.137  13.507   7.824 -0.3109 -0.4259 -0.1062
  674loPI   C1B10113  11.451  14.572   6.272  0.1830  0.1665  0.1126
  674loPI   C2B10114  11.392  14.533   6.721 -0.1223 -0.1500  0.1727
  674loPI   C3B10115  11.530  14.518   7.100 -0.0021  0.2326 -0.1242
  674loPI   C4B10116  11.543  14.690   7.521  0.0282 -0.1599  0.1580
  675loPI    C110117  13.459   9.039   4.828 -0.0803 -0.2824  0.0059
  675loPI    C210118  13.648   8.699   4.733 -0.0193 -0.3061  0.2059
  675loPI    C310119  13.858   9.030   4.812 -0.0775 -0.2297  0.0453
  675loPI   PO410120  13.235   8.870   4.982  0.0061  0.1766  0.1231
  675loPI   GL110121  13.110   8.841   5.446 -0.0056  0.2081 -0.0251
  675loPI   GL210122  13.081   9.179   5.489 -0.2713 -0.2769 -0.0022
  675loPI   C1A10123  13.122   8.687   5.833 -0.3753 -0.0152 -0.0727
  675loPI   C2A10124  13.107   8.631   6.264 -0.0474  0.1469  0.0071
  675loPI   C3A10125  13.291   8.923   6.673  0.2590  0.1088  0.2491
  675loPI   C4A10126  13.275   9.006   7.157  0.0748  0.0854 -0.3482
  675loPI   C5A10127  13.061   8.727   7.651  0.0838  0.2388 -0.0284
  675loPI   C6A10128  12.611   8.580   7.794  0.1568  0.0308 -0.0002
  675loPI   C1B10129  13.077   9.354   5.912 -0.2909  0.1145  0.0325
  675loPI   C2B10130  12.956   9.258   6.273 -0.0309 -0.0040  0.0887
  675loPI   C3B10131  12.649   9.349   6.569 -0.0537  0.2142  0.2160
  675loPI   C4B10132  12.413   9.136   6.925  0.2611 -0.0518  0.3446
  676loPI    C110133   0.031   4.779   4.763 -0.1139 -0.1518 -0.0337
  676loPI    C210134  -0.041   4.781   4.369 -0.4060 -0.1149  0.0174
  676loPI    C310135   0.303   4.632   4.509 -0.3956 -0.3363 -0.2352
  676loPI   PO410136   0.058   5.075   4.807 -0.0371  0.2058  0.0618
  676loPI   GL110137   0.087   5.050   5.242  0.2412  0.2709 -0.3216
  676loPI   GL210138   0.014   4.683   5.280 -0.2478 -0.0086 -0.0141
  676loPI   C1A10139  -0.022   5.204   5.631  0.2781 -0.0567 -0.0065
  676loPI   C2A10140  -0.163   5.181   6.052  0.0802  0.0808  0.0185
  676loPI   C3A10141  -0.427   5.205   6.426 -0.3071  0.0250 -0.1797
  676loPI   C4A10142  -0.340   5.261   6.834 -0.0408 -0.3420 -0.0197
  676loPI   C5A10143  -0.677   5.429   7.273 -0.1321 -0.1285  0.0132
  676loPI   C6A10144  -0.650   5.554   7.659 -0.0614  0.1312 -0.2189
  676loPI   C1B10145  -0.051   4.695   5.725 -0.0456 -0.1758 -0.4275
  676loPI   C2B10146  -0.150   4.687   6.167 -0.1939 -0.2541 -0.0272
  676loPI   C3B10147  -0.168   4.809   6.657  0.1813  0.0193  0.1630
  676loPI   C4B10148  -0.026   4.719   7.103 -0.1756  0.2062  0.0608
  677loPI    C110149  18.037   5.213   4.562 -0.2027 -0.0130  0.1316
  677loPI    C210150  17.733   5.437   4.430 -0.1701  0.0096  0.0948
  677loPI    C310151  18.069   5.408   4.214 -0.0975  0.0869  0.1966
  677loPI   PO410152  18.108   5.268   4.870 -0.0488 -0.2923 -0.0356
  677loPI   GL110153  18.075   5.317   5.254 -0.2152 -0.2778 -0.0781
  677loPI   GL210154  17.731   5.190   5.355  0.0885 -0.3572 -0.1775
  677loPI   C1A10155  17.862   5.597   5.545 -0.3214  0.0999  0.3058
  677loPI   C2A10156  17.963   5.821   5.897  0.1420 -0.0441 -0.2723
  677loPI   C3A10157  17.908   5.697   6.440 -0.1547  0.1016 -0.0423
  677loPI   C4A10158  17.774   5.552   6.839  0.2781  0.3349  0.0085
  677loPI   C5A10159  17.671   5.483   7.344  0.1214  0.0470  0.3032
  677loPI   C6A10160  17.820   5.257   7.795 -0.1001  0.3613  0.0792
  677loPI   C1B10161  17.571   5.059   5.689  0.0057  0.0776 -0.1108
  677loPI   C2B10162  17.629   4.900   6.093  0.2137 -0.1250  0.0782
  677loPI   C3B10163  17.773   4.694   6.401  0.1582  0.3008  0.1531
  677loPI   C4B10164  17.758   4.617   6.864 -0.1628 -0.1110  0.0639
  678loPI    C110165  17.671  15.145   4.884 -0.2909  0.1901  0.3502
  678loPI    C210166  17.600  15.534   4.824 -0.2882  0.1595  0.1430
  678loPI    C310167  17.301  15.270   4.798 -0.2219  0.1051 -0.0915
  678loPI   PO410168  17.831  15.181   5.114  0.0396 -0.1648 -0.3809
  678loPI   GL110169  18.031  15.088   5.472 -0.0187 -0.0554  0.1488
  678loPI   GL210170  18.215  14.764   5.399  0.0519  0.1803  0.0095
  678loPI   C1A10171  18.351  15.020   5.828 -0.1272 -0.1643  0.0218
  678loPI   C2A10172  18.334  14.982   6.287 -0.1373 -0.1655 -0.1373
  678loPI   C3A10173  18.284  14.849   6.710  0.2892 -0.0559  0.1378
  678loPI   C4A10174  18.335  14.996   7.025 -0.0492  0.1710 -0.1651
  678loPI   C5A10175  18.347  15.286   7.348 -0.0785 -0.2336 -0.1722
  678loPI   C6A10176  18.447  15.469   7.763 -0.0123 -0.1918  0.0865
  678loPI   C1B10177  18.650  14.823   5.486 -0.1124  0.0836 -0.1385
  678loPI   C2B10178  18.821  14.770   5.858 -0.2299  0.0526 -0.1265
  678loPI   C3B10179  18.822  14.953   6.270 -0.0543 -0.1166  0.1405
  678loPI   C4B10180  18.774  14.963   6.740  0.1774 -0.1540  0.3119
  679loPI    C110181   7.581   0.411   5.086 -0.0772  0.1637  0.0386
  679loPI    C210182   7.374   0.274   4.772  0.4337 -0.0951 -0.1967
  679loPI    C310183   7.603   0.600   4.734  0.0192  0.2415  0.0859
  679loPI   PO410184   7.362   0.477   5.287 -0.3313 -0.1221  0.1692
  679loPI   GL110185   7.059   0.383   5.620  0.0805  0.1532  0.0895
  679loPI   GL210186   7.366   0.281   5.768  0.0205  0.0670  0.0360
  679loPI   C1A10187   6.918   0.302   6.046 -0.3876  0.1949  0.1130
  679loPI   C2A10188   6.818   0.488   6.395 -0.1680  0.1219 -0.0993
  679loPI   C3A10189   6.836   0.555   6.824  0.2474  0.1479  0.1249
  679loPI   C4A10190   6.866   0.618   7.197 -0.1657 -0.0906  0.3155
  679loPI   C5A10191   6.886   0.845   7.616 -0.1074  0.2877  0.1405
  679loPI   C6A10192   7.082   1.005   7.949 -0.0262  0.3192  0.1292
  679loPI   C1B10193   7.400   0.424   6.190  0.2113  0.0231 -0.0018
  679loPI   C2B10194   7.245   0.757   6.339  0.2956  0.5137 -0.1077
  679loPI   C3B10195   7.118   1.020   6.686  0.2944 -0.1440  0.0963
  679loPI   C4B10196   7.050   1.080   7.139 -0.0526  0.0060  0.0122
  680loPI    C110197  12.284   9.768   5.158  0.2341  0.0168  0.0877
  680loPI    C210198  12.185  10.047   5.427 -0.1303 -0.0215 -0.0017
  680loPI    C310199  12.131  10.118   5.037  0.1426 -0.0697 -0.0497
  680loPI   PO410200  12.189   9.573   5.407  0.0718 -0.0743  0.0604
  680loPI   GL110201  12.062   9.679   5.805 -0.0236  0.0446  0.2400
  680loPI   GL210202  12.241   9.866   5.929 -0.1872 -0.1081  0.0831
  680loPI   C1A10203  11.949   9.624   6.276 -0.0769  0.0530 -0.3675
  680loPI   C2A10204  12.107   9.500   6.690 -0.1874 -0.2427 -0.4326
  680loPI   C3A10205  11.801   9.617   7.020  0.1043  0.0412  0.0763
  680loPI   C4A10206  11.385   9.769   7.188 -0.1288 -0.1771  0.0128
  680loPI   C5A10207  10.942   9.903   7.204  0.1795 -0.1848 -0.1887
  680loPI   C6A10208  10.511   9.918   7.263 -0.0234  0.0963  0.0069
  680loPI   C1B10209  12.429   9.932   6.331  0.6053 -0.2302  0.0976
  680loPI   C2B10210  12.371   9.902   6.750  0.2156 -0.4120  0.0928
  680loPI   C3B10211  12.422   9.596   7.095 -0.1886 -0.0263 -0.1840
  680loPI   C4B10212  12.647   9.737   7.461 -0.1601 -0.2334 -0.0593
  681loPI    C110213   3.375  16.655   4.593 -0.0370  0.2449  0.0056
  681loPI    C210214   3.088  16.524   4.839 -0.0480 -0.0641 -0.1662
  681loPI    C310215   3.017  16.553   4.446  0.0585  0.1596 -0.1706
  681loPI   PO410216   3.497  16.833   4.778 -0.1280 -0.0175 -0.0912
  681loPI   GL110217   3.587  16.915   5.165 -0.1867 -0.0911  0.4291
  681loPI   GL210218   3.611  16.533   5.278 -0.2311  0.2887 -0.1078
  681loPI   C1A10219   3.840  16.872   5.538  0.0955 -0.1138 -0.5890
  681loPI   C2A10220   4.258  16.933   5.635 -0.1228 -0.1898  0.1411
  681loPI   C3A10221   4.599  16.855   5.601  0.1474 -0.0818  0.2924
  681loPI   C4A10222   4.883  16.708   5.900 -0.1005  0.4701  0.1879
  681loPI   C5A10223   4.790  16.629   6.342  0.0124 -0.0108  0.0862
  681loPI   C6A10224   4.878  16.762   6.757  0.0905 -0.3415  0.0174
  681loPI   C1B10225   3.783  16.406   5.718  0.0164 -0.2365  0.2482
  681loPI   C2B10226   3.903  16.313   6.128  0.0085  0.0823  0.0048
  681loPI   C3B10227   3.909  16.023   6.539  0.2575 -0.1775 -0.1714
  681loPI   C4B10228   3.968  15.890   6.991  0.1200 -0.1666 -0.1011
  682loPI    C110229   2.614   9.708   4.769  0.1215  0.1903 -0.0277
  682loPI    C210230   2.788   9.874   4.450 -0.2492  0.2552 -0.2016
  682loPI    C310231   2.466   9.641   4.404 -0.1650  0.0721  0.1065
  682loPI   PO410232   2.551   9.793   4.958 -0.0217 -0.0425 -0.1084
  682loPI   GL110233   2.472   9.857   5.417 -0.4086 -0.3024 -0.1340
  682loPI   GL210234   2.290  10.030   5.346 -0.1913  0.3031 -0.2684
  682loPI   C1A10235   2.556   9.599   5.824 -0.1978  0.2530 -0.0156
  682loPI   C2A10236   2.675   9.472   6.255  0.2980  0.0698  0.1783
  682loPI   C3A10237   2.751   9.446   6.672 -0.3308  0.1294  0.1616
  682loPI   C4A10238   2.927   9.478   7.136  0.0481 -0.3009 -0.1026
  682loPI   C5A10239   3.126   9.901   7.165 -0.1849  0.1749  0.0044
  682loPI   C6A10240   3.086  10.278   7.274  0.1101 -0.0336 -0.0638
  682loPI   C1B10241   2.385  10.039   5.879  0.0752  0.0387 -0.1842
  682loPI   C2B10242   2.430  10.070   6.315  0.0764 -0.0374 -0.1552
  682loPI   C3B10243   2.468   9.906   6.759  0.4155  0.3177  0.0006
  682loPI   C4B10244   2.554   9.783   7.120  0.1162 -0.0745  0.0249
  683loPI    C110245   9.472   1.503   5.155  0.2464 -0.0567 -0.0789
  683loPI    C210246   9.144   1.285   5.225  0.1612  0.1094  0.0474
  683loPI    C310247   9.160   1.526   4.906  0.1442  0.1328  0.0643
  683loPI   PO410248   9.548   1.553   5.402 -0.1752 -0.0309 -0.1982
  683loPI   GL110249   9.497   1.523   5.804 -0.1055  0.0994 -0.0003
  683loPI   GL210250   9.590   1.133   5.651  0.2182  0.0687 -0.0066
  683loPI   C1A10251   9.415   1.264   6.161  0.2186  0.3587 -0.0334
  683loPI   C2A10252   9.565   1.171   6.531 -0.1730 -0.1628 -0.2083
  683loPI   C3A10253   9.817   1.074   6.861  0.1287 -0.1550  0.0673
  683loPI   C4A10254   9.909   1.122   7.293 -0.0128 -0.2595 -0.2044
  683loPI   C5A10255   9.738   1.440   7.381  0.1358  0.2783 -0.0621
  683loPI   C6A10256   9.725   1.648   7.751 -0.0057  0.1680 -0.4550
  683loPI   C1B10257   9.775   1.005   5.996  0.2052 -0.0049 -0.1426
  683loPI   C2B10258  10.084   0.997   6.333  0.3153  0.0061 -0.3414
  683loPI   C3B10259  10.164   0.793   6.678  0.0573  0.0764  0.0478
  683loPI   C4B10260  10.235   0.709   7.127 -0.6573  0.0397  0.0407
  684loPI    C110261   5.595   4.778   5.144  0.1226  0.0100  0.2315
  684loPI    C210262   5.704   4.395   5.180 -0.1308 -0.0927 -0.0518
  684loPI    C310263   5.710   4.572   4.822 -0.1456  0.1291  0.0558
  684loPI   PO410264   5.684   4.911   5.368  0.4652  0.4281 -0.1392
  684loPI   GL110265   5.650   5.101   5.743  0.3390 -0.2896  0.1053
  684loPI   GL210266   5.664   4.805   5.847  0.3108  0.2352 -0.0270
  684loPI   C1A10267   5.779   5.225   6.184 -0.1878 -0.0598 -0.2923
  684loPI   C2A10268   5.918   5.164   6.619  0.0592  0.2079 -0.3419
  684loPI   C3A10269   6.054   5.171   7.028  0.1137 -0.3568  0.0227
  684loPI   C4A10270   6.162   5.428   7.347  0.3868  0.1267 -0.0652
  684loPI   C5A10271   6.152   5.467   7.827 -0.4016  0.0457  0.1758
  684loPI   C6A10272   6.172   5.181   8.195  0.3246 -0.1877  0.0226
  684loPI   C1B10273   5.661   4.711   6.211  0.1538  0.1914 -0.1601
  684loPI   C2B10274   5.729   4.704   6.668 -0.0449  0.3347  0.0222
  684loPI   C3B10275   5.826   4.531   7.008 -0.0296  0.2201  0.1942
  684loPI   C4B10276   5.619   4.458   7.384  0.0213 -0.3090 -0.0219
  685loPI    C110277  14.075  17.319   5.133 -0.0248  0.1170  0.0560
  685loPI    C210278  13.814  17.125   4.899 -0.0179  0.0001  0.1440
  685loPI    C310279  14.207  17.088   4.834 -0.0069 -0.2451  0.3360
  685loPI   PO410280  14.021  17.613   5.059  0.0941  0.2528 -0.1497
  685loPI   GL110281  13.756  17.802   5.291  0.0689 -0.0044 -0.1764
  685loPI   GL210282  13.459  17.760   5.383 -0.1527 -0.2301  0.3673
  685loPI   C1A10283  13.900  17.537   5.662  0.2105  0.2223  0.2489
  685loPI   C2A10284  14.052  17.531   6.061  0.0675  0.1302 -0.3710
  685loPI   C3A10285  14.161  17.568   6.422 -0.1679  0.1477 -0.0095
  685loPI   C4A10286  14.480  17.657   6.532  0.1051 -0.2623 -0.0073
  685loPI   C5A10287  14.507  17.712   6.879 -0.0264  0.1681 -0.0229
  685loPI   C6A10288  14.495  17.443   7.324  0.0654 -0.0529  0.2236
  685loPI   C1B10289  13.498  17.958   5.757  0.3269 -0.1133  0.1184
  685loPI   C2B10290  13.553  18.090   6.137  0.0288  0.0779  0.0003
  685loPI   C3B10291  13.697  17.753   6.384 -0.1118  0.1062 -0.1642
  685loPI   C4B10292  13.796  17.544   6.746  0.2242 -0.0248 -0.0267
  686loPI    C110293   8.673   6.036   4.885  0.1227  0.3729 -0.1644
  686loPI    C210294   9.065   6.087   4.820  0.2173  0.0286  0.1086
  686loPI    C310295   8.884   5.750   4.702  0.0824  0.0278  0.3128
  686loPI   PO410296   8.611   6.064   5.106 -0.0123 -0.0688  0.2359
  686loPI   GL110297   8.692   6.025   5.546  0.0772  0.0300 -0.1052
  686loPI   GL210298   8.574   6.279   5.544 -0.0307 -0.3095 -0.1795
  686loPI   C1A10299   8.561   5.929   5.940  0.0169 -0.1641 -0.4360
  686loPI   C2A10300   8.411   6.045   6.342 -0.2683 -0.0087  0.2687
  686loPI   C3A10301   8.202   6.223   6.655 -0.0630  0.2704 -0.1835
  686loPI   C4A10302   8.192   6.267   7.067  0.0239  0.0020 -0.1121
  686loPI   C5A10303   8.107   6.491   7.451 -0.2762 -0.0796 -0.0488
  686loPI   C6A10304   7.863   6.867   7.693 -0.0812  0.2242 -0.2136
  686loPI   C1B10305   8.523   6.393   5.942 -0.2037 -0.1324 -0.2769
  686loPI   C2B10306   8.592   6.478   6.396 -0.0807  0.2019 -0.1394
  686loPI   C3B10307   8.629   6.523   6.816 -0.0176 -0.2730  0.1983
  686loPI   C4B10308   8.591   6.579   7.231  0.2278 -0.0094  0.2040
  687loPI    C110309   7.847  18.441   5.150 -0.0319  0.1258  0.0222
  687loPI    C210310   7.716  18.771   4.965 -0.4056 -0.0862 -0.1018
  687loPI    C310311   7.736  18.425   4.766 -0.1622 -0.1743  0.0704
  687loPI   PO410312   7.737  18.482   5.429  0.0037  0.0044  0.1969
  687loPI   GL110313   7.433  18.337   5.785 -0.0629 -0.1203 -0.2565
  687loPI   GL210314   7.568  18.653   5.864  0.3368 -0.0807 -0.0209
  687loPI   C1A10315   7.774  18.270   6.121 -0.1807 -0.0265  0.2522
  687loPI   C2A10316   7.848  18.135   6.406 -0.1523 -0.0187 -0.1636
  687loPI   C3A10317   8.044  18.148   6.893  0.0010 -0.0675  0.0921
  687loPI   C4A10318   8.211  17.952   7.300  0.0674  0.0712  0.3753
  687loPI   C5A10319   8.361  17.552   7.339  0.4613  0.0131 -0.0527
  687loPI   C6A10320   8.338  17.130   7.200  0.0787  0.1524 -0.1661
  687loPI   C1B10321   7.528  18.676   6.332  0.1504  0.0117 -0.2400
  687loPI   C2B10322   7.550  18.675   6.710 -0.1613 -0.0679 -0.0414
  687loPI   C3B10323   7.654  18.354   7.011  0.0768  0.1277 -0.0935
  687loPI   C4B10324   7.601  18.099   7.364  0.2057 -0.3529 -0.3298
  688loPI    C110325  15.291   4.359   4.986  0.4121  0.1093  0.0226
  688loPI    C210326  15.163   4.612   4.704 -0.0456 -0.1472 -0.0093
  688loPI    C310327  15.157   4.218   4.637  0.1595 -0.1947  0.2357
  688loPI   PO410328  15.313   4.458   5.219  0.3267 -0.0834  0.1007
  688loPI   GL110329  15.290   4.655   5.678  0.3112 -0.2862  0.2059
  688loPI   GL210330  15.145   4.884   5.642  0.1406  0.0919 -0.0834
  688loPI   C1A10331  15.395   4.626   6.239  0.2037 -0.1332  0.0126
  688loPI   C2A10332  15.225   4.624   6.724 -0.0266 -0.1321 -0.3099
  688loPI   C3A10333  15.202   4.803   7.189 -0.1261  0.0039 -0.0605
  688loPI   C4A10334  14.954   4.982   7.482 -0.1509 -0.0938  0.0656
  688loPI   C5A10335  14.787   5.048   7.816 -0.0498  0.3428  0.0332
  688loPI   C6A10336  14.594   5.411   8.081  0.0205 -0.0296  0.0489
  688loPI   C1B10337  15.184   5.001   6.002  0.2209  0.1025  0.2221
  688loPI   C2B10338  15.157   5.014   6.410 -0.4135 -0.0029  0.0590
  688loPI   C3B10339  15.290   5.129   6.814 -0.0125 -0.2270 -0.4442
  688loPI   C4B10340  15.327   5.321   7.242  0.0505 -0.0762  0.1385
  689loPI    C110341  18.167  14.291   4.715 -0.1069  0.1261 -0.0462
  689loPI    C210342  17.851  14.079   4.594  0.0058  0.0876 -0.2780
  689loPI    C310343  18.133  14.185   4.331  0.1426  0.1964 -0.0894
  689loPI   PO410344  18.179  14.177   4.984  0.1885 -0.2788  0.0364
  689loPI   GL110345  18.402  14.031   5.369 -0.2266 -0.2723  0.1735
  689loPI   GL210346  18.425  14.285   5.431 -0.0904  0.0990  0.1036
  689loPI   C1A10347  18.420  13.926   5.763  0.2301 -0.2233  0.1305
  689loPI   C2A10348  18.285  13.957   6.152  0.4545  0.2965  0.0142
  689loPI   C3A10349  18.180  13.870   6.540 -0.1143 -0.0433 -0.0773
  689loPI   C4A10350  18.295  13.527   6.948 -0.1628 -0.1365  0.2529
  689loPI   C5A10351  18.309  13.521   7.323 -0.1881  0.1525  0.1421
  689loPI   C6A10352  17.995  13.368   7.662 -0.0817  0.0417 -0.3929
  689loPI   C1B10353  18.365  14.521   5.915  0.2395 -0.0297 -0.0917
  689loPI   C2B10354  18.519  14.481   6.241  0.2481  0.2488 -0.1318
  689loPI   C3B10355  18.190  14.392   6.570  0.1386  0.3096  0.0366
  689loPI   C4B10356  18.176  14.294   7.002 -0.1269  0.3469  0.0908
  690loPI    C110357  10.342  10.740   5.018  0.1322 -0.0701  0.1575
  690loPI    C210358  10.306  10.362   4.890  0.3034  0.0073 -0.1287
  690loPI    C310359  10.032  10.635   4.789  0.2091 -0.0260  0.0324
  690loPI   PO410360  10.471  10.705   5.252 -0.3595  0.2298 -0.0012
  690loPI   GL110361  10.421  10.776   5.628  0.2935  0.0275 -0.0765
  690loPI   GL210362  10.262  11.108   5.630 -0.1196 -0.0405 -0.2888
  690loPI   C1A10363  10.369  10.842   6.037  0.0074 -0.0526  0.1588
  690loPI   C2A10364  10.660  10.631   6.245 -0.0860  0.2924 -0.2342
  690loPI   C3A10365  10.879  10.668   6.737  0.0979 -0.1055 -0.0529
  690loPI   C4A10366  10.804  10.385   7.150 -0.1353 -0.1515  0.1233
  690loPI   C5A10367  10.791  10.518   7.501 -0.0371  0.1201  0.1249
  690loPI   C6A10368  10.565  10.598   7.968 -0.0423 -0.3087 -0.1530
  690loPI   C1B10369   9.868  11.130   5.956  0.1684  0.0799  0.1094
  690loPI   C2B10370   9.948  11.063   6.440  0.1564  0.0446 -0.0220
  690loPI   C3B10371  10.086  11.056   6.825 -0.1273 -0.1733  0.2077
  690loPI   C4B10372  10.255  11.171   7.302  0.0733 -0.3151 -0.1371
  691loPI    C110373   2.108   5.753   4.978 -0.0690  0.0672  0.2469
  691loPI    C210374   2.148   5.367   4.884 -0.2098  0.1246 -0.0605
  691loPI    C310375   2.266   5.649   4.626 -0.3087  0.2873  0.0703
  691loPI   PO410376   2.131   5.852   5.195  0.3349  0.3286 -0.0879
  691loPI   GL110377   2.152   5.612   5.684  0.0111 -0.0947  0.2101
  691loPI   GL210378   2.146   5.367   5.881 -0.2700  0.1406 -0.0685
  691loPI   C1A10379   2.050   5.975   5.867 -0.3086 -0.0144  0.0824
  691loPI   C2A10380   1.777   6.073   6.188  0.1416  0.0261 -0.0821
  691loPI   C3A10381   1.643   6.117   6.594  0.0555  0.1255  0.0831
  691loPI   C4A10382   1.497   5.779   6.848 -0.2702  0.0946  0.2904
  691loPI   C5A10383   1.173   5.826   7.164  0.2656 -0.1558 -0.0561
  691loPI   C6A10384   0.960   6.095   7.382 -0.2725 -0.4331 -0.3036
  691loPI   C1B10385   2.385   5.660   6.090 -0.1675 -0.1044  0.0186
  691loPI   C2B10386   2.327   6.059   6.353 -0.2055  0.0072  0.2475
  691loPI   C3B10387   2.654   6.166   6.703  0.2358  0.0465  0.0289
  691loPI   C4B10388   2.887   6.002   6.989  0.0758  0.1063  0.0676
  692loPI    C110389  15.909   5.411   5.038 -0.0779 -0.1728  0.0243
  692loPI    C210390  15.760   5.715   4.825  0.2734 -0.0673 -0.0782
  692loPI    C310391  15.777   5.348   4.665 -0.0812 -0.1295  0.0181
  692loPI   PO410392  16.153   5.501   5.229  0.2226  0.1873  0.0319
  692loPI   GL110393  16.167   5.706   5.579 -0.1105 -0.0359  0.0612
  692loPI   GL210394  15.940   5.912   5.682  0.2494  0.1519 -0.2574
  692loPI   C1A10395  16.392   5.817   5.943  0.1923 -0.0197  0.0179
  692loPI   C2A10396  16.445   5.922   6.360  0.3020  0.1290 -0.0221
  692loPI   C3A10397  16.423   6.158   6.654 -0.1649  0.0687 -0.0034
  692loPI   C4A10398  16.404   6.358   7.054  0.0528 -0.3524  0.2010
  692loPI   C5A10399  16.796   6.527   7.264 -0.1919  0.3190  0.0675
  692loPI   C6A10400  17.197   6.588   7.399  0.0511  0.3876  0.1303
  692loPI   C1B10401  16.134   6.217   5.948  0.0379 -0.2919  0.0053
  692loPI   C2B10402  16.037   6.373   6.330 -0.2574  0.0315 -0.0550
  692loPI   C3B10403  16.005   6.452   6.802 -0.1161  0.1352 -0.0356
  692loPI   C4B10404  15.983   6.617   7.279  0.2587 -0.1167  0.1193
  693loPI    C110405  11.892   0.759   5.145  0.0135  0.1927  0.1296
  693loPI    C210406  12.136   1.021   5.323  0.2416  0.0213  0.0750
  693loPI    C310407  12.213   0.899   4.950  0.1230 -0.1045  0.0911
  693loPI   PO410408  11.830   0.532   5.276  0.1806 -0.1739  0.0172
  693loPI   GL110409  11.681   0.465   5.675  0.2130 -0.3371  0.0502
  693loPI   GL210410  11.713   0.226   5.776 -0.1141  0.0586  0.0656
  693loPI   C1A10411  11.631   0.527   6.214 -0.1776  0.0874 -0.1459
  693loPI   C2A10412  11.698   0.610   6.608  0.0052 -0.0823  0.0361
  693loPI   C3A10413  11.709   0.490   7.098  0.1270  0.2990 -0.1354
  693loPI   C4A10414  11.721   0.669   7.506 -0.3567  0.3392  0.2674
  693loPI   C5A10415  12.101   0.843   7.690 -0.0917 -0.2447 -0.1756
  693loPI   C6A10416  12.273   1.198   7.853 -0.1485 -0.4107  0.0344
  693loPI   C1B10417  11.686   0.036   6.176 -0.1233  0.0772  0.1355
  693loPI   C2B10418  11.543  -0.245   6.484 -0.0807 -0.0804 -0.5816
  693loPI   C3B10419  11.496  -0.394   6.868  0.0417 -0.1959  0.1219
  693loPI   C4B10420  11.415  -0.275   7.312  0.2364 -0.2003 -0.3892
  694loPI    C110421  13.199   7.454   4.923 -0.0345  0.4319 -0.1574
  694loPI    C210422  12.967   7.210   4.708  0.1754 -0.0088  0.1033
  694loPI    C310423  13.061   7.571   4.566 -0.0974 -0.0941 -0.3142
  694loPI   PO410424  13.121   7.505   5.208  0.1653 -0.2983  0.1016
  694loPI   GL110425  12.794   7.395   5.633 -0.1029 -0.1480  0.0374
  694loPI   GL210426  12.458   7.490   5.582 -0.1384 -0.2349  0.3157
  694loPI   C1A10427  12.972   7.673   5.963  0.1475 -0.1715  0.0040
  694loPI   C2A10428  12.972   7.673   6.455  0.3182  0.0691  0.0364
  694loPI   C3A10429  13.040   7.751   6.930 -0.2173 -0.0500  0.0215
  694loPI   C4A10430  12.966   7.521   7.292 -0.2702 -0.1068 -0.0460
  694loPI   C5A10431  12.690   7.498   7.639  0.0474  0.0361 -0.1350
  694loPI   C6A10432  12.411   7.249   7.752  0.0832  0.2356  0.1608
  694loPI   C1B10433  12.477   7.859   5.732 -0.4502 -0.0487  0.0587
  694loPI   C2B10434  12.656   8.022   6.156 -0.3885  0.2413 -0.2953
  694loPI   C3B10435  12.516   7.978   6.624 -0.2489  0.1882  0.0209
  694loPI   C4B10436  12.698   7.975   7.159  0.0097 -0.0084 -0.0033
  695loPI    C110437  15.348  18.049   5.531  0.0080 -0.0156  0.3161
  695loPI    C210438  15.484  17.910   5.181 -0.1564  0.0387  0.2297
  695loPI    C310439  15.122  17.802   5.312 -0.1429  0.1107  0.3277
  695loPI   PO410440  15.551  18.002   5.703 -0.0697  0.3611  0.0701
  695loPI   GL110441  15.398  17.719   6.036 -0.0143  0.1829 -0.2463
  695loPI   GL210442  15.077  17.744   5.842 -0.1240  0.0415 -0.0969
  695loPI   C1A10443  15.753  17.933   6.347  0.0826  0.1967  0.3093
  695loPI   C2A10444  15.755  17.859   6.772  0.1797 -0.0716  0.0425
  695loPI   C3A10445  15.742  17.896   7.214 -0.0379  0.1141  0.0202
  695loPI   C4A10446  15.390  17.639   7.346  0.2586  0.0479  0.0732
  695loPI   C5A10447  15.428  17.216   7.580  0.0007  0.0644 -0.0043
  695loPI   C6A10448  15.314  17.251   7.972  0.3132  0.2375 -0.0893
  695loPI   C1B10449  14.927  17.583   6.253  0.1743 -0.1171  0.1166
  695loPI   C2B10450  14.966  17.569   6.723  0.1988  0.1791  0.1089
  695loPI   C3B10451  15.010  17.317   7.202  0.6450  0.2111  0.0735
  695loPI   C4B10452  14.868  17.333   7.647  0.1296 -0.1773  0.1458
  696loPI    C110453  18.268  11.356   4.745  0.2051  0.1004  0.0760
  696loPI    C210454  18.150  11.111   4.452  0.0519 -0.0371  0.2502
  696loPI    C310455  18.347  11.448   4.364  0.1017 -0.1302 -0.0026
  696loPI   PO410456  18.031  11.269   4.970  0.2866 -0.0454  0.1824
  696loPI   GL110457  17.941  11.359   5.396  0.0734 -0.1422 -0.1966
  696loPI   GL210458  17.909  10.960   5.373  0.2861 -0.0237  0.0689
  696loPI   C1A10459  18.152  11.524   5.648 -0.0425 -0.1696 -0.0065
  696loPI   C2A10460  18.236  11.656   6.054 -0.0065  0.1549 -0.0285
  696loPI   C3A10461  18.242  11.711   6.465 -0.2680  0.1073 -0.0868
  696loPI   C4A10462  18.235  11.772   6.869 -0.2633  0.1761  0.0267
  696loPI   C5A10463  18.210  12.168   7.236 -0.0774  0.1073 -0.1551
  696loPI   C6A10464  18.359  12.503   7.500  0.0377  0.1264 -0.0803
  696loPI   C1B10465  17.940  10.910   5.701 -0.1076 -0.2028  0.3073
  696loPI   C2B10466  17.728  10.882   6.047  0.1057  0.1607 -0.1777
  696loPI   C3B10467  17.953  10.899   6.442 -0.0727  0.0220 -0.3226
  696loPI   C4B10468  18.005  10.859   6.823  0.4741  0.1767 -0.0782
  697loPI    C110469   2.654  12.605   4.851  0.0730 -0.0305 -0.0921
  697loPI    C210470   2.989  12.743   4.682  0.0924  0.0335 -0.0019
  697loPI    C310471   2.634  12.886   4.568  0.0989  0.0019 -0.0619
  697loPI   PO410472   2.639  12.339   4.874 -0.1202  0.1533 -0.1888
  697loPI   GL110473   2.679  12.137   5.242 -0.0431 -0.2408 -0.1816
  697loPI   GL210474   2.348  12.252   5.306  0.0229  0.0844 -0.0510
  697loPI   C1A10475   2.908  12.241   5.648 -0.3466 -0.0589  0.2231
  697loPI   C2A10476   3.108  12.275   6.000  0.2455  0.1943  0.0990
  697loPI   C3A10477   3.041  12.312   6.523 -0.1403 -0.2527 -0.0461
  697loPI   C4A10478   3.078  12.240   6.961  0.1831 -0.0902  0.1133
  697loPI   C5A10479   3.224  12.564   7.305 -0.0659  0.1646  0.0088
  697loPI   C6A10480   3.037  12.921   7.474 -0.3207  0.1079 -0.0639
  697loPI   C1B10481   2.428  12.282   5.756  0.1482 -0.2586  0.0437
  697loPI   C2B10482   2.348  12.198   6.275 -0.0522 -0.0335 -0.0709
  697loPI   C3B10483   2.582  12.182   6.666  0.1930  0.1922  0.0191
  697loPI   C4B10484   2.661  11.928   7.046  0.0409  0.2444 -0.0037
  698loPI    C110485   6.433   2.009   5.067 -0.1142  0.2960  0.1098
  698loPI    C210486   6.108   1.867   4.883  0.0768  0.2303 -0.1823
  698loPI    C310487   6.391   1.615   5.013  0.0137  0.2872  0.0692
  698loPI   PO410488   6.396   2.144   5.243 -0.3015 -0.2553 -0.0845
  698loPI   GL110489   6.138   2.154   5.673  0.1881 -0.2683  0.0233
  698loPI   GL210490   6.213   1.915   5.931  0.0072 -0.0799  0.2333
  698loPI   C1A10491   6.356   2.380   6.011  0.0999 -0.1816 -0.0944
  698loPI   C2A10492   6.246   2.585   6.418  0.0259  0.1141 -0.0246
  698loPI   C3A10493   6.121   2.526   6.787 -0.1035 -0.3186  0.0115
  698loPI   C4A10494   5.862   2.470   7.052  0.2723  0.0043  0.2100
  698loPI   C5A10495   5.774   2.372   7.445  0.0266 -0.1557  0.0630
  698loPI   C6A10496   6.046   2.367   7.859  0.3701 -0.1626  0.1735
  698loPI   C1B10497   6.272   1.909   6.299 -0.1994 -0.0907 -0.0514
  698loPI   C2B10498   6.158   2.002   6.768 -0.3712 -0.1368  0.2333
  698loPI   C3B10499   5.981   1.955   7.128  0.0836 -0.1725  0.4992
  698loPI   C4B10500   5.813   1.895   7.485 -0.0752  0.0521 -0.1203
  699loPI    C110501  18.365  13.730   4.921 -0.1882  0.0374 -0.1061
  699loPI    C210502  18.149  13.638   4.598 -0.2880  0.1106 -0.0607
  699loPI    C310503  18.448  13.902   4.570  0.1368 -0.3732 -0.2385
  699loPI   PO410504  18.363  13.598   5.069 -0.0667 -0.1817 -0.1040
  699loPI   GL110505  18.562  13.532   5.377  0.1359  0.1874 -0.1218
  699loPI   GL210506  18.905  13.735   5.380  0.0652 -0.3292 -0.0034
  699loPI   C1A10507  18.486  13.459   5.866 -0.1690  0.2582  0.0840
  699loPI   C2A10508  18.402  13.414   6.319  0.1699  0.0561  0.0657
  699loPI   C3A10509  18.629  13.690   6.538 -0.1824  0.1981 -0.2637
  699loPI   C4A10510  18.754  13.830   6.967  0.1800 -0.4231 -0.1181
  699loPI   C5A10511  18.927  14.189   7.212  0.0683 -0.0590  0.0445
  699loPI   C6A10512  19.234  14.410   7.481  0.2552 -0.0973 -0.0760
  699loPI   C1B10513  18.980  13.763   5.779 -0.1016 -0.0666 -0.3114
  699loPI   C2B10514  18.769  13.982   6.163 -0.0452  0.2484  0.0869
  699loPI   C3B10515  18.650  14.222   6.668 -0.1330  0.2288 -0.0253
  699loPI   C4B10516  18.627  14.553   6.949 -0.0893 -0.0383 -0.0503
  700loPI    C110517   9.552   9.283   4.753  0.2946 -0.4938  0.2396
  700loPI    C210518   9.405   9.127   4.415  0.0420  0.2431 -0.0102
  700loPI    C310519   9.790   9.235   4.436  0.0709  0.1470 -0.0414
  700loPI   PO410520   9.486   9.205   4.960 -0.3715  0.1709  0.0180
  700loPI   GL110521   9.447   9.230   5.307  0.1310  0.1763 -0.0101
  700loPI   GL210522   9.718   9.014   5.462  0.1505 -0.0388  0.0382
  700loPI   C1A10523   9.322   9.095   5.771  0.1990  0.2083 -0.1474
  700loPI   C2A10524   9.367   8.908   6.186  0.1742 -0.1637  0.4120
  700loPI   C3A10525   9.236   8.947   6.571  0.0404 -0.0329 -0.2175
  700loPI   C4A10526   9.054   8.855   7.027 -0.2105  0.0116  0.4871
  700loPI   C5A10527   8.830   8.811   7.291  0.4042 -0.2793 -0.0446
  700loPI   C6A10528   8.523   8.676   7.551  0.2442  0.3325  0.1559
  700loPI   C1B10529   9.813   9.035   5.882  0.1658 -0.0357  0.1473
  700loPI   C2B10530   9.661   9.268   6.219 -0.1263  0.1443  0.0983
  700loPI   C3B10531   9.637   9.229   6.621 -0.3639 -0.0947  0.1367
  700loPI   C4B10532   9.491   9.137   7.033 -0.1409 -0.1994 -0.0211
  701loPI    C110533  12.689   0.741   4.825 -0.0405  0.2044 -0.1408
  701loPI    C210534  13.019   0.545   4.713 -0.0376 -0.0335  0.2622
  701loPI    C310535  12.856   0.818   4.470  0.1607 -0.2792 -0.1590
  701loPI   PO410536  12.686   0.790   5.126 -0.1528 -0.2917  0.1020
  701loPI   GL110537  12.519   0.789   5.559 -0.2334 -0.0283  0.2431
  701loPI   GL210538  12.191   0.584   5.619 -0.1613 -0.0347  0.1024
  701loPI   C1A10539  12.641   0.996   5.805 -0.0282 -0.0347 -0.1932
  701loPI   C2A10540  12.881   1.179   6.116 -0.3012  0.0179  0.1002
  701loPI   C3A10541  12.819   1.175   6.519  0.0870  0.2038 -0.2119
  701loPI   C4A10542  12.998   1.056   6.888 -0.0189 -0.1697 -0.1636
  701loPI   C5A10543  13.007   0.733   7.231 -0.3732  0.1562 -0.1417
  701loPI   C6A10544  13.285   0.395   7.367 -0.2977 -0.1334  0.2738
  701loPI   C1B10545  12.087   0.462   6.006  0.3383 -0.0993  0.2837
  701loPI   C2B10546  12.127   0.307   6.399  0.1317 -0.4355 -0.2190
  701loPI   C3B10547  11.816   0.125   6.701 -0.0877 -0.0364  0.1070
  701loPI   C4B10548  11.853   0.006   7.176  0.1629  0.2749 -0.3209
  702loPI    C110549   9.997   1.791   5.206  0.0318 -0.0879 -0.1597
  702loPI    C210550  10.383   1.688   5.225  0.0265 -0.0691  0.0888
  702loPI    C310551  10.273   2.013   5.020  0.1211 -0.1692 -0.1250
  702loPI   PO410552   9.984   1.737   5.558 -0.0416 -0.1352  0.3603
  702loPI   GL110553  10.258   1.536   5.831  0.3705  0.0693 -0.0021
  702loPI   GL210554  10.072   1.280   5.767 -0.0919 -0.1191 -0.0185
  702loPI   C1A10555  10.411   1.431   6.197  0.1837  0.1941 -0.1151
  702loPI   C2A10556  10.582   1.577   6.584  0.0826  0.1268  0.1757
  702loPI   C3A10557  10.921   1.667   6.771  0.1562  0.1370 -0.1822
  702loPI   C4A10558  11.014   1.885   7.257  0.1438 -0.1789  0.1795
  702loPI   C5A10559  11.025   1.610   7.665  0.0193 -0.2908  0.0708
  702loPI   C6A10560  10.622   1.648   7.850  0.0944 -0.0314 -0.1773
  702loPI   C1B10561   9.900   1.403   6.190 -0.1601  0.1778  0.0198
  702loPI   C2B10562  10.053   1.416   6.572  0.2365  0.1086 -0.3684
  702loPI   C3B10563  10.121   1.475   7.006 -0.1811 -0.0789  0.0489
  702loPI   C4B10564  10.401   1.192   7.177 -0.1641  0.4026 -0.0538
  703loPI    C110565  15.518  14.650   5.095  0.1972  0.0115  0.1277
  703loPI    C210566  15.790  14.875   4.907  0.0329  0.1537  0.0573
  703loPI    C310567  15.552  14.633   4.697  0.0379  0.1033  0.1095
  703loPI   PO410568  15.407  14.800   5.340 -0.2642  0.0145 -0.1449
  703loPI   GL110569  15.183  14.701   5.696  0.3637 -0.2417 -0.3651
  703loPI   GL210570  15.017  14.431   5.789 -0.0643  0.4076 -0.3940
  703loPI   C1A10571  15.082  14.758   6.178 -0.0464  0.0991  0.1921
  703loPI   C2A10572  15.075  14.691   6.536 -0.0201  0.1739  0.2103
  703loPI   C3A10573  15.193  14.619   6.980 -0.0189 -0.1158  0.0146
  703loPI   C4A10574  15.115  14.351   7.235  0.4101 -0.0884 -0.0754
  703loPI   C5A10575  15.144  14.000   7.517 -0.2033 -0.4967  0.0387
  703loPI   C6A10576  15.328  13.641   7.793  0.0147 -0.1690 -0.4023
  703loPI   C1B10577  15.062  14.226   6.216 -0.0306 -0.1268  0.0296
  703loPI   C2B10578  15.132  14.187   6.637  0.2778 -0.0670  0.2704
  703loPI   C3B10579  15.037  13.878   6.944 -0.1076  0.1077  0.1994
  703loPI   C4B10580  14.917  13.457   6.886 -0.0419 -0.2727  0.2259
  704loPI    C110581  10.232  12.725   4.953  0.1427 -0.0556  0.0289
  704loPI    C210582  10.170  13.032   4.704  0.0848 -0.0435  0.0581
  704loPI    C310583  10.197  12.660   4.560 -0.0006 -0.0426  0.0388
  704loPI   PO410584  10.344  12.890   5.176 -0.0918  0.3483 -0.1358
  704loPI   GL110585  10.430  12.931   5.610 -0.1026 -0.0395  0.1714
  704loPI   GL210586  10.529  12.614   5.633  0.0314  0.0040  0.1602
  704loPI   C1A10587  10.578  13.151   5.975 -0.3491 -0.2392  0.0386
  704loPI   C2A10588  10.624  13.243   6.435 -0.0380  0.2339  0.1961
  704loPI   C3A10589  10.611  13.346   6.806 -0.1121  0.2205 -0.0781
  704loPI   C4A10590  10.885  13.418   7.161 -0.0493  0.0919 -0.1156
  704loPI   C5A10591  10.833  13.412   7.608 -0.1830  0.1101 -0.1120
  704loPI   C6A10592  10.721  13.461   8.055  0.0569  0.0654  0.0852
  704loPI   C1B10593  10.232  12.464   5.897 -0.1167 -0.2966  0.3339
  704loPI   C2B10594  10.295  12.432   6.278  0.2159  0.0633  0.0630
  704loPI   C3B10595  10.349  12.446   6.681 -0.0120  0.1604 -0.0427
  704loPI   C4B10596  10.228  12.399   7.092 -0.1973 -0.0902  0.1474
  705loPI    C110597   1.790   9.119   4.296 -0.1553  0.2927  0.1905
  705loPI    C210598   2.185   9.179   4.262 -0.0791 -0.1612  0.2127
  705loPI    C310599   1.939   9.298   3.970  0.1159 -0.2108  0.0258
  705loPI   PO410600   1.840   9.084   4.653 -0.3132 -0.2158 -0.0056
  705loPI   GL110601   1.796   8.875   5.090  0.1636  0.0995  0.0395
  705loPI   GL210602   1.614   8.695   5.205 -0.0561  0.0562 -0.0846
  705loPI   C1A10603   2.001   8.840   5.545  0.3580 -0.0740 -0.0952
  705loPI   C2A10604   1.842   8.835   5.997 -0.0546  0.1647  0.2573
  705loPI   C3A10605   1.780   8.889   6.508 -0.1192  0.3576  0.5803
  705loPI   C4A10606   1.649   8.926   6.935 -0.1651 -0.0048 -0.1011
  705loPI   C5A10607   1.355   9.108   7.166  0.0459 -0.2281  0.3772
  705loPI   C6A10608   1.318   9.522   7.322  0.0054  0.1101  0.0068
  705loPI   C1B10609   1.493   9.067   5.511  0.0289 -0.2329  0.2219
  705loPI   C2B10610   1.584   9.310   5.878  0.1290  0.2592  0.0560
  705loPI   C3B10611   1.693   9.371   6.246  0.0804  0.1665 -0.1116
  705loPI   C4B10612   1.577   9.328   6.599  0.2624 -0.1641  0.1983
  706loPI    C110613  10.592   8.325   4.909 -0.1399  0.2279 -0.0189
  706loPI    C210614  10.752   8.210   4.561  0.0670 -0.3196  0.2447
  706loPI    C310615  10.356   8.194   4.614 -0.0197  0.2637 -0.1321
  706loPI   PO410616  10.774   8.118   5.096  0.2417  0.1132 -0.1217
  706loPI   GL110617  10.802   7.879   5.475  0.1127 -0.0135 -0.1219
  706loPI   GL210618  10.431   7.748   5.683  0.2190 -0.3276 -0.2412
  706loPI   C1A10619  11.030   7.910   5.762  0.1192  0.1473 -0.0681
  706loPI   C2A10620  11.079   7.860   6.214  0.0291  0.0493 -0.1436
  706loPI   C3A10621  11.155   7.890   6.668 -0.2436  0.0134  0.0837
  706loPI   C4A10622  11.359   8.006   7.033  0.0555  0.1801 -0.0077
  706loPI   C5A10623  11.499   8.306   7.367  0.1362 -0.1012  0.0359
  706loPI   C6A10624  11.647   8.551   7.639 -0.3112  0.0353 -0.2431
  706loPI   C1B10625  10.083   7.798   6.010 -0.2373 -0.2283  0.0735
  706loPI   C2B10626  10.028   7.729   6.425  0.0035  0.1463 -0.1625
  706loPI   C3B10627  10.160   7.823   6.824  0.3394  0.2501 -0.1714
  706loPI   C4B10628  10.357   7.899   7.170 -0.2131 -0.0011 -0.0338
  707loPI    C110629   0.878   0.830   5.171 -0.0279 -0.0034 -0.2623
  707loPI    C210630   1.126   1.117   5.046 -0.2149  0.1252 -0.3422
  707loPI    C310631   0.782   1.214   5.224 -0.0736 -0.0536  0.0390
  707loPI   PO410632   1.023   0.630   5.323  0.5122 -0.2423 -0.0365
  707loPI   GL110633   0.994   0.639   5.725  0.0828 -0.1359 -0.0598
  707loPI   GL210634   0.690   0.487   5.658  0.1080  0.1623  0.0652
  707loPI   C1A10635   1.084   0.755   6.171 -0.1045  0.2304  0.2983
  707loPI   C2A10636   1.025   0.558   6.611  0.1018  0.0202  0.0775
  707loPI   C3A10637   1.060   0.468   7.046  0.3958  0.0876  0.1424
  707loPI   C4A10638   0.856   0.373   7.424 -0.0010 -0.1400  0.0016
  707loPI   C5A10639   0.766  -0.014   7.558  0.0466  0.0673  0.2805
  707loPI   C6A10640   0.602  -0.441   7.622 -0.0004  0.0200  0.3156
  707loPI   C1B10641   0.631   0.526   6.082  0.3860 -0.2505 -0.1501
  707loPI   C2B10642   0.555   0.581   6.503  0.3424 -0.1024 -0.2477
  707loPI   C3B10643   0.535   0.601   6.995  0.1324 -0.1918  0.0860
  707loPI   C4B10644   0.394   0.709   7.466  0.1325  0.0847  0.2066
  708loPI    C110645   4.335   6.272   5.084 -0.1061 -0.1560  0.1419
  708loPI    C210646   4.259   6.409   4.715 -0.0375  0.0575  0.2056
  708loPI    C310647   4.631   6.302   4.817 -0.1204 -0.3434  0.1038
  708loPI   PO410648   4.163   6.517   5.250 -0.0874  0.0207  0.3227
  708loPI   GL110649   3.968   6.556   5.576 -0.0028 -0.3536  0.2125
  708loPI   GL210650   3.641   6.685   5.575  0.0926 -0.0496  0.1439
  708loPI   C1A10651   4.105   6.817   5.998  0.0481 -0.0512 -0.2223
  708loPI   C2A10652   4.254   6.968   6.444 -0.0566  0.2030  0.0333
  708loPI   C3A10653   4.033   7.086   6.787 -0.1939  0.0526  0.0403
  708loPI   C4A10654   3.687   7.223   7.152  0.2767  0.0953  0.0206
  708loPI   C5A10655   3.277   7.364   7.125 -0.1070  0.2665  0.1386
  708loPI   C6A10656   3.064   7.563   7.364 -0.1360 -0.0172 -0.1057
  708loPI   C1B10657   3.635   6.929   5.888  0.2321  0.0596  0.1207
  708loPI   C2B10658   3.736   6.917   6.387 -0.1392 -0.1736 -0.0130
  708loPI   C3B10659   3.849   6.637   6.626  0.0964 -0.1385 -0.0077
  708loPI   C4B10660   3.759   6.711   7.080 -0.0119 -0.0075 -0.0497
  709loPI    C110661  16.263  13.579   4.956  0.1415 -0.1169  0.0352
  709loPI    C210662  16.628  13.717   5.043  0.1235 -0.0872  0.0644
  709loPI    C310663  16.499  13.717   4.664  0.1679 -0.1328  0.0490
  709loPI   PO410664  16.235  13.369   5.124  0.0212 -0.0815 -0.0257
  709loPI   GL110665  16.230  13.176   5.557 -0.0517 -0.0120  0.3007
  709loPI   GL210666  16.560  13.171   5.553  0.0835 -0.2301 -0.0709
  709loPI   C1A10667  16.131  13.129   6.009 -0.2127  0.1043 -0.0185
  709loPI   C2A10668  16.305  13.342   6.408 -0.3362  0.1779 -0.0526
  709loPI   C3A10669  16.509  13.336   6.822  0.0596 -0.0732  0.2875
  709loPI   C4A10670  16.322  13.329   7.265 -0.0313 -0.1720  0.0872
  709loPI   C5A10671  16.269  13.207   7.628  0.1230  0.3771  0.0443
  709loPI   C6A10672  16.300  13.478   7.935 -0.0294 -0.1869  0.2279
  709loPI   C1B10673  16.884  12.975   5.845  0.1592 -0.0039  0.1138
  709loPI   C2B10674  17.055  12.604   6.076 -0.0639 -0.3149  0.1528
  709loPI   C3B10675  16.812  12.323   6.426 -0.1616  0.2019 -0.1668
  709loPI   C4B10676  16.957  12.243   6.840  0.1606 -0.1012 -0.4040
  710loPI    C110677  16.022  18.792   5.411  0.0560 -0.2708  0.0877
  710loPI    C210678  15.884  18.662   5.059 -0.0320 -0.0930  0.0552
  710loPI    C310679  16.114  18.989   5.075  0.2372 -0.2820  0.1296
  710loPI   PO410680  16.169  18.581   5.506 -0.0800 -0.1382 -0.0774
  710loPI   GL110681  16.363  18.534   5.918  0.0624 -0.1505  0.1418
  710loPI   GL210682  16.505  18.683   5.830  0.1549 -0.2235  0.0213
  710loPI   C1A10683  16.517  18.586   6.372  0.3336  0.1777  0.2299
  710loPI   C2A10684  16.666  18.663   6.802  0.2410 -0.3148 -0.1045
  710loPI   C3A10685  16.598  18.933   7.167  0.0667 -0.0539  0.1520
  710loPI   C4A10686  16.527  19.104   7.495 -0.2175 -0.3349  0.1545
  710loPI   C5A10687  16.607  19.599   7.686 -0.0073  0.3556 -0.2605
  710loPI   C6A10688  16.936  19.958   7.753  0.0566 -0.2442  0.5537
  710loPI   C1B10689  16.701  18.941   6.022  0.2020 -0.1910 -0.1314
  710loPI   C2B10690  16.808  19.044   6.560  0.1024 -0.2626  0.0725
  710loPI   C3B10691  16.881  19.255   6.918  0.0410  0.1936 -0.2832
  710loPI   C4B10692  16.719  19.468   7.157 -0.2035 -0.1366 -0.0911
  711loPI    C110693  18.726   7.196   5.250  0.0418  0.0002 -0.1467
  711loPI    C210694  18.997   7.439   5.416 -0.0572 -0.0915  0.1570
  711loPI    C310695  19.053   7.042   5.423 -0.0004 -0.0917 -0.1479
  711loPI   PO410696  18.480   7.294   5.390 -0.2721  0.2678  0.0327
  711loPI   GL110697  18.283   7.390   5.818 -0.0048  0.2324  0.1531
  711loPI   GL210698  18.503   7.197   5.870  0.1573  0.1282 -0.1649
  711loPI   C1A10699  18.210   7.718   6.149  0.0311 -0.2092  0.0504
  711loPI   C2A10700  17.940   7.647   6.452  0.2397  0.0232 -0.1605
  711loPI   C3A10701  18.034   7.570   6.841 -0.4164 -0.0325  0.1714
  711loPI   C4A10702  18.117   7.700   7.344  0.0674  0.2048 -0.2897
  711loPI   C5A10703  18.226   7.984   7.658 -0.0120 -0.0178 -0.1136
  711loPI   C6A10704  18.260   8.491   7.888 -0.1613  0.2093  0.3106
  711loPI   C1B10705  18.974   7.290   5.860  0.0357  0.5071 -0.3712
  711loPI   C2B10706  19.251   7.614   5.894 -0.1520 -0.0394 -0.2165
  711loPI   C3B10707  19.396   7.749   6.258  0.2756 -0.0166 -0.2299
  711loPI   C4B10708  19.480   8.125   6.439 -0.1962  0.0305  0.0984
  712loPI    C110709  16.402   9.200   4.827 -0.0698 -0.1817  0.0745
  712loPI    C210710  16.437   9.253   4.432 -0.1923  0.3284  0.1257
  712loPI    C310711  16.757   9.294   4.668 -0.1395  0.1203  0.0923
  712loPI   PO410712  16.242   9.341   4.973 -0.0444  0.1067  0.0535
  712loPI   GL110713  16.328   9.453   5.348  0.1775 -0.0099  0.1588
  712loPI   GL210714  16.291   9.729   5.439  0.0187 -0.1799  0.2419
  712loPI   C1A10715  16.250   9.327   5.741  0.0566 -0.1174  0.5550
  712loPI   C2A10716  16.453   9.505   6.146 -0.1278  0.0563  0.2360
  712loPI   C3A10717  16.668   9.540   6.514 -0.0628 -0.1258 -0.0590
  712loPI   C4A10718  16.845   9.661   6.931 -0.2262  0.3876  0.1459
  712loPI   C5A10719  16.889  10.007   7.210 -0.0879 -0.1931  0.1468
  712loPI   C6A10720  16.725  10.161   7.628 -0.1251 -0.1442  0.2491
  712loPI   C1B10721  16.582   9.751   5.754  0.1587 -0.1225 -0.0640
  712loPI   C2B10722  16.687   9.931   6.099 -0.1280 -0.2473  0.0003
  712loPI   C3B10723  16.908   9.949   6.446  0.0387  0.2034  0.2089
  712loPI   C4B10724  17.117  10.022   6.772  0.1358 -0.1015 -0.0873
  713loPI    C110725  12.469   3.580   5.082 -0.2197  0.1256 -0.0227
  713loPI    C210726  12.317   3.947   5.037  0.2141  0.3008 -0.1081
  713loPI    C310727  12.680   3.862   4.891  0.1911 -0.1138  0.0650
  713loPI   PO410728  12.353   3.456   5.362 -0.0635 -0.0826 -0.0184
  713loPI   GL110729  12.419   3.572   5.786 -0.1462 -0.1929  0.0501
  713loPI   GL210730  12.684   3.362   5.818 -0.2325  0.1224 -0.0319
  713loPI   C1A10731  12.236   3.646   6.221  0.0969 -0.1992  0.0470
  713loPI   C2A10732  12.094   3.683   6.669 -0.2420  0.0620  0.0559
  713loPI   C3A10733  12.292   3.499   7.105 -0.0007  0.0832 -0.2156
  713loPI   C4A10734  12.298   3.175   7.328 -0.2842 -0.1380 -0.0601
  713loPI   C5A10735  12.371   3.088   7.850 -0.0210 -0.1110  0.2103
  713loPI   C6A10736  12.310   3.031   8.326 -0.0108  0.1577  0.1944
  713loPI   C1B10737  12.686   3.378   6.261  0.3422 -0.2373 -0.0749
  713loPI   C2B10738  12.736   3.429   6.799 -0.0859 -0.1348  0.2682
  713loPI   C3B10739  12.831   3.375   7.155 -0.0133 -0.0920 -0.0060
  713loPI   C4B10740  12.768   2.972   7.439 -0.1104  0.0018 -0.0097
  714loPI    C110741   3.639   5.138   5.444 -0.1003 -0.2174 -0.1199
  714loPI    C210742   3.906   4.941   5.221  0.1330 -0.1224  0.0703
  714loPI    C310743   3.843   5.331   5.159  0.0758 -0.1331  0.0603
  714loPI   PO410744   3.392   4.987   5.403 -0.2096  0.1239  0.0801
  714loPI   GL110745   3.351   4.712   5.710  0.0219  0.2619 -0.2095
  714loPI   GL210746   3.181   4.863   5.919  0.4832  0.1296  0.0545
  714loPI   C1A10747   3.223   4.383   6.038  0.0925 -0.1104  0.1441
  714loPI   C2A10748   3.359   4.204   6.453  0.0928  0.1888  0.1198
  714loPI   C3A10749   3.400   4.128   6.971  0.4585  0.2460 -0.0844
  714loPI   C4A10750   3.375   4.097   7.297  0.2447 -0.2986 -0.0961
  714loPI   C5A10751   3.482   3.824   7.596 -0.0996 -0.0469  0.2179
  714loPI   C6A10752   3.750   3.588   7.664  0.2503 -0.0162 -0.0974
  714loPI   C1B10753   3.128   4.883   6.347 -0.1491 -0.1564  0.0011
  714loPI   C2B10754   3.157   4.636   6.689  0.1734  0.1437 -0.2101
  714loPI   C3B10755   3.344   4.718   7.161  0.1551  0.1988  0.2321
  714loPI   C4B10756   3.498   4.896   7.545 -0.0530  0.3559 -0.1877
  715loPI    C110757  15.130   6.976   4.606  0.0690  0.0198  0.0773
  715loPI    C210758  15.198   7.352   4.490  0.0743  0.0207  0.0831
  715loPI    C310759  14.979   7.109   4.260  0.2016 -0.0195  0.0039
  715loPI   PO410760  15.036   7.055   4.898 -0.1165 -0.0104 -0.0316
  715loPI   GL110761  15.221   7.269   5.252  0.1812 -0.0812  0.2411
  715loPI   GL210762  15.388   7.175   5.534 -0.1017 -0.0136 -0.2411
  715loPI   C1A10763  14.854   7.381   5.538 -0.1620 -0.3784  0.0451
  715loPI   C2A10764  14.632   7.263   5.873 -0.0831  0.0775 -0.1455
  715loPI   C3A10765  14.621   7.413   6.266  0.2147  0.1688  0.2067
  715loPI   C4A10766  14.456   7.717   6.553 -0.0218 -0.2473 -0.2671
  715loPI   C5A10767  14.435   7.833   6.905  0.1429  0.2521  0.0233
  715loPI   C6A10768  14.286   8.039   7.311  0.0131 -0.1114 -0.4089
  715loPI   C1B10769  15.606   7.299   5.854 -0.1517  0.0623 -0.3567
  715loPI   C2B10770  15.596   7.313   6.217 -0.1950  0.3003  0.2658
  715loPI   C3B10771  15.396   7.148   6.482 -0.1576 -0.1874 -0.1283
  715loPI   C4B10772  15.188   7.267   6.907  0.0975  0.0058  0.1815
  716loPI    C110773  15.022   8.206   4.757 -0.0434 -0.0769 -0.2134
  716loPI    C210774  14.731   7.939   4.818  0.0189 -0.0964  0.0072
  716loPI    C310775  14.671   8.247   4.569 -0.1321 -0.1900 -0.0740
  716loPI   PO410776  15.084   8.296   5.067 -0.1378 -0.1034  0.0055
  716loPI   GL110777  15.290   8.454   5.463 -0.2282 -0.1125 -0.0553
  716loPI   GL210778  15.285   8.224   5.631  0.1307 -0.1909  0.1891
  716loPI   C1A10779  14.955   8.692   5.744  0.0652  0.0169 -0.2074
  716loPI   C2A10780  15.056   8.944   6.101 -0.1723 -0.1217  0.1720
  716loPI   C3A10781  15.014   9.127   6.552  0.1879 -0.1149 -0.0811
  716loPI   C4A10782  15.026   9.334   6.916  0.1132 -0.0158  0.0101
  716loPI   C5A10783  14.672   9.438   7.236 -0.0219  0.1128 -0.2226
  716loPI   C6A10784  14.497   9.282   7.670 -0.0738 -0.1894  0.1688
  716loPI   C1B10785  15.232   8.345   6.037  0.4379  0.0142  0.0595
  716loPI   C2B10786  15.262   8.553   6.371 -0.0396  0.1410 -0.0617
  716loPI   C3B10787  15.455   8.924   6.508  0.1699 -0.1127 -0.1181
  716loPI   C4B10788  15.843   9.037   6.325 -0.2129  0.2409  0.0019
  717loPI    C110789   2.534  15.573   4.889 -0.0673  0.3114 -0.1876
  717loPI    C210790   2.462  15.580   4.495 -0.1279 -0.0897 -0.1878
  717loPI    C310791   2.167  15.659   4.754 -0.0865  0.1804 -0.2197
  717loPI   PO410792   2.613  15.224   4.934 -0.1066  0.3665 -0.1743
  717loPI   GL110793   2.555  14.985   5.310 -0.0253 -0.1550  0.0844
  717loPI   GL210794   2.356  15.205   5.473 -0.0974 -0.2757 -0.0622
  717loPI   C1A10795   2.440  14.770   5.701 -0.0706 -0.0688 -0.1031
  717loPI   C2A10796   2.429  15.038   6.093  0.1502  0.4318 -0.0977
  717loPI   C3A10797   2.401  15.238   6.450 -0.1888  0.3447  0.0514
  717loPI   C4A10798   2.341  15.303   6.841 -0.2149 -0.0413 -0.1121
  717loPI   C5A10799   2.342  15.376   7.239  0.1355 -0.0033 -0.0601
  717loPI   C6A10800   2.120  15.326   7.676 -0.0584 -0.0915 -0.0733
  717loPI   C1B10801   2.649  15.289   5.775 -0.0095 -0.2240  0.0322
  717loPI   C2B10802   2.789  15.406   6.183  0.0686  0.2293 -0.0710
  717loPI   C3B10803   2.718  15.591   6.551 -0.1267 -0.4159  0.2943
  717loPI   C4B10804   2.665  15.680   6.958  0.1913 -0.0835 -0.0820
  718loPI    C110805   6.353   7.478   5.203  0.1378  0.0142 -0.0841
  718loPI    C210806   6.027   7.415   4.981  0.0257  0.0049  0.0817
  718loPI    C310807   6.100   7.184   5.299  0.2282 -0.0343  0.0081
  718loPI   PO410808   6.335   7.726   5.324 -0.2622  0.0272  0.0476
  718loPI   GL110809   6.570   7.758   5.618 -0.0554 -0.1916 -0.3841
  718loPI   GL210810   6.815   7.785   5.568 -0.2648 -0.0222 -0.1964
  718loPI   C1A10811   6.680   8.023   5.926  0.0488  0.2117 -0.1749
  718loPI   C2A10812   6.526   7.902   6.423 -0.1292 -0.2957  0.1610
  718loPI   C3A10813   6.502   7.576   6.673  0.0501 -0.2353 -0.1633
  718loPI   C4A10814   6.456   7.337   7.092  0.2024 -0.3438 -0.2466
  718loPI   C5A10815   6.848   7.116   7.286 -0.4705  0.0749 -0.1731
  718loPI   C6A10816   6.946   6.987   7.746  0.0428 -0.1391 -0.1124
  718loPI   C1B10817   6.953   7.484   5.945 -0.0568  0.2787 -0.0160
  718loPI   C2B10818   6.964   7.517   6.365  0.3048 -0.0349 -0.0350
  718loPI   C3B10819   6.994   7.605   6.725 -0.1007 -0.1394  0.0545
  718loPI   C4B10820   6.838   7.725   7.162 -0.3191 -0.0211 -0.0378
  719loPI    C110821   5.149  10.117   4.387 -0.1177 -0.1927  0.0897
  719loPI    C210822   5.051  10.083   4.000 -0.2954 -0.1769  0.1325
  719loPI    C310823   5.246  10.408   4.130 -0.2828 -0.1580  0.0660
  719loPI   PO410824   4.991  10.012   4.516 -0.2386  0.1512  0.2356
  719loPI   GL110825   4.986  10.104   4.981 -0.0651 -0.0662  0.0088
  719loPI   GL210826   5.008   9.906   5.085  0.0581 -0.2502 -0.3211
  719loPI   C1A10827   4.863  10.353   5.298  0.0207 -0.2173 -0.1478
  719loPI   C2A10828   4.545  10.545   5.470  0.4575  0.1441 -0.0171
  719loPI   C3A10829   4.350  10.935   5.435 -0.0045 -0.3698  0.1474
  719loPI   C4A10830   4.175  11.220   5.784  0.1482 -0.0086  0.2134
  719loPI   C5A10831   4.137  11.206   6.223 -0.1243  0.1769  0.2125
  719loPI   C6A10832   4.361  11.240   6.676  0.3341 -0.3006  0.0770
  719loPI   C1B10833   4.863   9.865   5.492  0.0169  0.2710 -0.0041
  719loPI   C2B10834   4.847  10.285   5.805 -0.1726 -0.0286  0.0352
  719loPI   C3B10835   4.817  10.470   6.196 -0.2295 -0.2212 -0.0886
  719loPI   C4B10836   4.520  10.450   6.574  0.2745 -0.3470 -0.0354
  720loPI    C110837   7.316  17.333   5.182 -0.0473 -0.0215  0.0552
  720loPI    C210838   7.620  17.226   4.945 -0.2445 -0.0909 -0.1697
  720loPI    C310839   7.248  17.245   4.798 -0.3300  0.1313  0.0675
  720loPI   PO410840   7.409  17.557   5.350 -0.0422 -0.6451  0.3239
  720loPI   GL110841   7.643  17.961   5.384 -0.0100 -0.1516 -0.0739
  720loPI   GL210842   8.011  18.088   5.511  0.2232  0.0452  0.0378
  720loPI   C1A10843   7.852  17.703   5.756 -0.1405 -0.0326  0.0079
  720loPI   C2A10844   8.076  17.742   6.260 -0.0750  0.1410  0.1985
  720loPI   C3A10845   8.318  17.744   6.614  0.0889  0.1047  0.1512
  720loPI   C4A10846   8.552  17.917   6.929 -0.0926 -0.0916  0.0350
  720loPI   C5A10847   8.725  17.994   7.369  0.1550  0.3006 -0.2396
  720loPI   C6A10848   8.925  17.684   7.754  0.1022 -0.4456 -0.0448
  720loPI   C1B10849   8.390  17.841   5.669  0.1277  0.3300 -0.0836
  720loPI   C2B10850   8.368  17.474   5.858  0.1876  0.1023  0.2111
  720loPI   C3B10851   8.518  17.357   6.254  0.2143 -0.0791  0.0987
  720loPI   C4B10852   8.525  17.312   6.783 -0.1521 -0.3124  0.0067
  721loPI    C110853  10.120   8.793   5.163  0.0270  0.0991 -0.1209
  721loPI    C210854  10.007   9.012   4.847 -0.2437 -0.0681 -0.1434
  721loPI    C310855  10.140   8.638   4.795 -0.2522 -0.0827 -0.0626
  721loPI   PO410856  10.275   9.010   5.309  0.1811  0.1010  0.1123
  721loPI   GL110857  10.229   9.310   5.614  0.1341 -0.2727  0.1068
  721loPI   GL210858   9.945   9.493   5.653  0.1598 -0.1901  0.4916
  721loPI   C1A10859  10.304   9.367   6.049 -0.1957  0.0180  0.4578
  721loPI   C2A10860  10.156   9.175   6.448  0.0700 -0.3228  0.2232
  721loPI   C3A10861  10.133   8.945   6.778  0.0016 -0.1043 -0.0028
  721loPI   C4A10862   9.979   9.024   7.096 -0.2469 -0.0689 -0.0130
  721loPI   C5A10863   9.858   9.060   7.410  0.0311 -0.1321  0.1334
  721loPI   C6A10864  10.007   9.352   7.651  0.3492  0.0474  0.3789
  721loPI   C1B10865   9.596   9.740   5.970  0.0531 -0.1326  0.1177
  721loPI   C2B10866   9.501   9.778   6.510  0.1664  0.2119 -0.1233
  721loPI   C3B10867   9.587   9.761   6.858 -0.2581  0.1351 -0.0689
  721loPI   C4B10868   9.681   9.502   7.258 -0.1754  0.2938  0.0831
  722loPI    C110869  12.170   9.110   4.881  0.1306  0.0165  0.4168
  722loPI    C210870  12.002   8.747   4.901  0.0211  0.0399  0.0051
  722loPI    C310871  12.001   8.950   4.556  0.1183  0.4163  0.2199
  722loPI   PO410872  12.313   9.038   5.130  0.2194  0.0677  0.1217
  722loPI   GL110873  12.346   9.162   5.631  0.2070 -0.2271  0.0964
  722loPI   GL210874  12.046   9.216   5.687 -0.1593 -0.2603 -0.2623
  722loPI   C1A10875  12.238   8.829   5.979 -0.0310 -0.0241 -0.1236
  722loPI   C2A10876  12.085   8.639   6.303  0.1939  0.0648  0.0932
  722loPI   C3A10877  12.030   8.301   6.636  0.0088  0.0048  0.2554
  722loPI   C4A10878  12.395   8.332   6.919 -0.0657  0.2023 -0.0152
  722loPI   C5A10879  12.410   8.306   7.345 -0.1953  0.0265  0.2153
  722loPI   C6A10880  12.128   8.300   7.709  0.3296 -0.0558  0.0334
  722loPI   C1B10881  11.850   9.161   6.048 -0.1596 -0.1155 -0.1116
  722loPI   C2B10882  11.714   9.209   6.429  0.0986 -0.0873 -0.2474
  722loPI   C3B10883  11.502   9.508   6.665 -0.0140 -0.5298 -0.1011
  722loPI   C4B10884  11.836   9.912   6.648 -0.1895  0.1368  0.2142
  723loPI    C110885   3.658   3.274   5.350 -0.0921 -0.0080  0.1426
  723loPI    C210886   3.452   3.059   5.083  0.0094  0.0085  0.0502
  723loPI    C310887   3.639   3.393   4.968  0.2393 -0.1028  0.0932
  723loPI   PO410888   3.852   3.011   5.437 -0.3221 -0.0759 -0.1011
  723loPI   GL110889   3.725   2.763   5.834 -0.1045 -0.0824  0.1159
  723loPI   GL210890   3.672   3.125   5.894  0.1081 -0.2198  0.2341
  723loPI   C1A10891   3.628   2.717   6.173 -0.2117  0.2058 -0.0515
  723loPI   C2A10892   3.684   2.460   6.605  0.0213 -0.0572  0.1304
  723loPI   C3A10893   3.951   2.195   6.813 -0.0012 -0.0115  0.4361
  723loPI   C4A10894   4.072   2.041   7.108  0.0024  0.0252  0.2187
  723loPI   C5A10895   4.096   2.138   7.568 -0.1524  0.1934  0.2639
  723loPI   C6A10896   3.975   2.076   7.940 -0.2061  0.2204 -0.2513
  723loPI   C1B10897   3.380   3.265   6.136 -0.3677  0.1815  0.0721
  723loPI   C2B10898   3.106   3.265   6.535 -0.3180  0.0691  0.0431
  723loPI   C3B10899   2.882   3.276   6.975  0.0488 -0.1817 -0.1066
  723loPI   C4B10900   2.819   3.291   7.396  0.1731  0.3454  0.1163
  724loPI    C110901  18.644  14.509   4.417 -0.3063 -0.3350  0.1127
  724loPI    C210902  18.334  14.756   4.469 -0.1426 -0.0409 -0.2551
  724loPI    C310903  18.374  14.556   4.125 -0.0290 -0.2320 -0.1327
  724loPI   PO410904  18.825  14.690   4.603 -0.0686  0.1234 -0.1530
  724loPI   GL110905  18.986  14.796   4.996 -0.2932  0.0987 -0.0220
  724loPI   GL210906  18.965  15.062   5.118  0.2603 -0.0179 -0.0951
  724loPI   C1A10907  19.139  14.752   5.465 -0.2011  0.2843  0.3699
  724loPI   C2A10908  19.358  14.796   5.866 -0.1927 -0.3184 -0.0461
  724loPI   C3A10909  19.331  14.928   6.346 -0.1802  0.0120 -0.0051
  724loPI   C4A10910  19.290  14.865   6.732  0.0872  0.1012  0.1269
  724loPI   C5A10911  19.210  14.589   7.011 -0.1317 -0.0201 -0.2062
  724loPI   C6A10912  18.782  14.821   7.381 -0.0109 -0.2456 -0.1686
  724loPI   C1B10913  19.011  15.282   5.455  0.0281 -0.1460 -0.2757
  724loPI   C2B10914  18.979  15.239   5.873  0.2920 -0.1715  0.0937
  724loPI   C3B10915  19.060  15.399   6.320  0.1268 -0.2056 -0.0061
  724loPI   C4B10916  18.973  15.377   6.667 -0.2109  0.0914  0.2103
  725loPI    C110917   9.467   4.089   5.210  0.1109 -0.0496  0.1050
  725loPI    C210918   9.509   3.697   5.145  0.1426 -0.0420  0.0791
  725loPI    C310919   9.654   3.961   4.880  0.1860 -0.0118  0.1327
  725loPI   PO410920   9.513   4.086   5.440 -0.0112 -0.1257 -0.0919
  725loPI   GL110921   9.487   3.930   5.825  0.1651  0.0077  0.1802
  725loPI   GL210922   9.572   3.627   5.954 -0.3342  0.0578  0.0663
  725loPI   C1A10923   9.366   4.030   6.181 -0.1456 -0.2388  0.0220
  725loPI   C2A10924   9.339   4.237   6.496 -0.3902  0.0032 -0.3880
  725loPI   C3A10925   9.306   4.133   6.987 -0.0618  0.3085 -0.0833
  725loPI   C4A10926   9.594   4.178   7.405  0.1411 -0.1740  0.1617
  725loPI   C5A10927   9.844   3.701   7.485  0.1267 -0.2622  0.0935
  725loPI   C6A10928  10.222   3.557   7.678  0.1665  0.0232  0.3606
  725loPI   C1B10929   9.749   3.570   6.315 -0.1270  0.1117 -0.0933
  725loPI   C2B10930   9.998   3.498   6.601 -0.0142 -0.0817  0.1072
  725loPI   C3B10931  10.097   3.480   7.101 -0.0366 -0.2249  0.0866
  725loPI   C4B10932  10.222   3.123   7.298 -0.1765  0.1304 -0.0289
  726loPI    C110933  15.887  17.096   5.409  0.4585  0.1017 -0.0693
  726loPI    C210934  16.007  17.143   5.030  0.3838 -0.1438 -0.1248
  726loPI    C310935  15.914  16.779   5.167 -0.0974  0.0095 -0.0240
  726loPI   PO410936  16.038  17.180   5.545  0.4816  0.0840  0.0057
  726loPI   GL110937  16.101  17.024   5.909  0.1724  0.0353 -0.3357
  726loPI   GL210938  16.387  17.198   5.880  0.0556  0.1578 -0.2206
  726loPI   C1A10939  16.269  16.829   6.285 -0.0004 -0.0991 -0.1703
  726loPI   C2A10940  16.338  16.745   6.664  0.0524 -0.1446  0.1550
  726loPI   C3A10941  16.245  16.554   7.084  0.3282 -0.3122 -0.0959
  726loPI   C4A10942  16.051  16.659   7.533  0.1716  0.2587  0.2057
  726loPI   C5A10943  15.849  16.379   7.720  0.0321  0.2306 -0.1042
  726loPI   C6A10944  15.269  16.348   7.883 -0.2188  0.2065 -0.1017
  726loPI   C1B10945  16.542  17.311   6.258  0.2247 -0.3370 -0.0361
  726loPI   C2B10946  16.550  17.238   6.625 -0.0101  0.2586 -0.1547
  726loPI   C3B10947  16.356  17.132   7.061  0.1048 -0.1407  0.1721
  726loPI   C4B10948  16.418  17.018   7.440 -0.1767  0.2041  0.1310
  727loPI    C110949   5.264  17.476   5.155 -0.0262  0.1332  0.0104
  727loPI    C210950   5.131  17.820   5.000 -0.1545  0.0836  0.0093
  727loPI    C310951   5.318  17.555   4.766  0.0845  0.2196  0.0426
  727loPI   PO410952   5.245  17.594   5.444  0.0055  0.1101  0.2961
  727loPI   GL110953   5.182  17.519   5.840  0.2357 -0.1724 -0.3333
  727loPI   GL210954   5.494  17.330   5.889  0.1214 -0.0481 -0.0473
  727loPI   C1A10955   5.116  17.629   6.295  0.0019 -0.3121 -0.1571
  727loPI   C2A10956   5.137  17.852   6.649  0.3413 -0.2426  0.6166
  727loPI   C3A10957   5.048  17.837   7.022 -0.2010  0.0914  0.0792
  727loPI   C4A10958   4.871  17.679   7.316  0.0598  0.0987  0.0340
  727loPI   C5A10959   4.480  17.573   7.541  0.0190 -0.0841 -0.2559
  727loPI   C6A10960   4.222  17.816   7.904 -0.1250  0.2360  0.1511
  727loPI   C1B10961   5.609  17.192   6.312 -0.1191  0.0073 -0.1653
  727loPI   C2B10962   5.657  17.260   6.748 -0.1168 -0.1059 -0.2288
  727loPI   C3B10963   5.972  17.242   7.146  0.3124  0.0028 -0.0440
  727loPI   C4B10964   6.065  17.090   7.459  0.0200 -0.0119  0.1450
  728loPI    C110965   9.313  16.257   4.919 -0.1281  0.2135  0.0099
  728loPI    C210966   9.443  16.067   4.592  0.0498  0.0823  0.1546
  728loPI    C310967   9.114  16.294   4.574  0.0822  0.1107 -0.1245
  728loPI   PO410968   9.322  16.083   5.117 -0.1007 -0.0882  0.0516
  728loPI   GL110969   8.928  15.935   5.311 -0.0061  0.0813 -0.2013
  728loPI   GL210970   9.034  16.351   5.404 -0.3283  0.1528 -0.0436
  728loPI   C1A10971   9.091  15.600   5.670  0.1088 -0.1489  0.0785
  728loPI   C2A10972   9.221  15.427   5.995 -0.0727 -0.1570 -0.1732
  728loPI   C3A10973   9.239  15.342   6.407  0.1846 -0.2155  0.0205
  728loPI   C4A10974   9.207  15.168   6.880 -0.1864  0.1657  0.0131
  728loPI   C5A10975   9.074  14.922   7.325  0.1217 -0.0023  0.2003
  728loPI   C6A10976   8.746  14.859   7.630 -0.1021  0.0555  0.0499
  728loPI   C1B10977   9.024  16.810   5.599  0.1070 -0.0546 -0.2223
  728loPI   C2B10978   8.777  17.022   5.820  0.1339  0.1885 -0.0263
  728loPI   C3B10979   8.750  16.867   6.215 -0.0872 -0.0586  0.1415
  728loPI   C4B10980   8.801  16.958   6.537 -0.1138  0.0112 -0.1007
  729loPI    C110981  18.108  17.981   4.843 -0.0493 -0.1512  0.0516
  729loPI    C210982  18.111  17.667   4.595 -0.2197 -0.1214  0.0108
  729loPI    C310983  17.763  17.823   4.717 -0.1384 -0.1607  0.3012
  729loPI   PO410984  18.266  17.875   5.087  0.0364 -0.0936 -0.0652
  729loPI   GL110985  18.381  17.907   5.522  0.2969 -0.2076 -0.0752
  729loPI   GL210986  18.018  17.986   5.516  0.3020 -0.2354  0.2008
  729loPI   C1A10987  18.294  17.733   5.853 -0.0254  0.4866  0.0679
  729loPI   C2A10988  18.145  17.819   6.245  0.3057 -0.2625  0.0113
  729loPI   C3A10989  18.395  17.946   6.581 -0.0425  0.5223  0.0754
  729loPI   C4A10990  18.582  17.935   7.028  0.0373 -0.1165  0.3302
  729loPI   C5A10991  18.494  18.071   7.363 -0.0111  0.1636 -0.1048
  729loPI   C6A10992  18.870  18.136   7.668 -0.1872  0.0489  0.2237
  729loPI   C1B10993  18.264  18.230   5.850  0.1720  0.0719  0.1338
  729loPI   C2B10994  18.426  18.366   6.333 -0.2745 -0.2479  0.0343
  729loPI   C3B10995  18.632  18.346   6.622  0.0112 -0.2909 -0.1131
  729loPI   C4B10996  18.428  18.400   6.986 -0.1012  0.5561 -0.2290
  730loPI    C110997   2.593   1.802   4.946  0.1266 -0.0876  0.0179
  730loPI    C210998   2.753   1.662   4.607 -0.0598 -0.0957 -0.0679
  730loPI    C310999   2.459   1.933   4.593 -0.0050 -0.0268  0.0897
  730loPI   PO411000   2.738   1.586   5.173  0.1329  0.1624 -0.0496
  730loPI   GL111001   2.555   1.624   5.539  0.2021  0.1278 -0.5727
  730loPI   GL211002   2.690   1.272   5.573  0.0076  0.1601 -0.2468
  730loPI   C1A11003   2.398   1.463   6.025 -0.1303 -0.3278 -0.0571
  730loPI   C2A11004   2.431   1.329   6.430 -0.0849 -0.1267 -0.1923
  730loPI   C3A11005   2.177   1.343   6.866  0.0846 -0.3527 -0.4002
  730loPI   C4A11006   2.108   1.124   7.251 -0.1749  0.2974 -0.1878
  730loPI   C5A11007   2.042   0.997   7.668 -0.0533  0.1238  0.1142
  730loPI   C6A11008   1.765   0.726   7.844 -0.1980  0.0819  0.2297
  730loPI   C1B11009   2.771   1.045   5.964 -0.0020 -0.2932 -0.1503
  730loPI   C2B11010   2.601   0.884   6.339 -0.2521  0.0141  0.3161
  730loPI   C3B11011   2.452   0.968   6.745  0.2008 -0.3184 -0.0547
  730loPI   C4B11012   2.529   0.778   7.099 -0.0367  0.0173  0.0769
  731loPI    C111013   3.513  17.486   4.902 -0.1191  0.0983 -0.2224
  731loPI    C211014   3.691  17.237   4.644 -0.0638  0.0801 -0.1669
  731loPI    C311015   3.594  17.608   4.529  0.2016  0.1616 -0.1347
  731loPI   PO411016   3.690  17.478   5.090 -0.0276 -0.4964 -0.1247
  731loPI   GL111017   3.690  17.476   5.524 -0.4097 -0.4322 -0.2200
  731loPI   GL211018   3.445  17.720   5.578  0.1409  0.2631  0.0341
  731loPI   C1A11019   3.632  17.206   5.803  0.3611 -0.0431  0.1891
  731loPI   C2A11020   3.961  16.931   5.999 -0.2518  0.0853  0.3452
  731loPI   C3A11021   4.303  16.940   6.301 -0.1030  0.0816  0.5107
  731loPI   C4A11022   4.326  16.889   6.680 -0.4205 -0.2963  0.1156
  731loPI   C5A11023   4.348  16.795   7.082 -0.0589 -0.3325  0.0662
  731loPI   C6A11024   4.459  16.635   7.489  0.1607 -0.0977  0.1278
  731loPI   C1B11025   3.260  17.794   5.956 -0.1526  0.2141 -0.0389
  731loPI   C2B11026   3.159  17.696   6.405 -0.2219 -0.1472  0.2141
  731loPI   C3B11027   3.122  17.812   6.879 -0.0168 -0.0704 -0.1076
  731loPI   C4B11028   3.231  17.726   7.226 -0.0616  0.4070 -0.2703
  732loPI    C111029   0.132   4.324   4.989 -0.0654  0.1198 -0.1001
  732loPI    C211030  -0.018   4.308   4.618  0.0332 -0.0367 -0.1342
  732loPI    C311031  -0.147   4.052   4.897  0.0368  0.0108 -0.0887
  732loPI   PO411032   0.376   4.324   4.922 -0.1841 -0.0639  0.1268
  732loPI   GL111033   0.699   4.446   5.298  0.1185  0.0108 -0.0524
  732loPI   GL211034   0.870   4.441   5.477  0.0904 -0.0501  0.2014
  732loPI   C1A11035   0.417   4.447   5.646 -0.4083 -0.1051 -0.0635
  732loPI   C2A11036   0.331   4.455   6.136  0.1804  0.0326 -0.3451
  732loPI   C3A11037   0.218   4.494   6.572 -0.0941  0.0849 -0.1982
  732loPI   C4A11038   0.251   4.334   6.952 -0.0849  0.0240 -0.1348
  732loPI   C5A11039   0.510   4.194   7.267  0.0863  0.2409 -0.1354
  732loPI   C6A11040   0.769   4.171   7.537  0.1670 -0.3315 -0.0070
  732loPI   C1B11041   0.899   4.676   5.938 -0.3773 -0.1324 -0.1760
  732loPI   C2B11042   0.782   4.579   6.394  0.3618 -0.0023  0.0134
  732loPI   C3B11043   0.720   4.382   6.742  0.0215  0.0012  0.1879
  732loPI   C4B11044   0.663   4.011   6.857 -0.1975 -0.0190  0.0058
  733loPI    C111045  18.187   9.556   5.110 -0.0937 -0.0082  0.0157
  733loPI    C211046  17.812   9.547   4.971  0.0345 -0.1951 -0.3297
  733loPI    C311047  18.115   9.429   4.738  0.3035 -0.1054 -0.0325
  733loPI   PO411048  18.205   9.758   5.227 -0.3405 -0.2452 -0.2452
  733loPI   GL111049  18.244   9.931   5.576  0.1168  0.1264  0.1765
  733loPI   GL211050  18.485   9.736   5.618  0.0504 -0.6373  0.1532
  733loPI   C1A11051  17.954  10.058   5.924  0.3476 -0.0292  0.0818
  733loPI   C2A11052  17.919   9.973   6.350 -0.1545 -0.1514  0.1748
  733loPI   C3A11053  18.069   9.981   6.802 -0.3051 -0.0607  0.2367
  733loPI   C4A11054  18.235   9.935   7.103 -0.1225 -0.0770  0.1651
  733loPI   C5A11055  18.485  10.003   7.432  0.0997 -0.1160  0.0944
  733loPI   C6A11056  18.805  10.086   7.630 -0.4548 -0.0284  0.0472
  733loPI   C1B11057  18.268   9.464   5.929  0.1141  0.0093  0.1780
  733loPI   C2B11058  17.971   9.502   6.245 -0.1145 -0.2950  0.0731
  733loPI   C3B11059  17.813   9.579   6.627  0.0065  0.1857 -0.0478
  733loPI   C4B11060  17.929   9.429   7.057 -0.0910 -0.3083 -0.2588
  734loPI    C111061  14.390   9.273   4.648 -0.2083  0.2094 -0.1365
  734loPI    C211062  14.771   9.316   4.533 -0.1358  0.0260  0.0307
  734loPI    C311063  14.541   9.036   4.364 -0.1464  0.0233  0.0493
  734loPI   PO411064  14.393   9.378   4.907 -0.0046  0.0163 -0.1713
  734loPI   GL111065  14.336   9.382   5.319  0.1997  0.0186  0.0108
  734loPI   GL211066  14.624   9.255   5.492 -0.3181  0.2068 -0.2217
  734loPI   C1A11067  14.194   9.487   5.765 -0.1791  0.2227  0.0227
  734loPI   C2A11068  14.447   9.581   6.189  0.0876 -0.1229 -0.2666
  734loPI   C3A11069  14.623   9.506   6.638  0.1298 -0.0102  0.1621
  734loPI   C4A11070  14.593   9.100   6.904 -0.1110 -0.2291  0.0251
  734loPI   C5A11071  14.408   8.810   7.175 -0.0920  0.1485 -0.1582
  734loPI   C6A11072  14.524   8.653   7.610  0.0431  0.0847  0.2633
  734loPI   C1B11073  14.407   9.032   5.798 -0.1333  0.1143  0.2214
  734loPI   C2B11074  14.095   8.996   6.086 -0.0395  0.1338 -0.0775
  734loPI   C3B11075  13.781   9.000   6.469  0.4343 -0.0965 -0.2648
  734loPI   C4B11076  13.704   9.101   6.905  0.0325 -0.1027 -0.0331
  735loPI    C111077   7.355  12.411   5.023 -0.1542  0.2161  0.5184
  735loPI    C211078   7.519  12.774   5.066  0.2338  0.1061  0.0467
  735loPI    C311079   7.394  12.652   4.706  0.0271 -0.1980  0.2171
  735loPI   PO411080   7.192  12.376   5.246  0.0586 -0.1948  0.3869
  735loPI   GL111081   7.290  12.512   5.538  0.1281  0.1207 -0.2754
  735loPI   GL211082   7.474  12.749   5.541 -0.0384 -0.3449  0.4019
  735loPI   C1A11083   7.292  12.419   6.056  0.1762  0.2304  0.0374
  735loPI   C2A11084   7.255  12.568   6.370 -0.2389  0.0433  0.0090
  735loPI   C3A11085   7.183  12.647   6.758 -0.0193 -0.0932 -0.1050
  735loPI   C4A11086   7.254  12.626   7.205 -0.1478 -0.0352  0.0228
  735loPI   C5A11087   7.369  12.520   7.604  0.3046  0.1016 -0.0088
  735loPI   C6A11088   7.358  12.273   7.927 -0.1350 -0.1856 -0.0887
  735loPI   C1B11089   7.508  12.895   6.002  0.0849  0.1027 -0.1578
  735loPI   C2B11090   7.675  12.922   6.463 -0.1330 -0.0931 -0.0812
  735loPI   C3B11091   7.744  12.814   6.931 -0.1439 -0.3461  0.2227
  735loPI   C4B11092   7.980  12.913   7.281  0.0718 -0.0439 -0.0598
  736loPI    C111093  12.083   8.257   4.803 -0.0911  0.1643  0.0356
  736loPI    C211094  12.381   8.075   4.607 -0.2112 -0.0192  0.0218
  736loPI    C311095  12.323   8.468   4.562  0.0093  0.0119  0.0006
  736loPI   PO411096  11.975   8.117   4.930  0.2464  0.0273 -0.1662
  736loPI   GL111097  11.964   7.940   5.401  0.0187  0.0371 -0.1785
  736loPI   GL211098  12.046   7.664   5.354  0.2840  0.1323 -0.0863
  736loPI   C1A11099  11.837   8.078   5.755  0.1049  0.3488  0.0455
  736loPI   C2A11100  11.729   8.240   6.188  0.1241  0.1720  0.0843
  736loPI   C3A11101  11.469   8.249   6.614 -0.1869  0.1629 -0.3271
  736loPI   C4A11102  11.218   8.550   6.881  0.0615  0.1247  0.0389
  736loPI   C5A11103  11.017   8.344   7.172  0.1502  0.4513 -0.0289
  736loPI   C6A11104  10.601   8.233   7.402  0.3668  0.1822 -0.1110
  736loPI   C1B11105  11.973   7.560   5.791  0.2983  0.2368 -0.1880
  736loPI   C2B11106  12.224   7.430   6.060 -0.0122  0.3556  0.0343
  736loPI   C3B11107  12.537   7.426   6.323  0.0091  0.0565 -0.1042
  736loPI   C4B11108  12.634   7.545   6.781 -0.1107  0.2346 -0.1220
  737loPI    C111109   7.487   9.206   5.083  0.2483  0.0460 -0.0056
  737loPI    C211110   7.469   8.877   4.858  0.3515  0.0727 -0.0534
  737loPI    C311111   7.411   9.236   4.692  0.1297  0.0719  0.0189
  737loPI   PO411112   7.313   9.004   5.360  0.1402 -0.2198 -0.0410
  737loPI   GL111113   7.231   9.075   5.816  0.2655  0.0528 -0.0115
  737loPI   GL211114   7.421   8.734   5.817 -0.3844 -0.0626  0.0107
  737loPI   C1A11115   7.376   9.303   6.032 -0.1930 -0.1925 -0.1559
  737loPI   C2A11116   7.313   9.368   6.446 -0.1798  0.1266 -0.3087
  737loPI   C3A11117   7.412   9.393   6.843 -0.0335  0.0480 -0.5292
  737loPI   C4A11118   7.623   9.336   7.282 -0.2136  0.0015 -0.2378
  737loPI   C5A11119   7.772   9.483   7.655 -0.1868 -0.0267 -0.0040
  737loPI   C6A11120   8.133   9.413   7.895  0.3586 -0.1564  0.1892
  737loPI   C1B11121   7.369   8.460   6.106  0.2295  0.3766  0.2649
  737loPI   C2B11122   7.398   8.323   6.578 -0.2126  0.2917 -0.0699
  737loPI   C3B11123   7.327   8.384   6.949 -0.1056  0.0841  0.0120
  737loPI   C4B11124   7.441   8.247   7.386 -0.1293 -0.0142 -0.1740
  738loPI    C111125   6.418   2.960   5.402 -0.2950 -0.1850  0.0283
  738loPI    C211126   6.467   2.599   5.568  0.0157 -0.1363  0.0468
  738loPI    C311127   6.781   2.792   5.411 -0.1415  0.1422  0.0690
  738loPI   PO411128   6.177   2.984   5.561  0.1034  0.1694  0.1829
  738loPI   GL111129   6.140   2.819   5.920 -0.0087 -0.1504 -0.2895
  738loPI   GL211130   5.740   2.936   5.888  0.2213  0.0666  0.1634
  738loPI   C1A11131   6.097   3.003   6.277 -0.2742  0.2335  0.0726
  738loPI   C2A11132   6.270   3.012   6.678 -0.1554  0.0225  0.0667
  738loPI   C3A11133   6.357   3.060   7.121 -0.0408  0.1846  0.1596
  738loPI   C4A11134   6.677   2.907   7.431 -0.0248 -0.1409 -0.2050
  738loPI   C5A11135   6.521   2.575   7.750  0.1355  0.1253  0.0461
  738loPI   C6A11136   6.707   2.247   8.097  0.0223 -0.0083 -0.0237
  738loPI   C1B11137   5.581   2.808   6.214 -0.0511  0.0946  0.2024
  738loPI   C2B11138   5.668   2.848   6.617  0.0395  0.0548 -0.2719
  738loPI   C3B11139   5.615   2.880   6.984  0.0045  0.1500 -0.2121
  738loPI   C4B11140   5.696   3.005   7.453 -0.0978 -0.0160  0.1746
  739loPI    C111141  15.227  16.117   4.999  0.2970  0.0907  0.0585
  739loPI    C211142  15.372  15.757   4.899  0.0382 -0.0361  0.1301
  739loPI    C311143  15.182  15.980   4.626 -0.3155 -0.2091  0.2300
  739loPI   PO411144  15.202  16.105   5.326  0.4204  0.4271  0.2474
  739loPI   GL111145  15.108  16.171   5.748  0.1111 -0.3706 -0.1810
  739loPI   GL211146  14.759  15.993   5.823 -0.0563  0.0646 -0.1047
  739loPI   C1A11147  15.200  15.747   6.002 -0.1971  0.1898  0.1324
  739loPI   C2A11148  15.194  15.709   6.450  0.1041  0.1938  0.0658
  739loPI   C3A11149  15.024  15.825   6.771  0.0721  0.2613  0.4027
  739loPI   C4A11150  14.850  15.899   7.082 -0.2799  0.2310  0.0859
  739loPI   C5A11151  14.655  15.761   7.496  0.1212  0.2306  0.0485
  739loPI   C6A11152  14.445  15.528   7.761  0.0469  0.1156  0.2531
  739loPI   C1B11153  14.967  16.082   6.280  0.0206 -0.2333  0.1394
  739loPI   C2B11154  14.987  16.312   6.622 -0.0922 -0.0582 -0.1311
  739loPI   C3B11155  15.084  16.399   7.084 -0.0075  0.0900 -0.0282
  739loPI   C4B11156  14.966  16.177   7.470 -0.0504 -0.3756  0.1647
  740loPI    C111157   3.047  16.044   4.476 -0.0228  0.1484  0.0118
  740loPI    C211158   3.016  16.146   4.091 -0.0352 -0.1501 -0.0683
  740loPI    C311159   3.368  16.177   4.278 -0.0233 -0.0291 -0.1097
  740loPI   PO411160   2.866  15.895   4.585  0.1210  0.0690 -0.0993
  740loPI   GL111161   3.102  15.685   4.969 -0.0180  0.2176  0.3112
  740loPI   GL211162   2.924  15.986   5.075 -0.0121  0.0261 -0.3767
  740loPI   C1A11163   3.198  15.509   5.293 -0.2776 -0.0356  0.0217
  740loPI   C2A11164   3.246  15.333   5.766  0.0929 -0.2305 -0.0052
  740loPI   C3A11165   3.327  15.290   6.128  0.1542 -0.2035 -0.1383
  740loPI   C4A11166   3.251  15.267   6.496 -0.0276 -0.0575 -0.0457
  740loPI   C5A11167   3.356  15.359   6.990 -0.2397  0.2077  0.0591
  740loPI   C6A11168   3.416  15.272   7.458  0.0442 -0.0306  0.1250
  740loPI   C1B11169   2.929  15.860   5.553 -0.1355  0.0617  0.2862
  740loPI   C2B11170   3.056  15.777   5.948  0.0812  0.3162 -0.1711
  740loPI   C3B11171   3.108  15.892   6.310  0.1927 -0.0271  0.0309
  740loPI   C4B11172   3.159  15.747   6.682  0.2486 -0.0399  0.1044
  741loPI    C111173   0.388  17.497   4.923  0.1407  0.0823  0.0008
  741loPI    C211174   0.577  17.215   4.711  0.2511  0.0742  0.1087
  741loPI    C311175   0.460  17.555   4.534 -0.0606 -0.1207 -0.0695
  741loPI   PO411176   0.501  17.535   5.101 -0.1386 -0.1081 -0.1015
  741loPI   GL111177   0.479  17.657   5.501  0.0516 -0.2294 -0.2083
  741loPI   GL211178   0.644  17.286   5.547  0.0215  0.1094  0.1150
  741loPI   C1A11179   0.384  17.872   5.914 -0.1811  0.0104  0.0919
  741loPI   C2A11180   0.479  17.893   6.394 -0.0383  0.1264  0.1499
  741loPI   C3A11181   0.533  17.549   6.742  0.2737 -0.0975  0.1427
  741loPI   C4A11182   0.513  17.046   6.767  0.0946  0.0393  0.1102
  741loPI   C5A11183   0.617  16.672   6.649  0.1384  0.0617 -0.1496
  741loPI   C6A11184   0.698  16.496   6.289  0.3264 -0.0719  0.0365
  741loPI   C1B11185   0.375  17.371   5.921  0.0051  0.0124  0.0209
  741loPI   C2B11186   0.312  17.392   6.335  0.0499 -0.1334 -0.2074
  741loPI   C3B11187   0.050  17.286   6.724 -0.2515 -0.1950  0.0763
  741loPI   C4B11188  -0.088  17.178   7.192 -0.0660  0.1870 -0.4060
  742loPI    C111189  18.014   7.915   4.778 -0.0004 -0.0460  0.0559
  742loPI    C211190  18.212   7.681   4.521  0.0771 -0.0926  0.1568
  742loPI    C311191  18.255   8.078   4.504  0.1371 -0.0996  0.1438
  742loPI   PO411192  18.155   7.796   5.091 -0.0772  0.0547 -0.1003
  742loPI   GL111193  18.377   7.807   5.551 -0.0592  0.3742 -0.3460
  742loPI   GL211194  18.032   7.838   5.612 -0.1931 -0.1797  0.0234
  742loPI   C1A11195  18.653   7.714   5.810  0.0145  0.0619  0.0213
  742loPI   C2A11196  18.816   7.718   6.177  0.3095  0.1243  0.1215
  742loPI   C3A11197  18.960   7.641   6.607 -0.0819 -0.0760 -0.0625
  742loPI   C4A11198  18.908   7.358   6.917  0.2095 -0.0103 -0.2495
  742loPI   C5A11199  19.173   6.949   7.153 -0.2215  0.1031  0.1289
  742loPI   C6A11200  19.388   6.450   7.209 -0.2682 -0.0166 -0.2924
  742loPI   C1B11201  17.865   8.063   5.957  0.0011 -0.0300 -0.2993
  742loPI   C2B11202  17.919   8.191   6.303  0.0588 -0.0451  0.0440
  742loPI   C3B11203  18.027   8.064   6.699  0.1956 -0.2094  0.0220
  742loPI   C4B11204  18.151   8.064   7.073  0.0597  0.1199 -0.0346
  743loPI    C111205  14.719  12.483   4.643  0.0252 -0.0707 -0.0105
  743loPI    C211206  14.651  12.291   4.298 -0.0106  0.0691 -0.0819
  743loPI    C311207  14.609  12.689   4.318 -0.0005  0.0628  0.0820
  743loPI   PO411208  14.916  12.293   4.766 -0.0358 -0.0822 -0.0134
  743loPI   GL111209  14.925  12.279   5.228 -0.1545 -0.0561  0.1416
  743loPI   GL211210  15.079  12.554   5.258 -0.3242  0.1609  0.0104
  743loPI   C1A11211  14.770  11.943   5.468  0.3294  0.0227 -0.2116
  743loPI   C2A11212  14.504  11.791   5.808 -0.3066  0.2915 -0.2949
  743loPI   C3A11213  14.332  11.645   6.167  0.0660  0.2863 -0.3371
  743loPI   C4A11214  14.283  11.537   6.543  0.0557 -0.0925 -0.0350
  743loPI   C5A11215  14.409  11.217   6.828 -0.0338 -0.1730  0.0376
  743loPI   C6A11216  14.536  11.190   7.273  0.0626 -0.1086  0.0622
  743loPI   C1B11217  14.957  12.654   5.733 -0.0064 -0.0155 -0.2369
  743loPI   C2B11218  14.994  12.551   6.218  0.1655 -0.2749 -0.3676
  743loPI   C3B11219  14.894  12.430   6.596  0.1937  0.2662  0.2163
  743loPI   C4B11220  15.058  12.496   7.003 -0.0292  0.2520  0.3204
  744loPI    C111221   0.040   0.109   4.735 -0.0737 -0.1960 -0.1436
  744loPI    C211222   0.387   0.287   4.645 -0.1772  0.1454  0.1114
  744loPI    C311223   0.089   0.282   4.378 -0.0766  0.1039 -0.0012
  744loPI   PO411224  -0.048   0.248   4.957 -0.3782  0.1534  0.0755
  744loPI   GL111225  -0.048   0.169   5.323 -0.1063 -0.1009  0.0653
  744loPI   GL211226   0.182   0.390   5.505 -0.0945 -0.2367 -0.0145
  744loPI   C1A11227  -0.110   0.169   5.808  0.0217 -0.2255 -0.3139
  744loPI   C2A11228  -0.252   0.030   6.246 -0.1398 -0.3552  0.0331
  744loPI   C3A11229  -0.229   0.005   6.624 -0.0296  0.2773 -0.5805
  744loPI   C4A11230  -0.200  -0.031   7.092 -0.2603  0.0029  0.2454
  744loPI   C5A11231  -0.342  -0.314   7.455  0.2331  0.1257 -0.1039
  744loPI   C6A11232  -0.373  -0.454   7.839  0.0680  0.1358  0.2114
  744loPI   C1B11233   0.176   0.652   5.910  0.6201  0.2644  0.1415
  744loPI   C2B11234   0.007   0.592   6.231 -0.1345 -0.0058  0.2477
  744loPI   C3B11235   0.090   0.532   6.600  0.1395 -0.1273  0.0162
  744loPI   C4B11236   0.119   0.266   6.878 -0.1560  0.2071  0.0098
  745loPI    C111237   4.186   4.473   5.134 -0.0870 -0.0087  0.2097
  745loPI    C211238   3.946   4.199   5.298 -0.0732 -0.0693  0.1291
  745loPI    C311239   3.809   4.436   5.007 -0.0260 -0.1262  0.0603
  745loPI   PO411240   4.240   4.585   5.346 -0.2492  0.0981 -0.1122
  745loPI   GL111241   4.384   4.650   5.653 -0.3982  0.0066 -0.2022
  745loPI   GL211242   4.410   4.385   5.994 -0.3197  0.2398 -0.2138
  745loPI   C1A11243   4.621   4.860   6.020 -0.1089 -0.2368  0.0057
  745loPI   C2A11244   4.680   4.984   6.433 -0.1639 -0.1810 -0.0198
  745loPI   C3A11245   4.719   4.984   6.844  0.0601  0.4308  0.1444
  745loPI   C4A11246   4.921   5.092   7.160  0.0774  0.0718  0.2068
  745loPI   C5A11247   4.900   5.373   7.534  0.0668  0.2453 -0.0905
  745loPI   C6A11248   5.049   5.713   7.701 -0.1765 -0.0973 -0.1020
  745loPI   C1B11249   4.380   4.513   6.402 -0.1484  0.1030  0.0464
  745loPI   C2B11250   4.364   4.629   6.747  0.0207  0.2542 -0.0622
  745loPI   C3B11251   4.316   4.758   7.117  0.0457  0.2796 -0.3620
  745loPI   C4B11252   4.323   4.384   7.300 -0.0094  0.0972 -0.3116
  746loPI    C111253  13.083   8.174   5.146 -0.1714  0.1186 -0.0201
  746loPI    C211254  13.372   8.345   4.929  0.0965 -0.0311  0.2110
  746loPI    C311255  13.263   7.968   4.854  0.0643 -0.0238  0.2209
  746loPI   PO411256  12.875   8.425   5.247  0.1277 -0.2557 -0.1075
  746loPI   GL111257  12.713   8.482   5.566 -0.1835 -0.0043 -0.1150
  746loPI   GL211258  12.636   8.795   5.537  0.1015 -0.1236  0.0269
  746loPI   C1A11259  12.710   8.485   5.964  0.1946 -0.0754 -0.3427
  746loPI   C2A11260  12.694   8.444   6.415  0.2812  0.1262  0.0131
  746loPI   C3A11261  13.030   8.373   6.711  0.1803 -0.2402 -0.2440
  746loPI   C4A11262  13.232   8.256   7.134  0.2997  0.2946 -0.2843
  746loPI   C5A11263  13.544   8.145   7.436  0.3072 -0.1155  0.1562
  746loPI   C6A11264  13.818   7.948   7.659  0.2350 -0.3323 -0.0486
  746loPI   C1B11265  12.700   9.029   5.880 -0.3135 -0.1697 -0.3210
  746loPI   C2B11266  12.627   8.939   6.281  0.0232  0.0782 -0.2503
  746loPI   C3B11267  12.777   8.887   6.794 -0.1021 -0.0839  0.1606
  746loPI   C4B11268  12.860   8.592   7.099 -0.2858  0.0816 -0.2004
  747loPI    C111269  14.249   0.885   4.657  0.0430 -0.2087 -0.0842
  747loPI    C211270  14.194   1.120   4.338  0.1572 -0.1272 -0.0445
  747loPI    C311271  14.338   0.750   4.291  0.2378 -0.0913 -0.0814
  747loPI   PO411272  14.143   1.139   4.842  0.3349 -0.1583  0.0643
  747loPI   GL111273  14.236   1.283   5.335  0.4424  0.0806 -0.0049
  747loPI   GL211274  14.601   1.234   5.568 -0.0074  0.0107  0.3920
  747loPI   C1A11275  14.174   1.412   5.740 -0.0818  0.0154 -0.0147
  747loPI   C2A11276  14.132   1.550   6.134  0.1640 -0.0508 -0.0812
  747loPI   C3A11277  14.032   1.691   6.580  0.1412 -0.2694 -0.0737
  747loPI   C4A11278  14.257   1.704   6.975 -0.1078 -0.1441 -0.2282
  747loPI   C5A11279  14.424   1.575   7.443  0.0573 -0.0946  0.2970
  747loPI   C6A11280  14.672   1.717   7.727 -0.1417  0.0518  0.5655
  747loPI   C1B11281  14.625   1.442   5.961 -0.0357  0.2502  0.1985
  747loPI   C2B11282  14.823   1.669   6.188  0.0663 -0.1148 -0.1038
  747loPI   C3B11283  15.012   1.782   6.522  0.1418 -0.1399 -0.0476
  747loPI   C4B11284  15.225   1.799   6.953  0.1242 -0.3228 -0.0344
  748loPI    C111285  14.531  18.389   4.657  0.1005 -0.1706  0.0363
  748loPI    C211286  14.746  18.072   4.543  0.0461 -0.2291  0.0943
  748loPI    C311287  14.360  18.097   4.444  0.1253 -0.0304 -0.1790
  748loPI   PO411288  14.594  18.460   4.920  0.0830  0.0114 -0.0249
  748loPI   GL111289  14.451  18.446   5.223  0.0718  0.1241 -0.2281
  748loPI   GL211290  14.410  18.753   5.366  0.0817  0.0513  0.1541
  748loPI   C1A11291  14.295  18.371   5.744  0.0959  0.0831  0.4291
  748loPI   C2A11292  14.387  18.468   6.131  0.0891 -0.0357 -0.1126
  748loPI   C3A11293  14.475  18.563   6.523  0.2200  0.1013  0.1400
  748loPI   C4A11294  14.570  18.537   6.920  0.2189  0.0898 -0.1275
  748loPI   C5A11295  14.350  18.614   7.272  0.0976 -0.0819  0.3651
  748loPI   C6A11296  14.430  18.958   7.504  0.1081 -0.1290  0.0387
  748loPI   C1B11297  14.389  18.861   5.805 -0.1944  0.2051  0.1122
  748loPI   C2B11298  14.586  18.955   6.156  0.1101  0.0597  0.1033
  748loPI   C3B11299  14.853  18.924   6.567  0.2071 -0.0460 -0.0532
  748loPI   C4B11300  15.110  18.950   6.947 -0.2156  0.1448 -0.1482
  749loPI    C111301   6.871  11.167   4.879  0.2185 -0.1349 -0.2299
  749loPI    C211302   6.547  11.273   4.671  0.1190 -0.2801 -0.1506
  749loPI    C311303   6.891  11.469   4.618 -0.0771  0.1308  0.0455
  749loPI   PO411304   6.783  10.962   4.994  0.1686  0.1963  0.0653
  749loPI   GL111305   6.865  10.849   5.318  0.1808 -0.2816  0.0750
  749loPI   GL211306   6.432  10.853   5.330  0.1134 -0.2112  0.0654
  749loPI   C1A11307   6.912  10.844   5.754  0.0934 -0.3885 -0.1568
  749loPI   C2A11308   7.225  10.956   6.109 -0.0826 -0.1129  0.0106
  749loPI   C3A11309   7.209  11.048   6.574 -0.2349 -0.5374  0.0873
  749loPI   C4A11310   7.270  11.032   7.016 -0.0088  0.2955  0.0869
  749loPI   C5A11311   7.439  10.903   7.411  0.1984  0.2858  0.4618
  749loPI   C6A11312   7.589  10.928   7.886  0.0602 -0.0027  0.3003
  749loPI   C1B11313   6.492  11.073   5.686  0.0227  0.0321 -0.1579
  749loPI   C2B11314   6.589  11.237   6.003 -0.1403 -0.1300 -0.3648
  749loPI   C3B11315   6.781  11.301   6.394  0.3735  0.0892 -0.0721
  749loPI   C4B11316   6.834  11.359   6.803  0.1370  0.3018 -0.0729
  750loPI    C111317  15.260   5.403   4.881  0.2364  0.0271 -0.0446
  750loPI    C211318  15.418   5.053   4.768  0.0600 -0.1539  0.2567
  750loPI    C311319  15.050   5.154   4.649  0.1320 -0.0449  0.1249
  750loPI   PO411320  15.432   5.472   5.142 -0.3480 -0.0970 -0.0632
  750loPI   GL111321  15.592   5.531   5.544  0.1242 -0.1002  0.2017
  750loPI   GL211322  15.454   5.316   5.739 -0.0617  0.0873  0.0177
  750loPI   C1A11323  15.864   5.427   5.930  0.2819 -0.0490 -0.1339
  750loPI   C2A11324  16.241   5.459   6.264 -0.0225  0.0446  0.1972
  750loPI   C3A11325  16.220   5.656   6.711  0.0089 -0.3318 -0.0225
  750loPI   C4A11326  16.422   5.866   7.136  0.0218  0.2125 -0.1522
  750loPI   C5A11327  16.749   6.009   7.385  0.3498  0.2279 -0.0131
  750loPI   C6A11328  17.112   6.183   7.704  0.1255  0.1991  0.3160
  750loPI   C1B11329  15.452   5.350   6.214 -0.1688  0.0695 -0.0496
  750loPI   C2B11330  15.532   5.499   6.658 -0.2579  0.0554  0.3790
  750loPI   C3B11331  15.719   5.629   7.009 -0.1626  0.0061  0.2080
  750loPI   C4B11332  15.668   5.575   7.428 -0.1346 -0.1876  0.1960
  751loPI    C111333   2.704   2.395   5.229  0.4103  0.1235  0.0116
  751loPI    C211334   2.755   2.277   4.850  0.0424  0.2329 -0.0761
  751loPI    C311335   2.625   2.647   4.928  0.1167  0.2109  0.1585
  751loPI   PO411336   2.500   2.128   5.301  0.0983  0.1979  0.0258
  751loPI   GL111337   2.235   2.028   5.578  0.1522 -0.0163 -0.1802
  751loPI   GL211338   1.847   2.011   5.675 -0.2373 -0.0349  0.5794
  751loPI   C1A11339   2.348   1.979   5.993 -0.1452 -0.0425 -0.3453
  751loPI   C2A11340   2.357   2.057   6.515  0.1359 -0.0241 -0.1547
  751loPI   C3A11341   2.441   1.787   6.889 -0.2406 -0.1126 -0.0790
  751loPI   C4A11342   2.369   2.036   7.168 -0.0251 -0.0876  0.0301
  751loPI   C5A11343   2.710   2.179   7.366  0.1006  0.3792  0.2923
  751loPI   C6A11344   3.110   2.084   7.536 -0.0968  0.3430  0.0409
  751loPI   C1B11345   1.881   2.086   6.137  0.2022  0.4826 -0.1618
  751loPI   C2B11346   1.856   2.109   6.577 -0.1715  0.0086 -0.2944
  751loPI   C3B11347   1.968   2.192   6.920  0.0104 -0.0364 -0.2542
  751loPI   C4B11348   2.033   2.433   7.300  0.0757  0.2664  0.4618
  752loPI    C111349   8.902   6.489   5.190  0.0448  0.0717  0.1396
  752loPI    C211350   9.111   6.754   5.404  0.1423  0.1387 -0.0366
  752loPI    C311351   9.056   6.812   5.012 -0.2251  0.1322  0.0110
  752loPI   PO411352   9.035   6.297   5.290 -0.1502 -0.0846  0.1605
  752loPI   GL111353   9.096   6.262   5.678  0.1077  0.3728  0.4448
  752loPI   GL211354   9.192   6.580   5.812 -0.0712 -0.2981 -0.1132
  752loPI   C1A11355   8.927   6.175   6.162 -0.2016 -0.2890 -0.1429
  752loPI   C2A11356   8.925   6.077   6.567  0.2741  0.1600  0.2003
  752loPI   C3A11357   8.728   6.076   7.010 -0.0051  0.2629  0.2004
  752loPI   C4A11358   8.593   5.903   7.470  0.0286  0.1656  0.0939
  752loPI   C5A11359   8.368   6.085   7.824 -0.1892  0.2397  0.0373
  752loPI   C6A11360   8.253   6.020   8.246 -0.2789 -0.1401 -0.1587
  752loPI   C1B11361   9.296   6.566   6.189 -0.1737  0.0743  0.0371
  752loPI   C2B11362   9.122   6.482   6.544 -0.0422  0.0857 -0.0537
  752loPI   C3B11363   9.098   6.341   7.036  0.0389  0.1401  0.0551
  752loPI   C4B11364   9.091   6.112   7.414  0.3952 -0.2467  0.0242
  753loPI    C111365  16.678  17.673   5.178  0.1092  0.0902  0.0078
  753loPI    C211366  16.511  17.865   4.870 -0.0130 -0.1936 -0.1059
  753loPI    C311367  16.873  17.698   4.830  0.0167 -0.1401 -0.0622
  753loPI   PO411368  16.738  17.839   5.340  0.1075 -0.0586 -0.1565
  753loPI   GL111369  16.982  17.851   5.787 -0.2210  0.0495  0.0647
  753loPI   GL211370  16.767  18.061   5.784 -0.0220  0.1581 -0.0497
  753loPI   C1A11371  16.857  17.617   6.020 -0.1517  0.1491  0.1757
  753loPI   C2A11372  16.909  17.672   6.419  0.3016 -0.1103  0.2505
  753loPI   C3A11373  17.137  17.713   6.864  0.3886  0.0850  0.0011
  753loPI   C4A11374  17.513  17.909   6.992  0.0935  0.0894 -0.1419
  753loPI   C5A11375  17.649  17.870   7.430  0.0058  0.1554  0.1765
  753loPI   C6A11376  17.522  17.949   7.850  0.0657  0.3822 -0.0305
  753loPI   C1B11377  16.744  18.151   6.212  0.2829 -0.0854 -0.0484
  753loPI   C2B11378  16.791  18.134   6.647  0.0952  0.1577  0.0058
  753loPI   C3B11379  17.044  18.302   6.875 -0.1660 -0.3185  0.0445
  753loPI   C4B11380  17.140  18.382   7.385  0.0315 -0.0430  0.1917
  754loPI    C111381  10.228   4.722   5.348 -0.0811 -0.2945  0.1147
  754loPI    C211382  10.551   4.653   5.575  0.1229  0.2814  0.0176
  754loPI    C311383  10.518   4.480   5.215  0.2051  0.0341  0.1264
  754loPI   PO411384  10.093   4.711   5.479 -0.1386  0.1783 -0.0271
  754loPI   GL111385  10.216   4.826   5.907  0.1884  0.2449 -0.3555
  754loPI   GL211386  10.351   5.122   5.826 -0.0363  0.1060 -0.0972
  754loPI   C1A11387  10.206   4.695   6.288 -0.0722  0.1206  0.1894
  754loPI   C2A11388  10.213   4.713   6.614  0.0200 -0.0222 -0.0765
  754loPI   C3A11389  10.119   4.979   7.013  0.2859 -0.0956 -0.1246
  754loPI   C4A11390  10.033   5.082   7.346 -0.0274  0.0550  0.1706
  754loPI   C5A11391   9.859   5.138   7.754  0.1176  0.2205 -0.0235
  754loPI   C6A11392   9.819   5.569   7.721  0.1192 -0.0453  0.0113
  754loPI   C1B11393  10.185   5.389   6.025  0.2607 -0.0130 -0.2047
  754loPI   C2B11394   9.908   5.611   6.363  0.6055  0.0491 -0.2811
  754loPI   C3B11395   9.625   5.593   6.813 -0.1917  0.0444  0.1587
  754loPI   C4B11396   9.678   5.302   7.108  0.3136 -0.2540  0.1126
  755loPI    C111397   4.346  10.376   4.397  0.2630 -0.1129  0.0474
  755loPI    C211398   3.990  10.426   4.221  0.2329 -0.6252 -0.0538
  755loPI    C311399   4.293  10.671   4.133 -0.1962  0.0848  0.3459
  755loPI   PO411400   4.239  10.359   4.679 -0.2195 -0.2746 -0.1341
  755loPI   GL111401   4.293  10.467   5.045  0.0646 -0.0146  0.1270
  755loPI   GL211402   4.031  10.430   5.252  0.1078  0.0088  0.0201
  755loPI   C1A11403   4.418  10.101   5.452  0.2058 -0.0732  0.0857
  755loPI   C2A11404   4.444   9.923   5.871 -0.0829  0.1152  0.2275
  755loPI   C3A11405   4.739   9.964   6.198 -0.1387  0.0825 -0.2106
  755loPI   C4A11406   4.846   9.869   6.652 -0.0711 -0.0551 -0.3372
  755loPI   C5A11407   4.811  10.205   6.920  0.4442 -0.0326 -0.1342
  755loPI   C6A11408   4.581  10.369   7.184 -0.1495 -0.1222 -0.2491
  755loPI   C1B11409   4.043  10.364   5.691  0.1190 -0.2609 -0.2425
  755loPI   C2B11410   3.725  10.320   6.061  0.1450  0.2432 -0.0004
  755loPI   C3B11411   3.371  10.449   6.424  0.0873  0.0867 -0.2218
  755loPI   C4B11412   3.169  10.484   6.824 -0.0979 -0.1832  0.0204
  756loPI    C111413   1.502  10.710   4.772  0.2353  0.0472  0.0212
  756loPI    C211414   1.489  10.424   4.494  0.0667  0.0846 -0.0100
  756loPI    C311415   1.387  10.800   4.400 -0.0073  0.0940  0.1054
  756loPI   PO411416   1.717  10.594   4.949 -0.2558  0.1862  0.0125
  756loPI   GL111417   1.913  10.399   5.335 -0.0408  0.0482  0.1121
  756loPI   GL211418   1.862  10.177   5.189 -0.0961 -0.2982  0.1117
  756loPI   C1A11419   2.110  10.388   5.739  0.4895 -0.3846 -0.0627
  756loPI   C2A11420   2.013  10.387   6.177 -0.1105 -0.0099 -0.1265
  756loPI   C3A11421   2.297  10.500   6.520 -0.0260 -0.3199 -0.1333
  756loPI   C4A11422   2.330  10.825   6.899  0.3185  0.2305  0.0323
  756loPI   C5A11423   2.376  10.990   7.272 -0.1798  0.0399 -0.3274
  756loPI   C6A11424   2.785  11.118   7.491  0.1484  0.0001  0.2206
  756loPI   C1B11425   1.763   9.847   5.520  0.1497  0.1458  0.3307
  756loPI   C2B11426   1.945   9.680   5.891 -0.0668  0.2152 -0.1504
  756loPI   C3B11427   2.125   9.676   6.358 -0.0261 -0.3314 -0.2069
  756loPI   C4B11428   1.978   9.923   6.743  0.2643  0.1830 -0.3802
  757loPI    C111429   4.628  17.559   4.936 -0.1223 -0.3622 -0.0151
  757loPI    C211430   4.894  17.340   4.733  0.1842  0.0705 -0.0948
  757loPI    C311431   4.590  17.515   4.541 -0.0795 -0.3011 -0.0262
  757loPI   PO411432   4.761  17.519   5.209 -0.1552  0.0318  0.0568
  757loPI   GL111433   4.686  17.450   5.556  0.0613 -0.1301  0.1438
  757loPI   GL211434   4.727  17.672   5.705 -0.1021 -0.2452 -0.0733
  757loPI   C1A11435   4.712  17.197   5.942 -0.1242 -0.1413  0.1285
  757loPI   C2A11436   4.738  17.195   6.457 -0.0262 -0.2600 -0.0116
  757loPI   C3A11437   4.590  17.302   6.848 -0.2418  0.0050 -0.0492
  757loPI   C4A11438   4.585  17.197   7.218 -0.0797 -0.3659  0.1384
  757loPI   C5A11439   4.346  17.110   7.613  0.0919  0.4414  0.1473
  757loPI   C6A11440   3.997  16.971   7.781 -0.4764 -0.2921 -0.7044
  757loPI   C1B11441   4.609  17.692   6.121 -0.0722 -0.0505  0.0180
  757loPI   C2B11442   4.668  17.728   6.607 -0.0325  0.1366  0.0602
  757loPI   C3B11443   4.476  17.769   7.091 -0.3208 -0.0523 -0.0905
  757loPI   C4B11444   4.057  17.638   7.310 -0.1001 -0.1242 -0.0863
  758loPI    C111445  16.442   4.743   4.813 -0.0506  0.1129  0.0718
  758loPI    C211446  16.676   4.563   4.544 -0.1160 -0.0035  0.0918
  758loPI    C311447  16.582   4.950   4.501  0.2064  0.0869  0.1671
  758loPI   PO411448  16.560   4.759   5.104  0.0393  0.1052  0.0931
  758loPI   GL111449  16.782   4.789   5.468  0.0649 -0.0765  0.2651
  758loPI   GL211450  17.136   4.897   5.432  0.0252  0.0987  0.0019
  758loPI   C1A11451  16.670   4.689   5.827 -0.1625  0.0303  0.1203
  758loPI   C2A11452  16.713   4.482   6.180 -0.0437  0.0524  0.0259
  758loPI   C3A11453  16.742   4.460   6.681  0.0670 -0.2151 -0.0717
  758loPI   C4A11454  16.669   4.412   7.136 -0.0691  0.1662  0.1324
  758loPI   C5A11455  16.467   4.312   7.572 -0.1185 -0.1427  0.1992
  758loPI   C6A11456  16.527   4.277   7.947  0.1241 -0.2192 -0.4021
  758loPI   C1B11457  17.260   4.658   5.852  0.2208  0.0806  0.0177
  758loPI   C2B11458  17.198   4.430   6.292 -0.1510 -0.0578  0.1864
  758loPI   C3B11459  17.318   4.584   6.646 -0.0058  0.1281 -0.2371
  758loPI   C4B11460  17.182   4.474   6.990 -0.2646  0.1374  0.1170
  759loPI    C111461   6.345  18.740   5.049  0.1114  0.0436  0.1757
  759loPI    C211462   6.089  19.047   5.035  0.0121 -0.0452  0.0111
  759loPI    C311463   6.084  18.769   4.747  0.2469 -0.0858  0.0443
  759loPI   PO411464   6.346  18.641   5.333  0.2220  0.2983 -0.0922
  759loPI   GL111465   6.333  18.705   5.766  0.1114 -0.1523  0.0416
  759loPI   GL211466   6.646  18.834   5.789 -0.1325  0.3112  0.1603
  759loPI   C1A11467   6.030  18.492   6.036 -0.1505 -0.2090 -0.1978
  759loPI   C2A11468   6.222  18.479   6.390 -0.3465 -0.1892  0.0420
  759loPI   C3A11469   6.410  18.458   6.729 -0.1373 -0.0533  0.0338
  759loPI   C4A11470   6.497  18.576   7.118 -0.0826  0.0440 -0.0377
  759loPI   C5A11471   6.778  18.350   7.416  0.0343  0.0426  0.0225
  759loPI   C6A11472   7.098  18.143   7.593 -0.3018 -0.1033  0.0670
  759loPI   C1B11473   6.530  18.955   6.301  0.2143 -0.0874 -0.0482
  759loPI   C2B11474   6.699  18.930   6.720  0.0531 -0.1416 -0.2393
  759loPI   C3B11475   6.906  18.761   6.989 -0.0616 -0.1353  0.1983
  759loPI   C4B11476   7.155  19.102   7.184 -0.0307  0.2168  0.0299
  760loPI    C111477   5.297  11.976   4.516  0.1969  0.2450 -0.0164
  760loPI    C211478   5.058  11.996   4.196 -0.0521 -0.0196  0.1479
  760loPI    C311479   5.456  11.987   4.149 -0.0897 -0.2310 -0.1628
  760loPI   PO411480   5.188  12.147   4.714 -0.2062 -0.3631  0.0567
  760loPI   GL111481   5.044  11.956   5.141  0.1139 -0.2325  0.1470
  760loPI   GL211482   5.289  12.284   5.190 -0.0499 -0.4742 -0.1656
  760loPI   C1A11483   4.821  11.740   5.393 -0.2521 -0.2384  0.0377
  760loPI   C2A11484   5.018  11.724   5.855 -0.0279  0.2292 -0.1980
  760loPI   C3A11485   5.040  11.513   6.195 -0.1408  0.1791 -0.1535
  760loPI   C4A11486   4.947  11.298   6.549 -0.1729 -0.2098 -0.0098
  760loPI   C5A11487   4.973  11.171   6.913 -0.2101  0.0648  0.0179
  760loPI   C6A11488   5.211  10.887   7.316 -0.2566 -0.0244  0.0457
  760loPI   C1B11489   5.339  12.052   5.599  0.2000  0.0488  0.1736
  760loPI   C2B11490   5.384  12.059   6.024 -0.1382 -0.3671 -0.0074
  760loPI   C3B11491   5.437  12.265   6.432  0.1737 -0.2553  0.1833
  760loPI   C4B11492   5.429  12.183   6.827 -0.0660 -0.0376 -0.2926
  761loPI    C111493  11.759  15.439   5.112  0.1004 -0.0949  0.1172
  761loPI    C211494  11.701  15.631   4.766  0.0245  0.1150  0.2442
  761loPI    C311495  12.072  15.558   4.894  0.0539  0.1635  0.1874
  761loPI   PO411496  11.489  15.575   5.259  0.0291  0.0644 -0.0817
  761loPI   GL111497  11.514  15.533   5.667  0.3693  0.0183 -0.1352
  761loPI   GL211498  11.692  15.327   5.731 -0.0683 -0.1032  0.0303
  761loPI   C1A11499  11.453  15.865   5.945  0.1659 -0.3166  0.2225
  761loPI   C2A11500  11.385  15.963   6.404  0.1911 -0.0955  0.1730
  761loPI   C3A11501  11.515  15.872   6.711 -0.0711  0.1776 -0.1158
  761loPI   C4A11502  11.735  15.922   7.163 -0.3061  0.1257 -0.0759
  761loPI   C5A11503  12.229  16.040   7.228 -0.0176 -0.1957 -0.0953
  761loPI   C6A11504  12.398  16.460   7.257 -0.1378  0.0184 -0.1246
  761loPI   C1B11505  11.631  15.070   6.046 -0.1135 -0.1863  0.3719
  761loPI   C2B11506  11.783  15.087   6.518 -0.2668 -0.0069  0.2115
  761loPI   C3B11507  11.815  14.808   6.825 -0.0188 -0.2131  0.1322
  761loPI   C4B11508  12.020  14.742   7.118  0.0374  0.1370 -0.1572
  762loPI    C111509   2.849  18.165   4.825  0.0031 -0.0228  0.0059
  762loPI    C211510   3.071  18.327   4.534  0.0008  0.1952  0.1232
  762loPI    C311511   2.751  18.105   4.442  0.3862 -0.3058 -0.0536
  762loPI   PO411512   2.939  18.181   5.039  0.0125 -0.2672  0.0771
  762loPI   GL111513   3.100  18.274   5.516  0.4097  0.1840 -0.0889
  762loPI   GL211514   2.761  18.099   5.552 -0.2279 -0.2229 -0.1030
  762loPI   C1A11515   3.095  18.250   5.913 -0.0158  0.0312  0.1759
  762loPI   C2A11516   3.248  18.439   6.257  0.2476 -0.0469  0.0142
  762loPI   C3A11517   3.172  18.561   6.703  0.3544  0.0437 -0.0182
  762loPI   C4A11518   3.216  18.324   7.055  0.2155  0.1067 -0.1267
  762loPI   C5A11519   3.081  18.150   7.485 -0.2935  0.0348  0.0891
  762loPI   C6A11520   3.235  18.392   7.884  0.0925 -0.0497 -0.0903
  762loPI   C1B11521   2.708  17.879   5.875  0.1951  0.2798  0.2130
  762loPI   C2B11522   2.657  17.633   6.158 -0.1878 -0.2594 -0.0668
  762loPI   C3B11523   2.828  17.314   6.360 -0.1060 -0.1216  0.5038
  762loPI   C4B11524   2.833  17.022   6.775  0.0280  0.2324  0.2581
  763loPI    C111525   6.027  12.113   4.731  0.0497  0.2274  0.0422
  763loPI    C211526   5.668  12.088   4.904 -0.0669  0.3434 -0.1780
  763loPI    C311527   5.700  12.225   4.530  0.1447 -0.2059 -0.3713
  763loPI   PO411528   6.206  12.134   4.937 -0.1782 -0.2229 -0.1879
  763loPI   GL111529   5.989  12.271   5.284  0.1361 -0.2350 -0.6043
  763loPI   GL211530   5.833  12.091   5.397 -0.1121 -0.0652 -0.1475
  763loPI   C1A11531   6.242  12.465   5.640  0.0262  0.0853  0.0821
  763loPI   C2A11532   6.400  12.489   6.025  0.3613 -0.2082  0.2321
  763loPI   C3A11533   6.397  12.604   6.449  0.2624 -0.2086  0.0302
  763loPI   C4A11534   6.375  12.614   6.897 -0.0843 -0.2131  0.1471
  763loPI   C5A11535   6.370  12.764   7.146  0.1950  0.1062 -0.0579
  763loPI   C6A11536   6.167  13.066   7.503  0.2208  0.3742  0.1611
  763loPI   C1B11537   5.861  11.977   5.734 -0.0969  0.0184 -0.1114
  763loPI   C2B11538   6.259  12.039   5.895  0.0728 -0.3678  0.2636
  763loPI   C3B11539   6.387  12.100   6.274  0.2033  0.1605 -0.3169
  763loPI   C4B11540   6.340  12.031   6.741  0.0315 -0.3504 -0.0222
  764loPI    C111541  10.549  14.636   4.945  0.0052 -0.1468 -0.2182
  764loPI    C211542  10.292  14.922   4.834 -0.1287 -0.0910  0.2153
  764loPI    C311543  10.499  14.720   4.557 -0.5071 -0.0176 -0.1313
  764loPI   PO411544  10.652  14.797   5.176  0.0500 -0.0640  0.0033
  764loPI   GL111545  10.696  14.697   5.574 -0.0673 -0.0212  0.1433
  764loPI   GL211546  10.376  14.613   5.686  0.0615 -0.2325  0.3287
  764loPI   C1A11547  10.738  14.702   6.076 -0.2960  0.3070 -0.0447
  764loPI   C2A11548  10.877  14.782   6.463  0.1973  0.1041 -0.0005
  764loPI   C3A11549  10.767  14.873   6.837  0.1296 -0.0365 -0.0119
  764loPI   C4A11550  10.483  14.882   7.191  0.0916 -0.2397 -0.2089
  764loPI   C5A11551  10.603  14.897   7.598 -0.1347  0.0164  0.1180
  764loPI   C6A11552  10.774  14.868   8.020 -0.2463  0.3091 -0.1762
  764loPI   C1B11553  10.200  14.469   6.146 -0.0007  0.0418  0.0364
  764loPI   C2B11554  10.290  14.535   6.605 -0.1710 -0.2178 -0.1371
  764loPI   C3B11555  10.429  14.477   6.938 -0.0840  0.2776 -0.2205
  764loPI   C4B11556  10.516  14.409   7.427  0.0800 -0.2700 -0.0496
  765loPI    C111557   8.774   7.211   5.307 -0.0870 -0.0680  0.0805
  765loPI    C211558   8.894   7.279   4.931 -0.0422  0.0279  0.1118
  765loPI    C311559   9.164   7.239   5.224 -0.0838  0.2047  0.1758
  765loPI   PO411560   8.628   6.995   5.266 -0.0276 -0.1500  0.2338
  765loPI   GL111561   8.648   6.764   5.570  0.1408 -0.0485  0.2184
  765loPI   GL211562   8.842   6.975   5.757 -0.2593  0.2865  0.1777
  765loPI   C1A11563   8.402   6.904   5.980 -0.0430  0.3707 -0.0941
  765loPI   C2A11564   8.401   7.214   6.404  0.1604  0.0414  0.5488
  765loPI   C3A11565   8.591   7.444   6.823 -0.2622 -0.2191 -0.0183
  765loPI   C4A11566   8.522   7.328   7.318 -0.0227 -0.0501  0.0885
  765loPI   C5A11567   8.626   7.512   7.794 -0.1025  0.1478 -0.1075
  765loPI   C6A11568   8.705   7.532   8.200  0.2705 -0.1992  0.0125
  765loPI   C1B11569   8.884   6.856   6.152 -0.0104  0.1863 -0.1112
  765loPI   C2B11570   8.822   6.967   6.603 -0.2796 -0.0133 -0.0061
  765loPI   C3B11571   8.846   7.028   7.059 -0.0586  0.0739  0.1266
  765loPI   C4B11572   8.740   6.911   7.551 -0.0377 -0.1089 -0.0864
  766loPI    C111573  12.253   1.411   4.870  0.0148 -0.1479 -0.0091
  766loPI    C211574  12.456   1.597   4.580 -0.1816  0.0731 -0.0074
  766loPI    C311575  12.323   1.224   4.523  0.0508 -0.0003 -0.0823
  766loPI   PO411576  12.355   1.407   5.121  0.0909 -0.1546 -0.1541
  766loPI   GL111577  12.305   1.439   5.596 -0.0102 -0.1660  0.3581
  766loPI   GL211578  12.655   1.559   5.727  0.1290 -0.2927  0.2329
  766loPI   C1A11579  12.270   1.304   6.020  0.1904  0.2013  0.1196
  766loPI   C2A11580  12.339   1.208   6.442  0.1814  0.2769 -0.0767
  766loPI   C3A11581  12.485   1.268   6.871  0.2184 -0.0347  0.3785
  766loPI   C4A11582  12.616   1.202   7.252 -0.1245  0.0875 -0.2543
  766loPI   C5A11583  13.046   1.217   7.366 -0.1935 -0.0155  0.1625
  766loPI   C6A11584  13.363   1.229   7.738 -0.4136 -0.2731 -0.0422
  766loPI   C1B11585  12.574   1.631   6.151 -0.1159  0.2103 -0.0967
  766loPI   C2B11586  12.676   1.715   6.540  0.1497 -0.1998  0.1166
  766loPI   C3B11587  12.973   1.574   6.841 -0.2420 -0.1891 -0.2867
  766loPI   C4B11588  13.124   1.686   7.277  0.0328 -0.3295 -0.3928
  767loPI    C111589  10.404   7.698   5.179  0.0147  0.0581  0.2322
  767loPI    C211590  10.089   7.764   4.941 -0.0410 -0.3217  0.1945
  767loPI    C311591  10.456   7.738   4.784 -0.0177 -0.1095  0.2104
  767loPI   PO411592  10.220   7.476   5.293  0.0574 -0.0949  0.1808
  767loPI   GL111593  10.052   7.455   5.651  0.1997  0.0632 -0.0699
  767loPI   GL211594   9.930   7.193   5.772 -0.2420  0.1432 -0.0726
  767loPI   C1A11595  10.333   7.403   6.137 -0.2229  0.0275 -0.1860
  767loPI   C2A11596  10.413   7.392   6.545 -0.0649  0.0595 -0.1312
  767loPI   C3A11597  10.464   7.430   6.981 -0.4718 -0.0464 -0.1721
  767loPI   C4A11598  10.651   7.476   7.351 -0.0249  0.1303  0.2926
  767loPI   C5A11599  10.475   7.204   7.708 -0.0415  0.1559 -0.0252
  767loPI   C6A11600  10.278   7.176   8.022 -0.1326 -0.0929  0.2600
  767loPI   C1B11601   9.907   7.136   6.172  0.0078  0.1559 -0.0893
  767loPI   C2B11602  10.092   6.971   6.452 -0.0349  0.0937 -0.0056
  767loPI   C3B11603  10.214   6.957   6.799 -0.1351 -0.2942  0.1703
  767loPI   C4B11604  10.364   6.906   7.218 -0.1086 -0.2537 -0.0164
  768loPI    C111605   9.826   3.293   5.172 -0.0439  0.2221 -0.1626
  768loPI    C211606   9.843   3.457   4.807 -0.0438  0.0653 -0.2336
  768loPI    C311607   9.654   3.108   4.862 -0.1624  0.1555 -0.0581
  768loPI   PO411608   9.996   3.244   5.315 -0.1015  0.1355 -0.3568
  768loPI   GL111609  10.120   3.302   5.696  0.2631 -0.0531 -0.1212
  768loPI   GL211610  10.455   3.149   5.730  0.1595  0.0998 -0.0152
  768loPI   C1A11611  10.164   3.253   6.154  0.1664  0.0166  0.1229
  768loPI   C2A11612  10.133   3.003   6.489  0.1025  0.0345 -0.2860
  768loPI   C3A11613  10.096   2.933   6.874 -0.2808 -0.2324 -0.3547
  768loPI   C4A11614  10.117   2.577   7.120 -0.0978  0.0450 -0.1233
  768loPI   C5A11615  10.176   2.597   7.567 -0.0465 -0.0499  0.0803
  768loPI   C6A11616  10.389   2.550   7.918 -0.1575 -0.1853 -0.0892
  768loPI   C1B11617  10.206   2.819   5.917 -0.1530 -0.1786  0.1618
  768loPI   C2B11618  10.434   2.651   6.347  0.1531  0.0823  0.0339
  768loPI   C3B11619  10.564   2.598   6.858  0.0901 -0.0475  0.0590
  768loPI   C4B11620  10.595   2.761   7.252  0.1145  0.1609 -0.2183
  769loPI    C111621   5.453   6.372   5.280  0.1888  0.2828  0.0630
  769loPI    C211622   5.312   6.297   4.913  0.2460  0.0812  0.0807
  769loPI    C311623   5.687   6.429   4.960  0.2936 -0.0516  0.0763
  769loPI   PO411624   5.333   6.547   5.394  0.2254 -0.4253 -0.1929
  769loPI   GL111625   5.111   6.759   5.759  0.0191 -0.0175  0.0687
  769loPI   GL211626   5.398   7.071   5.762  0.2304 -0.2535 -0.3232
  769loPI   C1A11627   5.313   6.526   6.039 -0.3178  0.2563  0.1655
  769loPI   C2A11628   5.299   6.531   6.354 -0.0486 -0.3547  0.1196
  769loPI   C3A11629   5.206   6.808   6.666  0.2240  0.0531 -0.2341
  769loPI   C4A11630   5.004   6.951   6.968 -0.3412 -0.0630 -0.2293
  769loPI   C5A11631   4.713   6.995   7.287 -0.0078 -0.0627 -0.0671
  769loPI   C6A11632   4.390   7.232   7.548  0.0776 -0.0373 -0.1186
  769loPI   C1B11633   5.598   7.456   6.091  0.2801  0.0848 -0.0907
  769loPI   C2B11634   5.445   7.501   6.459 -0.0517 -0.2560  0.1452
  769loPI   C3B11635   5.442   7.292   6.846 -0.0285  0.0364  0.1061
  769loPI   C4B11636   5.608   6.921   7.203 -0.2442 -0.0011 -0.2469
  770loPI    C111637   5.032  10.672   4.630  0.1309 -0.0120 -0.2221
  770loPI    C211638   4.748  10.395   4.682  0.0523  0.1202  0.0727
  770loPI    C311639   4.789  10.576   4.327 -0.2126  0.0781  0.0188
  770loPI   PO411640   5.239  10.527   4.831  0.0040  0.2791  0.1700
  770loPI   GL111641   5.347  10.543   5.294  0.2045  0.2764  0.0563
  770loPI   GL211642   5.610  10.391   5.170  0.0500  0.2002 -0.3170
  770loPI   C1A11643   5.259  10.435   5.642 -0.0488  0.0060  0.1521
  770loPI   C2A11644   5.350  10.593   6.017  0.2396 -0.0526 -0.0623
  770loPI   C3A11645   5.535  10.443   6.423 -0.0536 -0.2624 -0.0440
  770loPI   C4A11646   5.861  10.489   6.689 -0.1792  0.0262 -0.3076
  770loPI   C5A11647   6.208  10.636   6.864 -0.1372  0.1935 -0.0477
  770loPI   C6A11648   6.485  10.598   7.199 -0.3004  0.2215  0.3241
  770loPI   C1B11649   5.708  10.291   5.643 -0.1319  0.0567  0.1251
  770loPI   C2B11650   5.740  10.226   5.978  0.1365 -0.1968 -0.0501
  770loPI   C3B11651   6.099  10.373   6.207  0.2435  0.0727 -0.3838
  770loPI   C4B11652   6.430  10.354   6.420 -0.0087  0.0633  0.0256
  771loPI    C111653   3.172   0.045   4.680 -0.1092  0.0194  0.0745
  771loPI    C211654   3.275   0.263   4.361  0.0629  0.0722  0.1649
  771loPI    C311655   3.065   0.429   4.658  0.0936  0.0832  0.1804
  771loPI   PO411656   3.368  -0.041   4.851 -0.2518 -0.0936  0.3903
  771loPI   GL111657   3.503  -0.080   5.289  0.1436  0.3415 -0.1117
  771loPI   GL211658   3.711  -0.356   5.420  0.3762 -0.0654 -0.2347
  771loPI   C1A11659   3.344  -0.197   5.753 -0.0780 -0.1566 -0.0054
  771loPI   C2A11660   3.189   0.021   5.991 -0.1993 -0.1227 -0.0481
  771loPI   C3A11661   3.208   0.075   6.454 -0.0999  0.1032  0.3505
  771loPI   C4A11662   3.331   0.211   6.885  0.2465 -0.1952  0.2398
  771loPI   C5A11663   3.368  -0.111   7.217 -0.0348 -0.0269  0.2822
  771loPI   C6A11664   3.538  -0.476   7.478 -0.1538 -0.0492 -0.2278
  771loPI   C1B11665   3.607  -0.608   5.879  0.3081  0.0037 -0.2773
  771loPI   C2B11666   3.642  -0.661   6.329  0.0349 -0.0888  0.0970
  771loPI   C3B11667   3.561  -0.984   6.627 -0.0579  0.4181 -0.1855
  771loPI   C4B11668   3.668  -1.333   6.950 -0.1803  0.0778 -0.0210
  772loPI    C111669   9.652   6.096   5.029 -0.1024 -0.2028  0.1188
  772loPI    C211670   9.444   6.429   4.954  0.0246 -0.0560  0.4052
  772loPI    C311671   9.586   6.210   4.651  0.1556  0.2863  0.2139
  772loPI   PO411672   9.519   5.922   5.182 -0.0202  0.2245 -0.2686
  772loPI   GL111673   9.398   5.826   5.589 -0.0341  0.2510 -0.0506
  772loPI   GL211674   9.514   5.600   5.807 -0.1714 -0.0151  0.1693
  772loPI   C1A11675   9.457   6.084   5.994 -0.1250 -0.3562 -0.2305
  772loPI   C2A11676   9.341   5.776   6.274 -0.1324  0.0037  0.1705
  772loPI   C3A11677   9.171   5.651   6.633 -0.1540 -0.2104  0.1200
  772loPI   C4A11678   8.968   5.614   7.089  0.0870  0.1546 -0.2953
  772loPI   C5A11679   8.785   5.428   7.306  0.1095 -0.1935  0.0814
  772loPI   C6A11680   8.752   5.241   7.670 -0.0215  0.0852  0.1493
  772loPI   C1B11681   9.327   5.307   6.077  0.2504  0.0600 -0.1791
  772loPI   C2B11682   9.445   5.249   6.471  0.1045 -0.0427  0.1116
  772loPI   C3B11683   9.291   5.132   6.808  0.0332 -0.2737 -0.1300
  772loPI   C4B11684   9.265   5.004   7.244 -0.4918  0.0835  0.1500
  773loPI    C111685   7.501   5.381   4.788  0.0276  0.2176 -0.1974
  773loPI    C211686   7.333   5.027   4.868 -0.0464  0.2989  0.0141
  773loPI    C311687   7.254   5.211   4.522 -0.0627  0.1420 -0.0670
  773loPI   PO411688   7.561   5.481   5.072  0.0698  0.2812  0.0423
  773loPI   GL111689   7.355   5.391   5.467  0.2221  0.0623  0.1479
  773loPI   GL211690   7.668   5.493   5.613  0.0274 -0.0920 -0.2232
  773loPI   C1A11691   7.288   5.200   5.924  0.0982 -0.1708 -0.1938
  773loPI   C2A11692   7.467   5.112   6.372 -0.1952  0.1228  0.0588
  773loPI   C3A11693   7.820   5.155   6.624  0.2092  0.2847 -0.1981
  773loPI   C4A11694   8.004   4.969   7.050  0.0045 -0.1259 -0.2809
  773loPI   C5A11695   7.805   4.902   7.414  0.0675  0.0246 -0.1208
  773loPI   C6A11696   7.497   5.074   7.598 -0.0173  0.0759 -0.0628
  773loPI   C1B11697   7.850   5.254   6.012 -0.0291 -0.0813 -0.0217
  773loPI   C2B11698   7.986   4.878   6.251  0.1363 -0.0613 -0.0192
  773loPI   C3B11699   8.036   4.647   6.588 -0.3014  0.0282 -0.0980
  773loPI   C4B11700   8.020   4.427   6.945  0.1423  0.2531 -0.1028
  774loPI    C111701  16.265  11.178   5.033  0.0436 -0.2547  0.1577
  774loPI    C211702  16.353  10.852   4.819  0.1179  0.1541 -0.4598
  774loPI    C311703  16.465  11.213   4.689 -0.1166  0.4501  0.1207
  774loPI   PO411704  16.045  11.152   5.164 -0.1770  0.3343  0.0743
  774loPI   GL111705  15.822  11.171   5.598  0.2506  0.3617  0.0362
  774loPI   GL211706  15.735  11.368   5.744 -0.0681  0.0775 -0.0209
  774loPI   C1A11707  15.702  10.928   6.015  0.0449  0.0735  0.4971
  774loPI   C2A11708  15.567  10.785   6.412  0.3430  0.1884 -0.2094
  774loPI   C3A11709  15.741  10.633   6.832  0.0806 -0.0388  0.0013
  774loPI   C4A11710  15.811  10.522   7.231  0.2201 -0.0033 -0.0956
  774loPI   C5A11711  15.787  10.200   7.571  0.2046 -0.2776  0.1723
  774loPI   C6A11712  16.178   9.926   7.699 -0.0211 -0.1117  0.0425
  774loPI   C1B11713  15.853  11.302   6.265  0.1130  0.0871  0.1564
  774loPI   C2B11714  15.929  11.038   6.569 -0.1829  0.1266 -0.0893
  774loPI   C3B11715  16.040  11.011   7.004 -0.1655  0.2631  0.4929
  774loPI   C4B11716  16.271  10.778   7.392  0.0207  0.1534 -0.2054
  775loPI    C111717  12.970   2.708   5.157 -0.1434 -0.0611  0.0467
  775loPI    C211718  13.226   3.011   5.105 -0.0564 -0.1710 -0.1753
  775loPI    C311719  12.919   2.964   4.854 -0.1301 -0.2062 -0.0789
  775loPI   PO411720  12.937   2.690   5.415  0.0201 -0.1845  0.0294
  775loPI   GL111721  12.863   2.894   5.692  0.1188  0.3118 -0.2167
  775loPI   GL211722  13.086   3.015   5.769  0.0535  0.2106 -0.0166
  775loPI   C1A11723  12.541   2.847   6.056  0.0549  0.1364 -0.0387
  775loPI   C2A11724  12.633   2.901   6.485  0.1074 -0.1381 -0.4796
  775loPI   C3A11725  12.536   2.993   6.910  0.0337 -0.1453 -0.0678
  775loPI   C4A11726  12.436   2.661   7.188  0.0642 -0.0141 -0.3089
  775loPI   C5A11727  12.278   2.564   7.626 -0.0791 -0.0371  0.0086
  775loPI   C6A11728  12.046   2.624   7.983  0.1122  0.1797 -0.0049
  775loPI   C1B11729  13.049   3.091   6.160  0.0827  0.1260 -0.1619
  775loPI   C2B11730  13.100   3.208   6.523  0.0689  0.1317 -0.0093
  775loPI   C3B11731  13.301   3.462   6.853 -0.1030 -0.0093 -0.5393
  775loPI   C4B11732  13.620   3.467   7.033 -0.2159  0.0987 -0.1498
  776loPI    C111733   0.252  18.077   4.587 -0.1210  0.0859  0.2214
  776loPI    C211734   0.651  18.049   4.596 -0.1127  0.1872  0.1771
  776loPI    C311735   0.465  18.160   4.259 -0.1866  0.0170  0.1608
  776loPI   PO411736   0.255  18.028   4.895 -0.0554  0.0781  0.2071
  776loPI   GL111737   0.180  18.067   5.352  0.2424  0.2699 -0.1493
  776loPI   GL211738   0.272  18.348   5.438  0.1226  0.0379 -0.0441
  776loPI   C1A11739  -0.078  18.070   5.779 -0.0162  0.0329 -0.2791
  776loPI   C2A11740  -0.127  17.979   6.253  0.1706  0.0735  0.1521
  776loPI   C3A11741   0.042  17.795   6.644 -0.1661  0.3317  0.1149
  776loPI   C4A11742   0.180  17.709   7.069 -0.1989  0.0336  0.1342
  776loPI   C5A11743   0.322  17.425   7.367  0.1962  0.1892  0.0647
  776loPI   C6A11744   0.606  17.427   7.750  0.0056 -0.1809 -0.1837
  776loPI   C1B11745   0.421  18.363   5.857  0.1421  0.2754 -0.1011
  776loPI   C2B11746   0.546  18.570   6.229  0.2346 -0.1516 -0.1762
  776loPI   C3B11747   0.658  18.547   6.664  0.3115 -0.0070  0.2914
  776loPI   C4B11748   0.645  18.493   7.108  0.0051  0.1302  0.1147
  777loPI    C111749   3.505   1.376   4.869  0.0136  0.0314 -0.1689
  777loPI    C211750   3.138   1.384   4.711 -0.0627  0.3198  0.0160
  777loPI    C311751   3.438   1.214   4.510 -0.3098  0.0184 -0.1061
  777loPI   PO411752   3.437   1.502   5.167  0.0748 -0.0325 -0.0090
  777loPI   GL111753   3.452   1.469   5.538  0.1886  0.2699  0.2653
  777loPI   GL211754   3.124   1.616   5.519 -0.0661  0.3717 -0.2286
  777loPI   C1A11755   3.471   1.359   5.984  0.2255  0.0721 -0.1149
  777loPI   C2A11756   3.123   1.247   6.300 -0.0142  0.0800 -0.0369
  777loPI   C3A11757   2.881   1.167   6.644 -0.2033  0.3169  0.0971
  777loPI   C4A11758   2.739   1.307   6.949 -0.0695  0.0756 -0.2042
  777loPI   C5A11759   2.537   1.363   7.325  0.1509 -0.0813 -0.1221
  777loPI   C6A11760   2.165   1.607   7.391 -0.1454 -0.1931  0.0983
  777loPI   C1B11761   2.947   1.525   5.919 -0.1256 -0.2128  0.0249
  777loPI   C2B11762   2.805   1.635   6.320  0.0404  0.0783 -0.1015
  777loPI   C3B11763   2.932   1.744   6.732  0.0695  0.2025  0.3360
  777loPI   C4B11764   2.870   1.749   7.194  0.0645  0.2021 -0.1197
  778loPI    C111765  15.659   8.940   4.766 -0.1931  0.3722  0.1224
  778loPI    C211766  15.926   9.154   4.559 -0.1364 -0.0018 -0.2022
  778loPI    C311767  15.585   9.037   4.385 -0.2201 -0.0747  0.0083
  778loPI   PO411768  15.755   9.016   5.029  0.1180  0.0403 -0.1204
  778loPI   GL111769  15.642   9.042   5.413 -0.0573  0.0716  0.1830
  778loPI   GL211770  15.307   8.983   5.534 -0.1703  0.0066  0.1656
  778loPI   C1A11771  15.713   9.227   5.788 -0.2113  0.1548 -0.1618
  778loPI   C2A11772  15.866   9.501   6.086 -0.1375 -0.1989  0.0280
  778loPI   C3A11773  16.077   9.420   6.458 -0.0007 -0.0916 -0.0172
  778loPI   C4A11774  16.016   9.117   6.790 -0.0105 -0.0374 -0.2905
  778loPI   C5A11775  16.155   9.054   7.263  0.0939 -0.1157  0.1974
  778loPI   C6A11776  15.998   9.073   7.708  0.5047 -0.0222  0.0815
  778loPI   C1B11777  15.511   8.737   5.813  0.2485  0.0089 -0.5638
  778loPI   C2B11778  15.725   8.576   6.131 -0.0079 -0.1839 -0.2274
  778loPI   C3B11779  15.826   8.606   6.609  0.0602 -0.1613  0.2342
  778loPI   C4B11780  15.505   8.475   6.874  0.1952 -0.0369  0.4808
  779loPI    C111781   4.470  18.313   4.933  0.0742  0.1496 -0.2248
  779loPI    C211782   4.384  17.955   4.776  0.0114  0.1921 -0.2884
  779loPI    C311783   4.765  18.065   4.828  0.0310 -0.0041  0.0086
  779loPI   PO411784   4.217  18.278   5.143  0.0018 -0.2571  0.1643
  779loPI   GL111785   4.253  18.299   5.572 -0.4016 -0.0521  0.0164
  779loPI   GL211786   4.484  18.128   5.806  0.0145  0.0945  0.2469
  779loPI   C1A11787   4.100  18.381   6.006 -0.1079  0.1029 -0.0993
  779loPI   C2A11788   4.161  18.433   6.356  0.2289 -0.0717  0.0233
  779loPI   C3A11789   4.165  18.526   6.849  0.1651  0.0082  0.1916
  779loPI   C4A11790   4.046  18.587   7.261 -0.4565  0.0595 -0.1107
  779loPI   C5A11791   3.795  18.793   7.591 -0.3018  0.0650 -0.2889
  779loPI   C6A11792   3.732  19.137   7.803  0.0438 -0.3257  0.3174
  779loPI   C1B11793   4.148  17.940   6.200  0.0747  0.0456 -0.0834
  779loPI   C2B11794   4.049  18.025   6.683 -0.2546  0.0387  0.1593
  779loPI   C3B11795   4.062  18.107   7.095 -0.0238  0.0620 -0.2116
  779loPI   C4B11796   4.434  18.041   7.465 -0.0505  0.0226 -0.1511
  780loPI    C111797   7.548   3.504   5.126  0.0832 -0.1384 -0.0474
  780loPI    C211798   7.534   3.194   5.379  0.0626 -0.1881 -0.1092
  780loPI    C311799   7.697   3.149   5.016  0.0850 -0.1191 -0.1078
  780loPI   PO411800   7.641   3.696   5.265  0.0221  0.3476 -0.0795
  780loPI   GL111801   7.690   3.631   5.665 -0.1360  0.0063 -0.0437
  780loPI   GL211802   7.842   3.701   5.974  0.1106 -0.2042  0.0889
  780loPI   C1A11803   7.434   3.406   5.894 -0.0181 -0.1211 -0.2415
  780loPI   C2A11804   7.268   3.059   6.174  0.0726 -0.4481  0.2107
  780loPI   C3A11805   7.443   2.972   6.603  0.1437  0.1643 -0.1961
  780loPI   C4A11806   7.460   2.908   7.048  0.3935  0.0119 -0.4179
  780loPI   C5A11807   7.240   2.734   7.485 -0.1129 -0.1022 -0.1276
  780loPI   C6A11808   7.102   2.545   7.776 -0.2043 -0.0579 -0.0512
  780loPI   C1B11809   7.896   3.796   6.432 -0.0099 -0.1821  0.0350
  780loPI   C2B11810   8.035   3.881   6.957 -0.0667 -0.0752  0.0728
  780loPI   C3B11811   7.960   4.101   7.309 -0.0057 -0.0617  0.2893
  780loPI   C4B11812   8.184   4.401   7.428  0.4034  0.0975  0.0054
  781loPI    C111813  11.332   7.615   4.704  0.0440 -0.0306 -0.1648
  781loPI    C211814  10.946   7.686   4.626  0.0164  0.1518  0.1247
  781loPI    C311815  11.165   7.961   4.816  0.2354 -0.0360  0.1479
  781loPI   PO411816  11.347   7.290   4.815  0.3929 -0.0641 -0.2173
  781loPI   GL111817  11.433   7.175   5.239  0.2009  0.0949 -0.1432
  781loPI   GL211818  11.644   7.387   5.299  0.0551 -0.4682 -0.5885
  781loPI   C1A11819  11.209   7.282   5.613  0.1368 -0.2125 -0.3032
  781loPI   C2A11820  11.223   7.355   6.005  0.1913 -0.1228  0.2431
  781loPI   C3A11821  11.346   7.480   6.467 -0.0232  0.2696  0.1084
  781loPI   C4A11822  11.470   7.513   6.933 -0.4482  0.4928 -0.1488
  781loPI   C5A11823  11.666   7.674   7.280 -0.0966 -0.1030 -0.1255
  781loPI   C6A11824  11.924   8.138   7.243 -0.1267 -0.2161  0.1236
  781loPI   C1B11825  11.555   7.638   5.668  0.2039 -0.0318  0.3655
  781loPI   C2B11826  11.551   7.740   6.084  0.1436 -0.0978  0.0517
  781loPI   C3B11827  11.745   7.755   6.507  0.0956 -0.1099  0.0640
  781loPI   C4B11828  11.838   7.873   6.836  0.1307 -0.0476 -0.1634
  782loPI    C111829   0.917   1.768   4.964 -0.0747 -0.1832  0.1157
  782loPI    C211830   0.788   2.031   4.691  0.1493  0.1174  0.2933
  782loPI    C311831   1.018   1.723   4.580  0.0769  0.1261  0.1168
  782loPI   PO411832   1.049   1.969   5.137 -0.1238 -0.0394  0.2005
  782loPI   GL111833   1.081   2.037   5.549  0.0665 -0.3984 -0.0849
  782loPI   GL211834   1.370   1.995   5.651 -0.1286  0.1306 -0.2495
  782loPI   C1A11835   0.963   2.215   6.019  0.0045  0.0025 -0.1802
  782loPI   C2A11836   0.789   2.543   6.304 -0.2562 -0.2847 -0.2011
  782loPI   C3A11837   0.737   2.586   6.724  0.2092 -0.2530 -0.1867
  782loPI   C4A11838   0.583   2.454   7.094 -0.0839 -0.1669  0.3874
  782loPI   C5A11839   0.877   2.275   7.467 -0.0909 -0.0234  0.0854
  782loPI   C6A11840   1.212   2.268   7.718  0.0248 -0.1083 -0.0529
  782loPI   C1B11841   1.374   1.779   6.038  0.0561 -0.4473 -0.0005
  782loPI   C2B11842   1.382   1.583   6.492  0.0666 -0.0780 -0.1631
  782loPI   C3B11843   1.317   1.506   6.912 -0.1188 -0.0071  0.1673
  782loPI   C4B11844   1.207   1.318   7.294 -0.0162 -0.2423  0.4467
  783loPI    C111845  16.861   3.901   5.006 -0.0804  0.0525  0.0517
  783loPI    C211846  16.919   4.098   4.663 -0.2101  0.0459  0.0255
  783loPI    C311847  16.631   3.821   4.689 -0.1146 -0.0468  0.1012
  783loPI   PO411848  17.092   3.987   5.085  0.0683  0.1320  0.2394
  783loPI   GL111849  17.230   4.266   5.478  0.4499 -0.3133  0.1913
  783loPI   GL211850  17.549   4.141   5.376  0.1394 -0.1534 -0.1906
  783loPI   C1A11851  16.959   4.197   5.766 -0.0537  0.2253  0.1672
  783loPI   C2A11852  16.609   3.990   5.878 -0.0638 -0.2467 -0.4865
  783loPI   C3A11853  16.422   3.971   6.340 -0.0327 -0.1212  0.0202
  783loPI   C4A11854  16.346   4.144   6.664  0.0152  0.1552  0.0924
  783loPI   C5A11855  16.134   4.410   6.942 -0.2612  0.2541  0.1457
  783loPI   C6A11856  16.090   4.706   7.175  0.0832 -0.3033  0.0454
  783loPI   C1B11857  17.527   3.917   5.762 -0.1237 -0.1650 -0.0601
  783loPI   C2B11858  17.428   3.934   6.225  0.1083  0.3449  0.4657
  783loPI   C3B11859  17.352   4.069   6.660  0.1068 -0.1066 -0.2072
  783loPI   C4B11860  17.612   4.061   7.085 -0.2488  0.3060 -0.0532
  784loPI    C111861   9.956   0.311   5.251 -0.0056 -0.0241 -0.0955
  784loPI    C211862  10.197   0.352   4.935  0.2316  0.2027  0.1096
  784loPI    C311863   9.924   0.633   5.015  0.0663  0.0694  0.0212
  784loPI   PO411864   9.782   0.044   5.222 -0.0179  0.0647 -0.0157
  784loPI   GL111865   9.607  -0.154   5.580  0.2459 -0.0563 -0.1420
  784loPI   GL211866   9.940  -0.110   5.651 -0.1180  0.0749 -0.0665
  784loPI   C1A11867   9.293   0.213   5.771 -0.1029 -0.0506 -0.2568
  784loPI   C2A11868   9.409   0.258   6.207 -0.0804 -0.2940 -0.1594
  784loPI   C3A11869   9.401   0.155   6.683 -0.1198 -0.1938 -0.2582
  784loPI   C4A11870   9.348  -0.126   7.002 -0.2945 -0.1301  0.4090
  784loPI   C5A11871   9.408  -0.318   7.460 -0.0612 -0.0548 -0.0900
  784loPI   C6A11872   9.315  -0.157   7.814 -0.1216 -0.0371 -0.0351
  784loPI   C1B11873   9.836  -0.030   6.129  0.2311 -0.1516  0.0530
  784loPI   C2B11874   9.566  -0.214   6.431  0.1517  0.1597  0.3527
  784loPI   C3B11875   9.357  -0.508   6.682 -0.1423  0.0340 -0.2214
  784loPI   C4B11876   9.251  -0.956   6.792 -0.1039  0.0753  0.0524
  785loPI    C111877  11.961  11.769   4.682 -0.2210  0.1604 -0.0011
  785loPI    C211878  11.949  11.395   4.542 -0.0407  0.1335  0.0534
  785loPI    C311879  11.715  11.676   4.381  0.1217  0.0912 -0.2663
  785loPI   PO411880  12.007  11.727   4.941  0.4787 -0.2048  0.1917
  785loPI   GL111881  11.906  11.556   5.339  0.0641  0.1116 -0.2121
  785loPI   GL211882  11.512  11.541   5.454  0.3867 -0.1037 -0.0481
  785loPI   C1A11883  11.910  11.805   5.640 -0.1377  0.1704 -0.1534
  785loPI   C2A11884  12.092  11.915   6.006 -0.1024 -0.2241 -0.2234
  785loPI   C3A11885  11.990  12.088   6.452  0.1148  0.0322  0.3876
  785loPI   C4A11886  11.953  12.077   6.957 -0.1567 -0.0510  0.2583
  785loPI   C5A11887  11.752  12.085   7.385 -0.1547  0.0596  0.1856
  785loPI   C6A11888  11.662  12.315   7.726 -0.0960 -0.2461 -0.0335
  785loPI   C1B11889  11.686  11.250   5.719 -0.1668 -0.0538  0.1507
  785loPI   C2B11890  11.979  11.282   5.935  0.2183  0.1317  0.0193
  785loPI   C3B11891  12.060  11.474   6.306  0.2133 -0.1532 -0.0266
  785loPI   C4B11892  12.164  11.605   6.688  0.0163  0.0766 -0.0193
  786loPI    C111893  11.574  15.010   5.215 -0.0930 -0.0333 -0.0169
  786loPI    C211894  11.734  14.988   4.850 -0.0948  0.0783 -0.0248
  786loPI    C311895  11.396  14.791   4.932  0.0690 -0.1951  0.0051
  786loPI   PO411896  11.811  14.884   5.441  0.1032 -0.0178  0.1392
  786loPI   GL111897  12.081  14.883   5.656 -0.1749  0.0566  0.0484
  786loPI   GL211898  12.383  14.721   5.817 -0.1811 -0.0761 -0.1171
  786loPI   C1A11899  12.157  15.209   5.938  0.1517  0.2913  0.2626
  786loPI   C2A11900  12.228  15.309   6.313  0.2715 -0.2371 -0.1073
  786loPI   C3A11901  12.322  15.349   6.658  0.1497  0.1590  0.4751
  786loPI   C4A11902  12.273  15.558   6.989 -0.1752  0.1107 -0.0773
  786loPI   C5A11903  12.106  15.617   7.382 -0.3569  0.0269 -0.2713
  786loPI   C6A11904  11.800  15.984   7.679 -0.2312  0.2949  0.1467
  786loPI   C1B11905  12.369  14.314   6.160  0.1269 -0.0523  0.0440
  786loPI   C2B11906  12.203  14.227   6.598 -0.1670  0.0980  0.0661
  786loPI   C3B11907  12.135  13.801   6.832  0.0772 -0.1537 -0.0063
  786loPI   C4B11908  12.141  13.848   7.192 -0.1654 -0.1016 -0.1536
  787loPI    C111909   4.838  15.928   4.767 -0.0469 -0.2301  0.0227
  787loPI    C211910   4.751  16.121   4.427  0.0631 -0.1628  0.0325
  787loPI    C311911   5.125  15.995   4.496  0.0804 -0.0193  0.2068
  787loPI   PO411912   4.734  16.007   4.991 -0.0326 -0.2079 -0.0111
  787loPI   GL111913   4.516  15.993   5.352  0.5197  0.3078 -0.1896
  787loPI   GL211914   4.556  15.617   5.416  0.2159  0.0776 -0.1903
  787loPI   C1A11915   4.702  16.192   5.686  0.0738  0.1039 -0.4101
  787loPI   C2A11916   4.717  16.115   6.201  0.2399  0.0006  0.1011
  787loPI   C3A11917   4.703  16.252   6.718 -0.2455 -0.0709  0.0250
  787loPI   C4A11918   4.727  16.437   7.074  0.2615  0.0740  0.0417
  787loPI   C5A11919   4.924  16.828   7.240  0.0996  0.0110  0.1409
  787loPI   C6A11920   4.834  16.913   7.739  0.0887  0.0762  0.0072
  787loPI   C1B11921   4.537  15.649   5.915 -0.2344  0.1217 -0.3299
  787loPI   C2B11922   4.832  15.667   6.245 -0.0921  0.0826 -0.2061
  787loPI   C3B11923   4.992  15.824   6.625  0.0060  0.1293  0.0345
  787loPI   C4B11924   4.949  15.957   7.084  0.1043  0.1012 -0.4049
  788loPI    C111925   3.811  12.919   4.698  0.1713 -0.0132  0.0236
  788loPI    C211926   4.036  12.615   4.568  0.0249 -0.1281  0.0361
  788loPI    C311927   3.953  12.921   4.324 -0.0832 -0.2472 -0.0785
  788loPI   PO411928   3.863  12.996   4.925  0.1346 -0.0222  0.3327
  788loPI   GL111929   3.668  12.826   5.237  0.0870  0.1043  0.1672
  788loPI   GL211930   3.856  12.504   5.064 -0.0019 -0.2012 -0.0765
  788loPI   C1A11931   3.516  12.790   5.556 -0.0354  0.3090 -0.1735
  788loPI   C2A11932   3.671  12.795   6.013 -0.1792 -0.0817 -0.1811
  788loPI   C3A11933   3.619  12.624   6.426  0.0507  0.0430  0.0802
  788loPI   C4A11934   3.663  12.368   6.815  0.3103  0.1016 -0.0406
  788loPI   C5A11935   3.810  12.403   7.208 -0.2394  0.0839  0.3292
  788loPI   C6A11936   4.034  12.566   7.601 -0.0240  0.5293  0.4262
  788loPI   C1B11937   3.989  12.465   5.553  0.0401 -0.1180  0.3442
  788loPI   C2B11938   4.204  12.292   6.010 -0.0235  0.0707 -0.0565
  788loPI   C3B11939   4.323  12.018   6.328 -0.0022  0.1627  0.0625
  788loPI   C4B11940   4.641  12.073   6.668 -0.0544 -0.2037  0.0115
  789loPI    C111941   6.337   0.720   5.008 -0.1226 -0.0580 -0.1449
  789loPI    C211942   6.178   1.084   4.961 -0.0814 -0.0017  0.1361
  789loPI    C311943   6.195   0.832   4.651 -0.0544  0.2570 -0.0759
  789loPI   PO411944   6.203   0.684   5.350  0.2266  0.1091  0.4082
  789loPI   GL111945   6.202   0.666   5.812  0.1873  0.0233  0.0556
  789loPI   GL211946   6.371   0.363   5.924 -0.3765 -0.0210 -0.0549
  789loPI   C1A11947   5.858   0.719   6.225 -0.1026  0.2222  0.0057
  789loPI   C2A11948   5.809   0.679   6.719  0.0859  0.0903  0.0545
  789loPI   C3A11949   5.946   0.581   7.196  0.0545 -0.0719  0.0157
  789loPI   C4A11950   5.675   0.438   7.432 -0.2212  0.3163 -0.2078
  789loPI   C5A11951   5.800   0.044   7.640 -0.1013  0.0295  0.3572
  789loPI   C6A11952   5.970  -0.184   8.072  0.3227  0.0558 -0.0309
  789loPI   C1B11953   6.342   0.567   6.263  0.1356 -0.2049  0.1050
  789loPI   C2B11954   6.336   0.581   6.670  0.2282 -0.0248  0.0139
  789loPI   C3B11955   6.385   0.536   6.996 -0.1076 -0.1231 -0.0253
  789loPI   C4B11956   6.623   0.159   7.284  0.0813  0.0855 -0.2826
  790loPI    C111957   7.040  15.368   4.859 -0.0126  0.1591  0.1105
  790loPI    C211958   7.369  15.496   4.671 -0.0090 -0.0147 -0.0038
  790loPI    C311959   7.026  15.699   4.635  0.0232  0.0240 -0.0940
  790loPI   PO411960   7.108  15.273   5.040  0.3372 -0.3683 -0.2478
  790loPI   GL111961   7.323  15.067   5.318 -0.2821 -0.0750  0.5033
  790loPI   GL211962   7.204  15.434   5.491  0.2393  0.1656  0.1102
  790loPI   C1A11963   7.370  14.879   5.625  0.1732  0.1767  0.3102
  790loPI   C2A11964   7.475  14.851   6.038  0.1442 -0.1022  0.1912
  790loPI   C3A11965   7.475  14.767   6.376 -0.1556 -0.1009 -0.1636
  790loPI   C4A11966   7.465  14.587   6.790 -0.0128 -0.0970 -0.2878
  790loPI   C5A11967   7.400  14.604   7.269 -0.0302 -0.1469  0.1653
  790loPI   C6A11968   7.149  14.696   7.673  0.3797 -0.1515  0.3816
  790loPI   C1B11969   7.078  15.273   5.856  0.1916 -0.1253 -0.3162
  790loPI   C2B11970   7.257  15.359   6.328  0.1839 -0.3775  0.0354
  790loPI   C3B11971   7.225  15.116   6.675 -0.1714  0.1082 -0.0822
  790loPI   C4B11972   7.552  15.016   6.988 -0.0020 -0.0559  0.1947
  791loPI    C111973   6.180  17.822   4.952  0.0582 -0.1909  0.0440
  791loPI    C211974   6.399  17.661   4.658  0.1413  0.0573 -0.0328
  791loPI    C311975   6.133  17.948   4.575  0.1989  0.1626  0.1396
  791loPI   PO411976   6.207  17.642   5.264  0.0158  0.1043 -0.1842
  791loPI   GL111977   6.370  17.435   5.554 -0.1446 -0.0911 -0.0163
  791loPI   GL211978   6.557  17.661   5.821 -0.0788 -0.2969  0.2807
  791loPI   C1A11979   6.171  17.210   5.958  0.0537  0.2334  0.1359
  791loPI   C2A11980   6.061  17.049   6.451 -0.0021  0.0413  0.2384
  791loPI   C3A11981   6.003  16.804   6.820 -0.1674  0.1442  0.1726
  791loPI   C4A11982   5.889  16.680   7.156  0.1298 -0.4040 -0.2897
  791loPI   C5A11983   5.658  16.821   7.465  0.3519  0.1926  0.1836
  791loPI   C6A11984   5.322  16.779   7.654  0.2320 -0.0518  0.2741
  791loPI   C1B11985   6.478  17.784   6.240  0.2484 -0.2351 -0.0343
  791loPI   C2B11986   6.625  17.988   6.602 -0.0874  0.0636 -0.1849
  791loPI   C3B11987   6.654  18.091   6.939 -0.2156 -0.0044 -0.0006
  791loPI   C4B11988   6.823  17.915   7.216  0.2743  0.1223 -0.1948
  792loPI    C111989  14.055   8.531   5.009  0.0151  0.0776  0.0375
  792loPI    C211990  14.303   8.844   5.029 -0.0594  0.1563 -0.2216
  792loPI    C311991  14.227   8.672   4.676 -0.2975  0.0709 -0.1308
  792loPI   PO411992  14.068   8.430   5.216  0.0090  0.1073 -0.1589
  792loPI   GL111993  13.885   8.495   5.616  0.3014 -0.3523  0.0150
  792loPI   GL211994  13.798   8.164   5.536 -0.1221 -0.1826 -0.1098
  792loPI   C1A11995  14.117   8.517   5.970  0.0308 -0.0017 -0.4136
  792loPI   C2A11996  14.523   8.689   6.082  0.4583 -0.0747 -0.2770
  792loPI   C3A11997  14.785   8.640   6.503 -0.3035  0.1496 -0.1499
  792loPI   C4A11998  14.983   8.751   6.914 -0.1023  0.2728  0.2216
  792loPI   C5A11999  15.316   8.931   7.115  0.0027  0.2480  0.0117
  792loPI   C6A12000  15.729   8.844   7.144  0.0355  0.0568  0.1212
  792loPI   C1B12001  13.822   7.961   5.905  0.0800 -0.2099  0.0590
  792loPI   C2B12002  13.815   7.979   6.344  0.1527 -0.1446 -0.1279
  792loPI   C3B12003  13.958   8.087   6.728 -0.1281 -0.0010 -0.1150
  792loPI   C4B12004  13.922   8.322   7.132  0.0149  0.2678  0.0947
  793loPI    C112005  15.849   4.442   5.263  0.0219 -0.1515  0.0449
  793loPI    C212006  15.703   4.628   4.941  0.0567 -0.3238 -0.0724
  793loPI    C312007  16.058   4.447   4.922  0.1612 -0.1450  0.1298
  793loPI   PO412008  15.763   4.643   5.445  0.0909 -0.2756  0.1947
  793loPI   GL112009  15.781   4.607   5.820 -0.2355 -0.2486 -0.2818
  793loPI   GL212010  15.655   4.915   5.944  0.1111  0.2965  0.0040
  793loPI   C1A12011  16.230   4.599   6.038  0.0377 -0.2330  0.0547
  793loPI   C2A12012  16.309   4.604   6.497  0.2184  0.1389  0.0312
  793loPI   C3A12013  16.453   4.844   6.875  0.1397 -0.0437  0.1616
  793loPI   C4A12014  16.573   5.019   7.248 -0.1148  0.1979 -0.1600
  793loPI   C5A12015  16.431   5.242   7.537  0.2398  0.2090  0.0777
  793loPI   C6A12016  16.469   5.685   7.567  0.3359 -0.4191 -0.0717
  793loPI   C1B12017  15.977   5.017   6.151  0.0776 -0.0070 -0.1282
  793loPI   C2B12018  15.930   5.160   6.482 -0.0018  0.0396 -0.0605
  793loPI   C3B12019  16.094   5.163   6.849 -0.0593 -0.1623 -0.1958
  793loPI   C4B12020  16.174   5.501   7.167 -0.1000  0.2638 -0.3429
  794loPI    C112021   7.066   0.908   5.437 -0.0418 -0.0101 -0.0248
  794loPI    C212022   6.729   0.693   5.422 -0.0810  0.0536 -0.0582
  794loPI    C312023   6.946   0.747   5.091  0.1124 -0.2256  0.0197
  794loPI   PO412024   7.034   1.102   5.699  0.1113 -0.1116  0.2804
  794loPI   GL112025   7.138   1.436   5.882 -0.0952 -0.0508  0.0567
  794loPI   GL212026   7.224   1.756   5.940 -0.0428  0.0957  0.0044
  794loPI   C1A12027   7.087   1.317   6.306 -0.0316 -0.1085  0.4743
  794loPI   C2A12028   6.840   1.414   6.701  0.3737 -0.1121  0.0091
  794loPI   C3A12029   6.778   1.514   7.169  0.0373  0.2770  0.0340
  794loPI   C4A12030   6.894   1.389   7.501  0.2577 -0.0044 -0.0716
  794loPI   C5A12031   6.529   1.233   7.734  0.0816 -0.1273 -0.1497
  794loPI   C6A12032   6.258   0.798   7.903  0.0121  0.2014 -0.1892
  794loPI   C1B12033   7.250   1.743   6.356 -0.1208  0.1614  0.1061
  794loPI   C2B12034   7.128   1.923   6.619  0.0537  0.1284  0.0308
  794loPI   C3B12035   7.056   2.004   7.046  0.1262 -0.0773  0.2271
  794loPI   C4B12036   7.041   1.884   7.388 -0.3533 -0.3245 -0.3183
  795loPI    C112037  17.942  18.661   4.752 -0.0216  0.2461 -0.0512
  795loPI    C212038  17.670  18.675   4.460 -0.1077  0.0557  0.0185
  795loPI    C312039  18.036  18.823   4.399 -0.1768  0.1681 -0.1292
  795loPI   PO412040  17.875  18.818   4.915  0.0343 -0.3179  0.4920
  795loPI   GL112041  17.832  18.805   5.340  0.1151 -0.0840  0.0054
  795loPI   GL212042  17.884  18.520   5.545  0.0959  0.1145  0.2289
  795loPI   C1A12043  17.831  19.073   5.685 -0.1047 -0.0187 -0.0075
  795loPI   C2A12044  17.748  19.108   6.114 -0.0349 -0.3525  0.0778
  795loPI   C3A12045  17.857  19.134   6.539 -0.0054  0.1442 -0.1578
  795loPI   C4A12046  17.951  19.284   6.971  0.1229 -0.1037 -0.0745
  795loPI   C5A12047  18.072  19.223   7.459 -0.1428  0.1277  0.0555
  795loPI   C6A12048  17.870  19.150   7.785 -0.1555  0.1099  0.0113
  795loPI   C1B12049  18.012  18.611   5.894 -0.0336 -0.1372  0.2037
  795loPI   C2B12050  18.121  18.794   6.258 -0.0045 -0.1113  0.0897
  795loPI   C3B12051  18.166  18.748   6.697  0.1267 -0.0061  0.2783
  795loPI   C4B12052  18.153  18.804   7.123 -0.0736 -0.1780 -0.0770
  796loPI    C112053  10.393   5.229   5.342 -0.1665  0.0823 -0.1515
  796loPI    C212054  10.552   4.995   5.059 -0.2725 -0.2414  0.0501
  796loPI    C312055  10.254   5.246   4.968 -0.1067 -0.1254 -0.1847
  796loPI   PO412056  10.584   5.339   5.454  0.1768 -0.0647 -0.3748
  796loPI   GL112057  10.945   5.311   5.803  0.0017  0.0290  0.0232
  796loPI   GL212058  11.166   5.203   5.830  0.0548 -0.0416  0.0604
  796loPI   C1A12059  10.699   5.553   6.088  0.2029 -0.1822 -0.1704
  796loPI   C2A12060  10.680   5.665   6.457 -0.3036 -0.3342  0.1042
  796loPI   C3A12061  10.838   5.844   6.821  0.3488  0.0330 -0.0280
  796loPI   C4A12062  11.149   5.942   7.132 -0.0227 -0.3791  0.1535
  796loPI   C5A12063  11.584   5.754   7.174 -0.4024 -0.0070 -0.0339
  796loPI   C6A12064  11.956   5.676   6.995 -0.0173  0.0499 -0.2935
  796loPI   C1B12065  11.518   5.149   6.176 -0.1464  0.0703  0.1612
  796loPI   C2B12066  11.718   5.246   6.598  0.0647 -0.1172  0.6868
  796loPI   C3B12067  11.789   5.229   7.037 -0.0873 -0.2676 -0.0912
  796loPI   C4B12068  11.926   5.157   7.439 -0.1511 -0.3125 -0.1427
  797loPI    C112069  16.016   6.331   5.014 -0.3299  0.1669  0.1419
  797loPI    C212070  16.097   6.235   5.394 -0.0399 -0.0768  0.0225
  797loPI    C312071  16.120   5.956   5.108 -0.1536  0.1286 -0.1902
  797loPI   PO412072  15.762   6.456   5.093 -0.0694 -0.1793 -0.1160
  797loPI   GL112073  15.588   6.465   5.504 -0.1703  0.0037  0.2843
  797loPI   GL212074  15.681   6.738   5.606  0.1038 -0.4792 -0.0013
  797loPI   C1A12075  15.676   6.359   5.874  0.1018  0.1763 -0.0295
  797loPI   C2A12076  15.539   6.250   6.294  0.0273 -0.0441 -0.0204
  797loPI   C3A12077  15.388   5.984   6.659  0.2133  0.1900 -0.1157
  797loPI   C4A12078  15.419   5.968   7.128  0.0897 -0.2104  0.0416
  797loPI   C5A12079  15.431   5.967   7.560 -0.0137 -0.1665 -0.0234
  797loPI   C6A12080  15.740   5.920   7.853  0.2861  0.1904  0.0878
  797loPI   C1B12081  15.699   6.801   6.067 -0.2682 -0.2473 -0.1209
  797loPI   C2B12082  15.690   6.732   6.525  0.2068  0.3838 -0.2003
  797loPI   C3B12083  15.583   6.873   6.975 -0.0749  0.2666 -0.0314
  797loPI   C4B12084  15.324   7.023   7.329  0.1213  0.0787  0.0632
  798loPI    C112085  12.113  16.217   5.044  0.1838 -0.2184  0.0667
  798loPI    C212086  12.391  15.953   4.929  0.2583 -0.0007 -0.2650
  798loPI    C312087  12.383  16.319   4.767 -0.3594 -0.0757 -0.4300
  798loPI   PO412088  12.110  16.119   5.354 -0.2020  0.2927 -0.0821
  798loPI   GL112089  12.000  16.324   5.738  0.0971 -0.0607 -0.0262
  798loPI   GL212090  12.346  16.486   5.765  0.0258  0.1039  0.4261
  798loPI   C1A12091  11.863  16.180   6.015  0.1089  0.0660 -0.1644
  798loPI   C2A12092  11.854  16.177   6.429 -0.0346 -0.1854  0.1270
  798loPI   C3A12093  12.018  15.915   6.703 -0.0891  0.2066 -0.1815
  798loPI   C4A12094  11.783  15.454   6.810  0.3871  0.2165 -0.2199
  798loPI   C5A12095  12.045  15.188   7.119  0.0220  0.4285  0.2227
  798loPI   C6A12096  11.949  15.132   7.502 -0.1483 -0.0478  0.0945
  798loPI   C1B12097  12.345  16.306   6.170 -0.1906 -0.1341 -0.1275
  798loPI   C2B12098  12.359  16.336   6.612  0.0863  0.0535 -0.0075
  798loPI   C3B12099  11.967  16.341   6.930  0.3179 -0.1797 -0.0658
  798loPI   C4B12100  11.909  16.383   7.389  0.0939 -0.1086 -0.0129
  799loPI    C112101  13.670  15.236   4.980  0.1014 -0.0692  0.0937
  799loPI    C212102  13.956  15.515   4.963  0.1104 -0.0816  0.0411
  799loPI    C312103  13.583  15.604   4.851  0.1212 -0.1009 -0.0105
  799loPI   PO412104  13.799  15.121   5.212 -0.1268 -0.0732 -0.1315
  799loPI   GL112105  13.782  15.027   5.703  0.0476  0.0615 -0.0503
  799loPI   GL212106  13.675  14.675   5.664 -0.1554  0.1786 -0.0590
  799loPI   C1A12107  13.848  15.242   6.089  0.3009  0.0999  0.0898
  799loPI   C2A12108  13.651  15.543   6.384  0.2066  0.1288 -0.0799
  799loPI   C3A12109  13.217  15.655   6.358 -0.1085  0.1888  0.1323
  799loPI   C4A12110  13.010  15.908   6.532 -0.1706 -0.0977  0.0286
  799loPI   C5A12111  13.156  16.160   6.811 -0.2645  0.2232 -0.3240
  799loPI   C6A12112  13.286  16.421   7.133  0.1052  0.2902 -0.0379
  799loPI   C1B12113  13.322  14.506   5.922  0.0497  0.2650 -0.3788
  799loPI   C2B12114  13.101  14.746   6.222  0.1254 -0.2643 -0.1346
  799loPI   C3B12115  13.139  14.939   6.629 -0.2857 -0.0184 -0.0613
  799loPI   C4B12116  13.301  15.362   6.754 -0.2828  0.0964  0.0608
  800loPI    C112117   7.897  14.131   4.665 -0.0378 -0.0684 -0.3282
  800loPI    C212118   7.981  13.769   4.813 -0.1964  0.1389  0.2985
  800loPI    C312119   7.679  13.815   4.555 -0.1943 -0.1687  0.2383
  800loPI   PO412120   7.896  14.318   4.887 -0.1392  0.2372 -0.0660
  800loPI   GL112121   7.994  14.411   5.316 -0.1355 -0.1705 -0.1231
  800loPI   GL212122   8.117  14.054   5.334 -0.0476 -0.2101  0.0107
  800loPI   C1A12123   8.185  14.467   5.722 -0.1917  0.2149  0.0490
  800loPI   C2A12124   8.147  14.366   6.110 -0.0135 -0.3351 -0.3493
  800loPI   C3A12125   8.245  14.245   6.559 -0.1615  0.0480  0.2043
  800loPI   C4A12126   8.229  14.052   6.908  0.0401 -0.3243 -0.1561
  800loPI   C5A12127   8.133  13.940   7.305 -0.1034 -0.1167  0.1571
  800loPI   C6A12128   7.886  14.210   7.627  0.1205  0.1411 -0.0351
  800loPI   C1B12129   8.392  13.988   5.696  0.4529 -0.3100  0.2891
  800loPI   C2B12130   8.408  13.930   6.127  0.1138 -0.2228  0.2286
  800loPI   C3B12131   8.335  13.675   6.620 -0.1576  0.0493  0.1915
  800loPI   C4B12132   8.135  13.556   6.931  0.0210 -0.0669  0.0793
  801loPI    C112133   5.558   3.637   5.349  0.0113 -0.1179  0.0886
  801loPI    C212134   5.395   3.995   5.276  0.0445 -0.1264 -0.0296
  801loPI    C312135   5.395   3.713   4.992  0.3817 -0.0823 -0.0775
  801loPI   PO412136   5.766   3.714   5.585  0.0659  0.0072  0.1273
  801loPI   GL112137   5.791   3.666   6.045  0.3460 -0.0284  0.0159
  801loPI   GL212138   5.915   3.371   6.002 -0.0183 -0.0408  0.1959
  801loPI   C1A12139   5.779   4.003   6.266 -0.1596  0.1166 -0.0099
  801loPI   C2A12140   5.604   4.217   6.597  0.2059  0.2387 -0.0148
  801loPI   C3A12141   5.353   4.381   6.894 -0.2064  0.0645  0.0047
  801loPI   C4A12142   5.203   4.708   7.141  0.3723 -0.0365 -0.1755
  801loPI   C5A12143   5.260   4.954   7.575  0.1272  0.0752  0.0084
  801loPI   C6A12144   5.316   5.313   7.879 -0.0787 -0.1225 -0.2718
  801loPI   C1B12145   5.934   3.390   6.493  0.0018  0.0094 -0.0801
  801loPI   C2B12146   5.907   3.261   6.984  0.0762  0.2672  0.0953
  801loPI   C3B12147   6.085   3.263   7.482 -0.0641 -0.4514 -0.0017
  801loPI   C4B12148   6.059   3.362   7.814 -0.1722 -0.3693 -0.0517
  802loPI    C112149   4.587  18.636   5.241  0.0231  0.0569 -0.1526
  802loPI    C212150   4.712  19.004   5.336  0.0012  0.0312 -0.0233
  802loPI    C312151   4.718  18.883   4.955 -0.1018  0.2068 -0.0816
  802loPI   PO412152   4.721  18.503   5.425 -0.0787  0.0172  0.3247
  802loPI   GL112153   4.793  18.480   5.816 -0.2737 -0.0875 -0.0743
  802loPI   GL212154   5.137  18.529   5.893 -0.0385  0.1604  0.3064
  802loPI   C1A12155   4.561  18.606   6.119 -0.0366 -0.1943 -0.0493
  802loPI   C2A12156   4.575  18.793   6.475  0.0729 -0.1224  0.0763
  802loPI   C3A12157   4.643  18.925   6.917  0.1000  0.3322 -0.1096
  802loPI   C4A12158   4.434  18.979   7.257  0.1867  0.1991  0.0739
  802loPI   C5A12159   4.141  19.327   7.535 -0.0721 -0.0328  0.2175
  802loPI   C6A12160   3.876  19.618   7.507 -0.0589  0.5425 -0.0436
  802loPI   C1B12161   5.299  18.323   6.319 -0.0655  0.1291 -0.0414
  802loPI   C2B12162   5.491  18.226   6.686  0.1619  0.0315  0.1128
  802loPI   C3B12163   5.465  18.125   7.096 -0.1027  0.0617  0.0598
  802loPI   C4B12164   5.418  17.878   7.348 -0.0419 -0.1027 -0.0884
  803loPI    C112165   3.031   3.400   5.206 -0.0190  0.0711  0.1691
  803loPI    C212166   2.756   3.514   4.939 -0.0682 -0.0242  0.1784
  803loPI    C312167   3.145   3.538   4.849 -0.0810  0.0612  0.1453
  803loPI   PO412168   2.937   3.506   5.406 -0.0326 -0.0374  0.2857
  803loPI   GL112169   2.694   3.589   5.824  0.1363  0.3032  0.0273
  803loPI   GL212170   2.924   3.421   6.009 -0.1263 -0.0326  0.0323
  803loPI   C1A12171   2.730   3.931   6.123  0.1010 -0.1551  0.1255
  803loPI   C2A12172   2.749   4.220   6.417 -0.2192  0.0733  0.1419
  803loPI   C3A12173   2.529   4.242   6.806 -0.2161  0.0702 -0.5135
  803loPI   C4A12174   2.464   4.224   7.250  0.1883  0.0836  0.2227
  803loPI   C5A12175   2.681   4.282   7.724 -0.2077  0.1644 -0.0798
  803loPI   C6A12176   2.798   4.509   8.059 -0.1895 -0.3878 -0.0362
  803loPI   C1B12177   2.686   3.379   6.316 -0.3010 -0.1613  0.1885
  803loPI   C2B12178   2.616   3.686   6.630 -0.0552  0.0675  0.0170
  803loPI   C3B12179   2.596   3.695   7.019  0.2327  0.0740  0.0422
  803loPI   C4B12180   2.381   3.525   7.335 -0.1590 -0.0280 -0.5322
  804loPI    C112181  18.459  15.966   5.075 -0.2342 -0.0383 -0.3136
  804loPI    C212182  18.408  16.362   5.065 -0.2438 -0.0339 -0.1278
  804loPI    C312183  18.282  16.137   4.760  0.0199  0.1338 -0.3659
  804loPI   PO412184  18.399  15.982   5.378 -0.1141  0.2453  0.0904
  804loPI   GL112185  18.277  16.072   5.759  0.0977 -0.1108  0.2758
  804loPI   GL212186  18.612  16.090   5.839  0.1093 -0.1421 -0.0642
  804loPI   C1A12187  18.304  16.054   6.192  0.1809 -0.1022  0.3124
  804loPI   C2A12188  18.336  15.965   6.570  0.2394 -0.2762  0.2002
  804loPI   C3A12189  18.157  15.967   6.970  0.1812 -0.0189  0.0964
  804loPI   C4A12190  17.919  15.821   7.355  0.1290  0.3358  0.1890
  804loPI   C5A12191  17.516  15.904   7.509  0.2725  0.2186 -0.1588
  804loPI   C6A12192  17.192  15.784   7.725  0.2131 -0.0343  0.1185
  804loPI   C1B12193  18.822  15.891   6.232 -0.0054 -0.1206 -0.1485
  804loPI   C2B12194  18.833  15.933   6.567  0.0481 -0.0535 -0.0475
  804loPI   C3B12195  19.081  15.909   6.945  0.0307  0.3878  0.2811
  804loPI   C4B12196  19.113  15.835   7.398  0.2999  0.0119  0.0968
  805loPI    C112197   1.202   8.673   4.653 -0.1634  0.0589  0.0013
  805loPI    C212198   1.601   8.652   4.675 -0.1637  0.2411  0.2212
  805loPI    C312199   1.398   8.387   4.453  0.1031  0.3549 -0.1689
  805loPI   PO412200   1.113   8.701   4.909 -0.1592 -0.2457  0.2835
  805loPI   GL112201   0.976   8.943   5.342 -0.0183 -0.0116  0.0170
  805loPI   GL212202   0.719   8.752   5.524  0.1996  0.0231  0.2185
  805loPI   C1A12203   1.160   8.915   5.875  0.2437  0.1636  0.2027
  805loPI   C2A12204   1.343   8.929   6.216 -0.2248 -0.0572 -0.0613
  805loPI   C3A12205   1.232   8.832   6.622 -0.0140 -0.0646 -0.2895
  805loPI   C4A12206   1.236   8.595   7.019 -0.0718 -0.0057 -0.1401
  805loPI   C5A12207   1.378   8.405   7.365  0.2308  0.0700  0.2193
  805loPI   C6A12208   1.596   8.387   7.779  0.1120 -0.0132  0.0605
  805loPI   C1B12209   0.667   8.973   5.976 -0.0286  0.3475  0.2545
  805loPI   C2B12210   0.788   8.885   6.456 -0.1335  0.0538  0.0354
  805loPI   C3B12211   0.784   8.822   6.882  0.3629 -0.0580  0.1123
  805loPI   C4B12212   0.800   9.101   7.196  0.1422  0.0504  0.1249
  806loPI    C112213   6.262  15.238   4.727 -0.1746  0.4652  0.1952
  806loPI    C212214   6.563  15.414   4.532 -0.0835  0.1784  0.0707
  806loPI    C312215   6.185  15.499   4.435 -0.0392  0.1032 -0.1750
  806loPI   PO412216   6.366  15.155   5.004  0.0176  0.0515  0.0933
  806loPI   GL112217   6.264  14.993   5.374 -0.0650 -0.3243 -0.0963
  806loPI   GL212218   6.187  14.592   5.332  0.0500 -0.3589 -0.0813
  806loPI   C1A12219   6.357  15.177   5.747  0.0812  0.6329 -0.0808
  806loPI   C2A12220   6.269  15.001   6.135 -0.1563 -0.1811  0.0182
  806loPI   C3A12221   6.297  15.030   6.567  0.3427  0.1172 -0.3960
  806loPI   C4A12222   6.039  14.867   6.980  0.2280 -0.1198 -0.0899
  806loPI   C5A12223   6.185  14.517   7.249 -0.0877 -0.1416 -0.4036
  806loPI   C6A12224   6.317  14.075   7.309 -0.0884  0.0113 -0.0403
  806loPI   C1B12225   5.910  14.886   5.767  0.0070  0.1804  0.2658
  806loPI   C2B12226   5.827  14.850   6.286 -0.2140  0.0138  0.0580
  806loPI   C3B12227   5.647  14.902   6.645 -0.0938  0.2740  0.0923
  806loPI   C4B12228   5.519  15.232   6.814 -0.1210 -0.2037  0.3297
  807loPI    C112229  15.999  14.419   5.092 -0.1587  0.1048 -0.0872
  807loPI    C212230  16.241  14.711   4.965  0.0870 -0.0963 -0.0894
  807loPI    C312231  16.055  14.476   4.700 -0.1083  0.0537 -0.0876
  807loPI   PO412232  16.076  14.425   5.311  0.0100 -0.0136  0.1768
  807loPI   GL112233  16.036  14.501   5.695  0.2406 -0.0496  0.0419
  807loPI   GL212234  16.357  14.439   5.790 -0.0176  0.2421 -0.1214
  807loPI   C1A12235  15.901  14.490   6.111 -0.3078  0.1655 -0.1721
  807loPI   C2A12236  16.020  14.611   6.526 -0.0715 -0.0137 -0.0365
  807loPI   C3A12237  16.179  14.469   6.948 -0.0567 -0.0154  0.2457
  807loPI   C4A12238  16.259  14.507   7.353  0.0209  0.1932  0.0341
  807loPI   C5A12239  16.414  14.402   7.729 -0.1351 -0.2982 -0.0983
  807loPI   C6A12240  16.205  14.324   8.134  0.2678 -0.0722  0.0924
  807loPI   C1B12241  16.448  14.479   6.102 -0.1647 -0.2612  0.0466
  807loPI   C2B12242  16.508  14.469   6.510 -0.0736  0.0506 -0.0555
  807loPI   C3B12243  16.686  14.219   6.830  0.1799 -0.2581 -0.2132
  807loPI   C4B12244  16.594  14.234   7.153 -0.0631  0.1408  0.0852
  808loPI    C112245  14.216  14.880   5.339  0.0231  0.3548 -0.3618
  808loPI    C212246  14.407  14.621   5.102 -0.1787  0.1008 -0.2528
  808loPI    C312247  14.010  14.600   5.141 -0.1601  0.2110  0.0207
  808loPI   PO412248  14.279  14.911   5.578 -0.0625 -0.0884 -0.0981
  808loPI   GL112249  14.158  14.844   5.982 -0.1846  0.0882 -0.3748
  808loPI   GL212250  14.033  14.610   6.080  0.2604 -0.0305 -0.1457
  808loPI   C1A12251  14.084  14.882   6.485  0.3794 -0.1211 -0.1508
  808loPI   C2A12252  13.841  15.162   6.715  0.0035 -0.3029  0.1641
  808loPI   C3A12253  13.746  15.487   7.125  0.3505  0.2452  0.1544
  808loPI   C4A12254  13.583  15.404   7.527  0.1568 -0.1587  0.0441
  808loPI   C5A12255  13.287  15.172   7.716  0.0671  0.1262 -0.2688
  808loPI   C6A12256  12.886  15.122   7.612 -0.1270 -0.1677 -0.0971
  808loPI   C1B12257  13.709  14.762   6.136  0.2103 -0.0479  0.0513
  808loPI   C2B12258  13.415  15.126   6.253 -0.1540  0.4389 -0.1627
  808loPI   C3B12259  13.135  15.215   5.987 -0.1080  0.1643 -0.0613
  808loPI   C4B12260  13.049  15.676   5.850  0.3374 -0.0364  0.1923
  809loPI    C112261   2.458  16.051   4.906 -0.0278 -0.1661 -0.2343
  809loPI    C212262   2.640  16.369   4.747  0.1134 -0.1064  0.0412
  809loPI    C312263   2.449  16.110   4.510  0.0144  0.1705 -0.1881
  809loPI   PO412264   2.360  16.110   5.066  0.1189 -0.3669 -0.1788
  809loPI   GL112265   2.329  16.221   5.483 -0.0689 -0.0360  0.1744
  809loPI   GL212266   2.377  15.923   5.506 -0.0930  0.3896  0.3639
  809loPI   C1A12267   2.695  16.266   5.705  0.0596 -0.0636  0.0572
  809loPI   C2A12268   2.900  16.325   6.090 -0.3019 -0.1507  0.2235
  809loPI   C3A12269   2.939  16.323   6.499  0.0345  0.0175 -0.0609
  809loPI   C4A12270   3.094  16.204   6.908  0.4064  0.1456 -0.1936
  809loPI   C5A12271   2.982  16.238   7.360 -0.0439 -0.0146 -0.1702
  809loPI   C6A12272   2.794  15.893   7.525 -0.0261  0.0662 -0.0440
  809loPI   C1B12273   2.504  15.793   5.807 -0.3161  0.1500  0.0359
  809loPI   C2B12274   2.615  15.943   6.156  0.0116 -0.2334 -0.0041
  809loPI   C3B12275   2.504  16.066   6.668  0.2270  0.0970  0.0899
  809loPI   C4B12276   2.497  16.154   7.139 -0.0384 -0.1811  0.0217
  810loPI    C112277   6.286  17.197   4.822  0.0320  0.0309 -0.0306
  810loPI    C212278   6.030  17.089   5.110 -0.1704  0.1724 -0.1547
  810loPI    C312279   5.949  17.003   4.728  0.0323  0.1030 -0.1835
  810loPI   PO412280   6.519  17.050   4.898  0.0292 -0.4755 -0.1048
  810loPI   GL112281   6.432  16.906   5.375  0.1767 -0.0829  0.1566
  810loPI   GL212282   6.695  16.950   5.445 -0.1135 -0.0778 -0.1851
  810loPI   C1A12283   6.362  16.706   5.831  0.3657 -0.3682  0.0824
  810loPI   C2A12284   6.137  16.536   6.195  0.1961 -0.3149 -0.2740
  810loPI   C3A12285   6.280  16.395   6.510 -0.0712 -0.1934  0.1992
  810loPI   C4A12286   6.221  16.285   6.824 -0.0481 -0.0502  0.1281
  810loPI   C5A12287   6.311  16.022   7.269  0.1507 -0.1845  0.1598
  810loPI   C6A12288   6.388  15.974   7.701  0.1090  0.0973  0.0247
  810loPI   C1B12289   6.690  17.113   5.881 -0.1780  0.3307 -0.0520
  810loPI   C2B12290   6.536  17.320   6.273  0.1853  0.1289 -0.0070
  810loPI   C3B12291   6.698  17.494   6.689  0.1590 -0.1365 -0.0194
  810loPI   C4B12292   6.890  17.366   7.105  0.0147 -0.4850  0.0114
  811loPI    C112293  10.312  11.220   4.945 -0.0325 -0.0193  0.2521
  811loPI    C212294  10.615  11.329   4.707 -0.1605 -0.1316  0.0341
  811loPI    C312295  10.253  11.493   4.659 -0.1873 -0.1551  0.1519
  811loPI   PO412296  10.420  11.197   5.175 -0.0315  0.1410  0.0093
  811loPI   GL112297  10.614  11.523   5.500 -0.0901  0.2990 -0.0840
  811loPI   GL212298  10.986  11.589   5.513 -0.3719 -0.1654 -0.3478
  811loPI   C1A12299  10.339  11.491   5.930  0.3485 -0.1008 -0.0832
  811loPI   C2A12300  10.317  11.512   6.366  0.0750  0.2539  0.1987
  811loPI   C3A12301  10.226  11.521   6.879  0.0171  0.3178 -0.1574
  811loPI   C4A12302  10.093  11.923   7.165  0.3527 -0.1346  0.0756
  811loPI   C5A12303   9.918  12.094   7.392  0.0485  0.0690  0.2862
  811loPI   C6A12304   9.812  11.946   7.723 -0.1529  0.0824 -0.0216
  811loPI   C1B12305  10.814  11.696   5.934  0.1824 -0.0636  0.0640
  811loPI   C2B12306  10.823  11.721   6.404  0.3713 -0.0489 -0.2510
  811loPI   C3B12307  10.708  11.543   6.760 -0.0949 -0.1229  0.1173
  811loPI   C4B12308  10.815  11.372   7.122 -0.0487 -0.2265  0.0685
  812loPI    C112309  15.583  11.315   5.027  0.0755 -0.1400  0.0954
  812loPI    C212310  15.565  10.951   5.192  0.0376 -0.0962  0.1884
  812loPI    C312311  15.392  11.019   4.838  0.0554 -0.1718  0.1651
  812loPI   PO412312  15.509  11.453   5.198 -0.0751 -0.1510  0.2765
  812loPI   GL112313  15.266  11.245   5.569 -0.1330 -0.1906 -0.0232
  812loPI   GL212314  15.153  11.538   5.531 -0.0931  0.0157  0.3033
  812loPI   C1A12315  15.333  11.440   5.979 -0.2181  0.2937  0.0319
  812loPI   C2A12316  15.346  11.280   6.394  0.2433 -0.1609  0.0098
  812loPI   C3A12317  15.525  11.221   6.720  0.0321  0.0197  0.0576
  812loPI   C4A12318  15.840  11.486   6.968 -0.0484 -0.0056  0.1583
  812loPI   C5A12319  16.074  11.482   7.313 -0.2637 -0.1002 -0.4205
  812loPI   C6A12320  16.419  11.188   7.429  0.0123 -0.1824  0.0056
  812loPI   C1B12321  15.027  11.750   5.877  0.0773  0.2046 -0.1428
  812loPI   C2B12322  15.217  11.798   6.314  0.0649  0.0483 -0.2304
  812loPI   C3B12323  15.067  11.863   6.730  0.2213 -0.3007 -0.3228
  812loPI   C4B12324  15.030  11.990   7.112 -0.1319 -0.3858  0.3269
  813loPI    C112325   9.932   2.372   5.272 -0.0581  0.1497  0.0458
  813loPI    C212326   9.838   2.721   5.101 -0.0472  0.0864 -0.0908
  813loPI    C312327   9.905   2.399   4.874  0.0157  0.0128  0.0310
  813loPI   PO412328  10.169   2.286   5.410 -0.2485 -0.1446 -0.2135
  813loPI   GL112329  10.423   1.997   5.665 -0.0415 -0.1206  0.2113
  813loPI   GL212330  10.249   2.023   5.964  0.0739  0.0540 -0.0705
  813loPI   C1A12331  10.715   2.243   6.068 -0.0373 -0.1481  0.3275
  813loPI   C2A12332  10.709   2.202   6.540 -0.2684  0.1169  0.2872
  813loPI   C3A12333  10.712   2.075   6.931 -0.1134  0.1106 -0.2504
  813loPI   C4A12334  10.524   2.262   7.281 -0.4991 -0.1605  0.0595
  813loPI   C5A12335  10.560   2.149   7.600  0.1915 -0.1136  0.2521
  813loPI   C6A12336  10.958   2.102   7.867 -0.0777 -0.3697  0.1197
  813loPI   C1B12337  10.266   1.901   6.347  0.0468 -0.0795 -0.1145
  813loPI   C2B12338  10.109   1.962   6.741  0.0909  0.1763  0.1431
  813loPI   C3B12339  10.131   1.990   7.131  0.3172 -0.0506 -0.0243
  813loPI   C4B12340  10.172   1.809   7.527  0.3668 -0.2912 -0.3743
  814loPI    C112341  15.902  15.514   5.188  0.1551  0.0017 -0.3803
  814loPI    C212342  15.847  15.726   4.854 -0.2678  0.2021 -0.1908
  814loPI    C312343  15.756  15.885   5.209  0.1516 -0.0177  0.0230
  814loPI   PO412344  15.712  15.304   5.176 -0.2064  0.1725  0.1227
  814loPI   GL112345  15.596  15.219   5.592  0.2879  0.1192  0.0179
  814loPI   GL212346  15.292  15.330   5.837  0.1223 -0.4747 -0.1878
  814loPI   C1A12347  15.577  14.933   5.947  0.1451  0.2149 -0.0464
  814loPI   C2A12348  15.608  14.889   6.360 -0.0006  0.1372 -0.1824
  814loPI   C3A12349  15.582  15.001   6.795  0.3702 -0.0996  0.0295
  814loPI   C4A12350  15.593  15.069   7.223 -0.1237  0.0866  0.1300
  814loPI   C5A12351  15.608  14.917   7.637  0.2252 -0.1633  0.1310
  814loPI   C6A12352  15.445  15.035   8.037 -0.2522 -0.1477  0.1237
  814loPI   C1B12353  15.232  15.239   6.204  0.1163 -0.1603  0.1517
  814loPI   C2B12354  15.201  15.223   6.583  0.1326  0.2515 -0.1756
  814loPI   C3B12355  15.254  15.335   6.997 -0.0548  0.1399  0.1574
  814loPI   C4B12356  15.085  15.465   7.274  0.0976 -0.0807  0.2694
  815loPI    C112357   2.168  13.843   4.774 -0.0901  0.0717 -0.2176
  815loPI    C212358   2.270  13.654   4.436  0.1869 -0.2339  0.0291
  815loPI    C312359   1.910  13.592   4.600 -0.0858  0.1814 -0.3847
  815loPI   PO412360   2.240  14.041   4.773  0.2516  0.0750 -0.1003
  815loPI   GL112361   2.403  14.247   5.005 -0.1394  0.0126  0.2856
  815loPI   GL212362   2.398  14.472   5.230  0.2655  0.1329  0.1700
  815loPI   C1A12363   2.736  14.150   5.278 -0.0476 -0.2503  0.2870
  815loPI   C2A12364   2.739  13.919   5.734  0.1401  0.2702  0.3643
  815loPI   C3A12365   2.694  14.063   6.191 -0.0516  0.2476 -0.0118
  815loPI   C4A12366   2.465  14.048   6.613 -0.0380  0.0383  0.0052
  815loPI   C5A12367   2.423  14.358   7.035  0.0021  0.0812 -0.0262
  815loPI   C6A12368   2.219  14.695   7.189 -0.0514  0.0879  0.2077
  815loPI   C1B12369   2.423  14.288   5.605  0.0685 -0.0947  0.1039
  815loPI   C2B12370   2.300  14.266   5.964  0.1971  0.0604  0.1175
  815loPI   C3B12371   2.097  14.071   6.325 -0.0868 -0.3163  0.0281
  815loPI   C4B12372   1.933  14.123   6.755 -0.2058  0.3941  0.0625
  816loPI    C112373   5.509  14.623   4.839 -0.1083  0.2354 -0.0266
  816loPI    C212374   5.185  14.541   4.620 -0.0948  0.0589  0.0177
  816loPI    C312375   5.541  14.586   4.442 -0.1173  0.1062 -0.0157
  816loPI   PO412376   5.443  14.828   4.946  0.1513  0.2366 -0.1135
  816loPI   GL112377   5.212  14.792   5.355  0.1417 -0.0840 -0.0795
  816loPI   GL212378   5.304  15.113   5.564  0.2447 -0.1003  0.1722
  816loPI   C1A12379   4.974  14.569   5.619 -0.1162  0.2124 -0.0379
  816loPI   C2A12380   5.054  14.654   6.056 -0.0434  0.0062 -0.2831
  816loPI   C3A12381   5.140  14.512   6.469 -0.4099  0.3777  0.3954
  816loPI   C4A12382   5.384  14.514   6.820  0.0647 -0.3841 -0.0819
  816loPI   C5A12383   5.517  14.499   7.186 -0.0310 -0.2168  0.1157
  816loPI   C6A12384   5.738  14.674   7.632  0.1590  0.3639 -0.1973
  816loPI   C1B12385   5.430  14.926   5.921 -0.1431  0.1465 -0.4823
  816loPI   C2B12386   5.191  15.022   6.352 -0.1404 -0.0906 -0.4025
  816loPI   C3B12387   5.107  15.341   6.590 -0.3311  0.0404 -0.0247
  816loPI   C4B12388   4.918  15.463   7.001 -0.0738  0.2384  0.4001
  817loPI    C112389   7.421   2.054   5.366  0.1028 -0.1612 -0.0698
  817loPI    C212390   7.730   2.111   5.119  0.2260 -0.0423  0.1096
  817loPI    C312391   7.371   2.260   5.027  0.2545 -0.0590 -0.0310
  817loPI   PO412392   7.501   1.902   5.551  0.1889 -0.2673 -0.3012
  817loPI   GL112393   7.612   2.107   5.916 -0.0861 -0.0986  0.0459
  817loPI   GL212394   7.816   2.334   5.972 -0.1202  0.2076 -0.0682
  817loPI   C1A12395   7.468   2.211   6.336  0.1094 -0.2209  0.0135
  817loPI   C2A12396   7.605   2.440   6.772 -0.0927 -0.1925 -0.0374
  817loPI   C3A12397   7.427   2.375   7.119  0.0850  0.0626 -0.0813
  817loPI   C4A12398   7.486   2.241   7.472  0.1374 -0.2590  0.1888
  817loPI   C5A12399   7.561   1.990   7.893 -0.1302 -0.0651 -0.0245
  817loPI   C6A12400   7.824   1.548   7.706 -0.0353  0.2998 -0.0545
  817loPI   C1B12401   7.968   2.263   6.373 -0.0747  0.1367 -0.3856
  817loPI   C2B12402   8.030   2.195   6.787  0.1182  0.2265 -0.1747
  817loPI   C3B12403   8.025   1.999   7.078 -0.3033  0.1379  0.2187
  817loPI   C4B12404   8.121   1.593   7.264 -0.0473  0.0699  0.1026
  818loPI    C112405  17.012   5.544   5.005 -0.2291 -0.1179  0.2872
  818loPI    C212406  17.107   5.926   5.079 -0.0368 -0.0554 -0.2440
  818loPI    C312407  16.884   5.833   4.760 -0.3284 -0.3656  0.0417
  818loPI   PO412408  17.222   5.415   5.131  0.3029 -0.2501  0.0369
  818loPI   GL112409  17.358   5.678   5.434  0.1259 -0.0940  0.1291
  818loPI   GL212410  17.022   5.718   5.556 -0.1205  0.0644  0.0640
  818loPI   C1A12411  17.517   5.576   5.918 -0.1789 -0.0417  0.0873
  818loPI   C2A12412  17.421   5.358   6.317  0.2783  0.3109  0.2134
  818loPI   C3A12413  17.568   5.074   6.708 -0.2045  0.3005 -0.2748
  818loPI   C4A12414  17.416   4.900   7.119 -0.1680 -0.0501 -0.0367
  818loPI   C5A12415  17.408   5.054   7.462  0.1828  0.1495  0.1117
  818loPI   C6A12416  17.323   5.447   7.800  0.3020 -0.0923 -0.5500
  818loPI   C1B12417  17.127   5.302   5.764 -0.1776  0.0688  0.0043
  818loPI   C2B12418  17.108   5.053   6.132 -0.3559  0.2833 -0.1443
  818loPI   C3B12419  17.000   4.893   6.477 -0.1934  0.0658 -0.1377
  818loPI   C4B12420  16.951   4.966   6.895 -0.1571  0.2873 -0.2191
  819loPI    C112421  13.677  13.068   5.036 -0.0966  0.0229  0.0955
  819loPI    C212422  13.490  13.372   4.855  0.0625  0.0086 -0.0962
  819loPI    C312423  13.711  13.117   4.640  0.1359 -0.0944  0.0995
  819loPI   PO412424  13.798  13.223   5.256  0.1172 -0.1035  0.0160
  819loPI   GL112425  13.864  13.326   5.699  0.0712  0.5592  0.4117
  819loPI   GL212426  13.989  13.580   5.749  0.2164  0.0533  0.3603
  819loPI   C1A12427  13.729  12.926   5.893  0.1543 -0.2255 -0.2066
  819loPI   C2A12428  13.653  12.478   5.925 -0.4173  0.1606  0.0604
  819loPI   C3A12429  13.802  12.247   6.258  0.3716 -0.0484  0.1908
  819loPI   C4A12430  14.094  11.981   6.501  0.0458  0.1871  0.1511
  819loPI   C5A12431  13.961  11.748   6.947 -0.1924  0.0320 -0.0828
  819loPI   C6A12432  14.201  11.625   7.254  0.2597 -0.1235  0.3863
  819loPI   C1B12433  14.006  13.711   6.089 -0.0790  0.1064 -0.1946
  819loPI   C2B12434  14.060  13.712   6.527 -0.2316 -0.1782 -0.0358
  819loPI   C3B12435  13.957  13.512   6.923 -0.3303  0.0021  0.1075
  819loPI   C4B12436  13.959  13.429   7.338  0.0492  0.2079  0.0725
  820loPI    C112437   0.326   1.196   4.909 -0.1318 -0.0117 -0.2184
  820loPI    C212438   0.683   1.265   4.742  0.0160 -0.1044  0.0539
  820loPI    C312439   0.370   1.170   4.512  0.1148  0.1824 -0.2064
  820loPI   PO412440   0.359   1.019   5.038  0.2834 -0.0836 -0.0078
  820loPI   GL112441   0.234   0.943   5.472  0.1318  0.2455  0.1044
  820loPI   GL212442   0.541   0.956   5.526 -0.0769  0.3325 -0.1913
  820loPI   C1A12443   0.018   1.127   5.748  0.3239  0.1157 -0.0242
  820loPI   C2A12444   0.108   1.073   6.196 -0.3236  0.1997  0.0230
  820loPI   C3A12445   0.263   1.028   6.572 -0.1216 -0.0113  0.2276
  820loPI   C4A12446   0.464   1.143   6.961  0.1590  0.1024 -0.1815
  820loPI   C5A12447   0.624   1.313   7.346  0.1706 -0.1572 -0.1674
  820loPI   C6A12448   0.556   1.426   7.809  0.0874  0.2809 -0.3186
  820loPI   C1B12449   0.520   0.992   5.951  0.0049 -0.1145  0.2363
  820loPI   C2B12450   0.664   0.991   6.234  0.1377  0.1267  0.0167
  820loPI   C3B12451   0.786   1.200   6.635 -0.0199  0.1108  0.1297
  820loPI   C4B12452   0.839   1.473   6.948 -0.2983 -0.0546 -0.1841
  821loPI    C112453  17.516   9.881   4.646 -0.0157  0.2108 -0.0833
  821loPI    C212454  17.509   9.496   4.535 -0.4247  0.0776  0.3672
  821loPI    C312455  17.755   9.753   4.351 -0.0563 -0.4192  0.1412
  821loPI   PO412456  17.404   9.847   4.978 -0.0015  0.3474 -0.2037
  821loPI   GL112457  17.314  10.181   5.422  0.1613 -0.0268 -0.0091
  821loPI   GL212458  16.969  10.364   5.597  0.1489  0.0313  0.1473
  821loPI   C1A12459  17.531   9.931   5.711 -0.3346  0.2075  0.0649
  821loPI   C2A12460  17.421   9.926   6.201  0.4919  0.0741  0.0734
  821loPI   C3A12461  17.558  10.004   6.646 -0.4863 -0.0385 -0.1210
  821loPI   C4A12462  17.729   9.956   7.158 -0.1051  0.1123 -0.1237
  821loPI   C5A12463  17.364  10.022   7.564 -0.0653 -0.0851  0.2265
  821loPI   C6A12464  17.157  10.367   7.723 -0.2393 -0.1882  0.0196
  821loPI   C1B12465  16.942  10.397   6.072  0.3074  0.3496 -0.0382
  821loPI   C2B12466  17.132  10.407   6.428  0.0418  0.0709 -0.0400
  821loPI   C3B12467  17.278  10.496   6.778 -0.2234 -0.1962 -0.2901
  821loPI   C4B12468  17.316  10.373   7.217  0.3882  0.1242 -0.0867
  822loPI    C112469   3.068   8.851   4.750  0.0453 -0.0290 -0.1347
  822loPI    C212470   3.353   8.642   4.938 -0.1449  0.0317  0.2292
  822loPI    C312471   3.258   8.554   4.559  0.3049 -0.0348  0.1263
  822loPI   PO412472   2.874   8.908   4.928 -0.0173 -0.3168  0.0956
  822loPI   GL112473   2.855   9.257   5.138  0.1967  0.0920 -0.0473
  822loPI   GL212474   2.836   9.556   5.321 -0.2439  0.1832 -0.2498
  822loPI   C1A12475   3.233   9.220   5.440  0.0587 -0.5531  0.0019
  822loPI   C2A12476   3.167   9.432   5.830 -0.0817  0.3037 -0.2227
  822loPI   C3A12477   3.210   9.427   6.297 -0.2108  0.0698 -0.0532
  822loPI   C4A12478   3.230   9.643   6.700 -0.1603 -0.0121 -0.0495
  822loPI   C5A12479   3.472  10.080   6.876 -0.0281  0.0260  0.0913
  822loPI   C6A12480   3.653  10.319   7.099 -0.0872  0.0060 -0.2452
  822loPI   C1B12481   3.271   9.772   5.494  0.0761 -0.1096  0.0422
  822loPI   C2B12482   3.427   9.928   5.978 -0.2596  0.0998 -0.3839
  822loPI   C3B12483   3.457   9.953   6.368  0.2534  0.1378 -0.2650
  822loPI   C4B12484   3.786  10.197   6.532 -0.0748 -0.2814 -0.4402
  823loPI    C112485  12.387  12.328   4.963  0.0683 -0.1139  0.0024
  823loPI    C212486  12.364  12.087   4.644 -0.0022  0.0847 -0.1451
  823loPI    C312487  12.031  12.246   4.799  0.0483  0.1232 -0.0755
  823loPI   PO412488  12.541  12.283   5.108 -0.2898  0.1043 -0.0296
  823loPI   GL112489  12.554  12.048   5.491 -0.1899 -0.0565 -0.1059
  823loPI   GL212490  12.674  12.353   5.658  0.0438  0.0885  0.1635
  823loPI   C1A12491  12.558  11.972   5.964  0.3269 -0.1861  0.1492
  823loPI   C2A12492  12.478  12.093   6.337  0.1040 -0.1404  0.2458
  823loPI   C3A12493  12.689  11.980   6.775 -0.1125 -0.0258 -0.1558
  823loPI   C4A12494  12.537  12.023   7.125 -0.2698 -0.2700  0.1626
  823loPI   C5A12495  12.630  11.854   7.530  0.2592  0.0208  0.1568
  823loPI   C6A12496  12.374  11.490   7.653 -0.0404  0.0424 -0.0125
  823loPI   C1B12497  12.887  12.489   6.070 -0.0587 -0.5424  0.1190
  823loPI   C2B12498  13.252  12.623   6.242  0.0525 -0.1211  0.0304
  823loPI   C3B12499  13.628  12.587   6.577  0.0321 -0.1126 -0.1467
  823loPI   C4B12500  14.023  12.723   6.345  0.2789  0.1050 -0.3051
  824loPI    C112501   1.183  18.023   5.034 -0.0828  0.0275 -0.0112
  824loPI    C212502   1.060  18.335   4.816 -0.0506  0.0159 -0.0463
  824loPI    C312503   1.435  18.201   4.780 -0.1122 -0.1303 -0.1527
  824loPI   PO412504   1.152  18.130   5.258  0.0067 -0.0663 -0.0422
  824loPI   GL112505   1.320  18.008   5.517  0.1006 -0.0046  0.1991
  824loPI   GL212506   1.509  18.210   5.739  0.1324  0.0379  0.0687
  824loPI   C1A12507   1.486  17.560   5.695  0.1028 -0.0689 -0.2367
  824loPI   C2A12508   1.510  17.288   6.031 -0.1990 -0.2710  0.2356
  824loPI   C3A12509   1.457  17.047   6.291  0.2078  0.1222  0.1557
  824loPI   C4A12510   1.438  16.858   6.650 -0.0227 -0.1616 -0.1117
  824loPI   C5A12511   1.464  16.508   6.958 -0.0527  0.1301 -0.0945
  824loPI   C6A12512   1.369  16.190   7.287  0.0802 -0.1450 -0.0749
  824loPI   C1B12513   1.382  18.225   6.172 -0.0349 -0.1914 -0.2256
  824loPI   C2B12514   1.368  18.157   6.575 -0.3094 -0.1206  0.0687
  824loPI   C3B12515   1.485  18.140   6.983 -0.3415 -0.2432 -0.5811
  824loPI   C4B12516   1.406  17.927   7.397 -0.0201 -0.0129  0.0595
  825loPI    C112517   4.603   2.851   5.448 -0.0702  0.2026  0.2850
  825loPI    C212518   4.686   2.887   5.058  0.0386 -0.0798  0.2800
  825loPI    C312519   4.346   3.040   5.205 -0.1064 -0.1599  0.0339
  825loPI   PO412520   4.806   2.918   5.643 -0.0216 -0.3829 -0.0764
  825loPI   GL112521   4.976   2.587   5.827 -0.1389  0.3429 -0.1206
  825loPI   GL212522   4.593   2.553   5.840  0.1167  0.3281  0.0682
  825loPI   C1A12523   5.347   2.385   6.081  0.0645  0.1030 -0.0582
  825loPI   C2A12524   5.335   2.335   6.419  0.0197 -0.1515  0.2404
  825loPI   C3A12525   5.387   2.373   6.838  0.2311 -0.1801 -0.1216
  825loPI   C4A12526   5.376   2.493   7.177  0.1148  0.2323 -0.1866
  825loPI   C5A12527   5.359   2.654   7.563  0.1156  0.1774  0.1289
  825loPI   C6A12528   5.598   2.658   7.910 -0.0195  0.5455 -0.1571
  825loPI   C1B12529   4.703   2.563   6.303  0.0845  0.0277 -0.1796
  825loPI   C2B12530   4.642   2.764   6.640  0.0481  0.1230  0.1233
  825loPI   C3B12531   4.537   2.850   7.022  0.0344 -0.3003  0.2267
  825loPI   C4B12532   4.340   2.792   7.355  0.1077  0.1218  0.0049
  826loPI    C112533   4.137  14.625   4.515  0.1044 -0.1957  0.1559
  826loPI    C212534   3.910  14.954   4.515  0.1709 -0.1494  0.1898
  826loPI    C312535   4.295  14.977   4.622  0.1972 -0.2236  0.1122
  826loPI   PO412536   3.922  14.420   4.599  0.0005 -0.0623  0.0193
  826loPI   GL112537   3.799  14.331   4.994  0.0971 -0.0738  0.1740
  826loPI   GL212538   3.777  14.719   4.983  0.0604 -0.2914 -0.2475
  826loPI   C1A12539   3.747  14.213   5.390  0.1804  0.2715 -0.1968
  826loPI   C2A12540   3.708  14.148   5.818  0.2398  0.1529 -0.1067
  826loPI   C3A12541   3.770  14.222   6.196 -0.2089  0.0281  0.0704
  826loPI   C4A12542   3.627  14.297   6.612 -0.1579  0.0204  0.1646
  826loPI   C5A12543   3.279  14.349   6.983 -0.2487 -0.0218 -0.0968
  826loPI   C6A12544   2.986  14.334   7.300 -0.0136  0.0084  0.1005
  826loPI   C1B12545   3.971  14.690   5.426 -0.0573 -0.0224 -0.2006
  826loPI   C2B12546   4.015  14.592   5.871 -0.0886 -0.1124 -0.2006
  826loPI   C3B12547   3.862  14.701   6.332 -0.2035 -0.2794  0.3033
  826loPI   C4B12548   3.712  14.727   6.792  0.1117 -0.0494  0.3490
  827loPI    C112549  13.759  10.913   4.966  0.1374  0.1504 -0.0032
  827loPI    C212550  14.102  10.789   5.130  0.1537  0.3354  0.1054
  827loPI    C312551  14.108  11.021   4.805  0.1216 -0.0228 -0.1569
  827loPI   PO412552  13.650  11.004   5.266  0.0068  0.2045  0.2041
  827loPI   GL112553  13.590  11.007   5.660  0.1709  0.0520 -0.2552
  827loPI   GL212554  13.359  10.971   5.856  0.0461 -0.0584 -0.1598
  827loPI   C1A12555  13.821  11.214   6.042 -0.0772  0.3498  0.0118
  827loPI   C2A12556  13.857  11.218   6.495  0.3947  0.1361 -0.1478
  827loPI   C3A12557  13.952  11.244   6.942 -0.1236 -0.1415 -0.0297
  827loPI   C4A12558  13.943  11.221   7.360 -0.0611 -0.0183  0.3176
  827loPI   C5A12559  14.088  11.028   7.608  0.0591  0.0596  0.0544
  827loPI   C6A12560  14.011  10.899   8.029 -0.0346  0.2579 -0.4059
  827loPI   C1B12561  13.397  10.761   6.266 -0.3212  0.0541 -0.0405
  827loPI   C2B12562  13.511  10.833   6.644  0.0589 -0.0249 -0.2477
  827loPI   C3B12563  13.647  10.840   7.065 -0.0238  0.2879 -0.0136
  827loPI   C4B12564  13.745  10.662   7.422 -0.1659 -0.2492 -0.1462
  828loPI    C112565   1.385   6.989   4.826  0.2970 -0.1450  0.1059
  828loPI    C212566   1.628   6.974   4.508  0.0070 -0.0388 -0.1251
  828loPI    C312567   1.268   6.798   4.495  0.0385 -0.1341  0.1885
  828loPI   PO412568   1.619   6.921   4.997  0.0022  0.0300  0.1595
  828loPI   GL112569   1.772   6.741   5.306  0.1856 -0.0337 -0.0189
  828loPI   GL212570   1.778   6.969   5.600  0.3594  0.2148  0.1590
  828loPI   C1A12571   1.799   6.497   5.705 -0.3804 -0.0479  0.1077
  828loPI   C2A12572   1.971   6.509   6.181 -0.0629 -0.0986  0.0815
  828loPI   C3A12573   1.889   6.547   6.620  0.3818 -0.0634 -0.0101
  828loPI   C4A12574   1.964   6.626   7.018 -0.2271  0.0084 -0.1235
  828loPI   C5A12575   1.971   6.596   7.438  0.1144  0.3405  0.1165
  828loPI   C6A12576   1.790   6.520   7.708  0.1042  0.1905 -0.0170
  828loPI   C1B12577   1.770   6.950   6.027 -0.0511 -0.0543  0.0134
  828loPI   C2B12578   1.640   6.942   6.462 -0.1266 -0.1225 -0.0701
  828loPI   C3B12579   1.593   7.271   6.630  0.0095 -0.0110  0.0764
  828loPI   C4B12580   1.341   7.489   6.522 -0.2760  0.1133  0.4480
  829loPI    C112581  17.174  15.378   5.291  0.0488 -0.3321  0.0324
  829loPI    C212582  16.803  15.258   5.380 -0.0482  0.0066  0.0959
  829loPI    C312583  16.878  15.434   5.028  0.0314  0.0286  0.1237
  829loPI   PO412584  17.327  15.239   5.324 -0.2525  0.0364 -0.0424
  829loPI   GL112585  17.378  14.954   5.677  0.2766  0.1058 -0.1616
  829loPI   GL212586  17.181  15.267   5.789  0.0293  0.1496  0.0175
  829loPI   C1A12587  17.337  14.884   6.113 -0.0010 -0.0846 -0.1432
  829loPI   C2A12588  17.374  14.921   6.467  0.0473 -0.3191 -0.0591
  829loPI   C3A12589  17.363  14.894   6.836 -0.1390  0.0522 -0.3876
  829loPI   C4A12590  17.534  14.849   7.237  0.3596  0.1335  0.0200
  829loPI   C5A12591  17.523  14.859   7.726 -0.1676  0.0268  0.3444
  829loPI   C6A12592  17.845  14.877   7.919  0.4064  0.1177  0.0610
  829loPI   C1B12593  16.982  15.254   6.208 -0.1187 -0.0628 -0.1098
  829loPI   C2B12594  16.893  15.161   6.637 -0.2231  0.2818  0.0658
  829loPI   C3B12595  17.003  15.094   7.124 -0.1547 -0.2836 -0.1355
  829loPI   C4B12596  17.127  15.014   7.490 -0.0491 -0.0761 -0.1010
  830loPI    C112597   2.580  16.849   4.598  0.1506 -0.0371 -0.1535
  830loPI    C212598   2.206  16.948   4.697  0.2083  0.1324 -0.1017
  830loPI    C312599   2.272  16.646   4.444  0.0347  0.1377 -0.1548
  830loPI   PO412600   2.723  16.881   4.827 -0.1888  0.3040 -0.3351
  830loPI   GL112601   2.642  16.803   5.136  0.1856 -0.1488  0.0781
  830loPI   GL212602   2.695  16.502   5.278 -0.0010  0.2082  0.2174
  830loPI   C1A12603   2.673  16.870   5.677  0.0473  0.1376  0.1643
  830loPI   C2A12604   2.910  16.995   6.016 -0.0835 -0.2141  0.3208
  830loPI   C3A12605   2.874  16.783   6.352 -0.0630  0.4132 -0.0045
  830loPI   C4A12606   3.243  16.698   6.598  0.0540 -0.1821  0.1011
  830loPI   C5A12607   3.322  16.633   6.946  0.0107 -0.0935  0.2223
  830loPI   C6A12608   3.090  16.733   7.302 -0.0245 -0.0506  0.0044
  830loPI   C1B12609   3.099  16.306   5.443 -0.0351 -0.2517  0.3933
  830loPI   C2B12610   3.289  16.162   5.819  0.1431  0.1856 -0.1424
  830loPI   C3B12611   3.448  16.225   6.280  0.0603  0.1677  0.1560
  830loPI   C4B12612   3.464  16.108   6.646 -0.3718  0.0028  0.0073
  831loPI    C112613   8.093  10.879   4.963  0.0969  0.2387 -0.2002
  831loPI    C212614   7.982  10.729   4.609  0.2493 -0.0840 -0.1150
  831loPI    C312615   8.356  10.675   4.741  0.2224  0.1227  0.0513
  831loPI   PO412616   7.996  11.066   5.045  0.1699 -0.2805 -0.0074
  831loPI   GL112617   7.745  11.171   5.400  0.1901  0.1324 -0.0760
  831loPI   GL212618   8.087  11.154   5.528 -0.0672  0.0083  0.0863
  831loPI   C1A12619   7.607  11.060   5.829  0.2281  0.1363  0.3228
  831loPI   C2A12620   7.662  11.191   6.263  0.2817 -0.1107  0.0977
  831loPI   C3A12621   7.687  11.290   6.695 -0.0420  0.2097  0.2627
  831loPI   C4A12622   7.637  11.398   7.174  0.1668  0.3545  0.2692
  831loPI   C5A12623   7.749  11.283   7.524  0.0475 -0.1968  0.1343
  831loPI   C6A12624   7.975  11.227   7.929  0.1577  0.1306  0.0391
  831loPI   C1B12625   8.127  11.038   5.921  0.2990  0.1871  0.2499
  831loPI   C2B12626   8.135  11.016   6.335 -0.1381  0.1362  0.2121
  831loPI   C3B12627   8.221  11.088   6.789 -0.0316 -0.2335 -0.0854
  831loPI   C4B12628   8.010  11.054   7.176  0.0668  0.0340  0.1578
  832loPI    C112629   8.063  16.286   4.942  0.1901 -0.0258 -0.1369
  832loPI    C212630   8.154  15.986   4.694  0.0839  0.0151 -0.2263
  832loPI    C312631   8.312  16.349   4.636  0.1092  0.0089 -0.1959
  832loPI   PO412632   8.058  16.175   5.161 -0.0010 -0.0723 -0.1361
  832loPI   GL112633   7.713  16.004   5.421 -0.0759  0.0137 -0.1076
  832loPI   GL212634   7.741  16.373   5.574 -0.0891  0.1646 -0.2451
  832loPI   C1A12635   8.032  15.840   5.746  0.0171  0.3048 -0.0633
  832loPI   C2A12636   8.184  15.734   6.081  0.0967  0.4123  0.1001
  832loPI   C3A12637   8.025  15.656   6.413  0.0182 -0.4336 -0.0331
  832loPI   C4A12638   7.645  15.710   6.434 -0.0067  0.2050  0.0109
  832loPI   C5A12639   7.443  15.585   6.763 -0.0388 -0.2198  0.2257
  832loPI   C6A12640   7.256  15.539   7.193  0.0269 -0.0588 -0.0425
  832loPI   C1B12641   8.030  16.363   5.984 -0.0857  0.0308 -0.0527
  832loPI   C2B12642   8.107  16.137   6.333 -0.3708  0.1666 -0.0454
  832loPI   C3B12643   8.235  16.188   6.793  0.0317 -0.1769 -0.0503
  832loPI   C4B12644   8.549  16.298   7.028 -0.4377  0.0969  0.3130
  833loPI    C112645   1.148  12.853   4.509 -0.1202 -0.0193  0.0058
  833loPI    C212646   1.355  12.572   4.314 -0.0427 -0.0367  0.1122
  833loPI    C312647   1.104  12.810   4.114  0.0152 -0.0726 -0.0043
  833loPI   PO412648   1.027  12.693   4.741 -0.0494 -0.7020  0.1049
  833loPI   GL112649   0.726  12.582   5.094 -0.0691  0.1153  0.0431
  833loPI   GL212650   0.473  12.727   5.085  0.4327 -0.3311 -0.4141
  833loPI   C1A12651   0.622  12.409   5.491 -0.2186  0.1588  0.0278
  833loPI   C2A12652   0.578  12.433   5.943  0.0478 -0.2721  0.2325
  833loPI   C3A12653   0.446  12.276   6.408  0.0851  0.2479  0.0386
  833loPI   C4A12654   0.632  12.328   6.866 -0.0284  0.0801 -0.1601
  833loPI   C5A12655   0.400  12.441   7.255 -0.2642  0.5163 -0.0949
  833loPI   C6A12656   0.475  12.803   7.549  0.0294 -0.1660  0.1266
  833loPI   C1B12657   0.325  12.763   5.564 -0.3331 -0.0158 -0.1593
  833loPI   C2B12658   0.244  12.900   5.962 -0.3067  0.1200 -0.0176
  833loPI   C3B12659   0.444  12.788   6.319 -0.1504 -0.1017  0.0636
  833loPI   C4B12660   0.615  12.797   6.637 -0.1387 -0.1483 -0.0083
  834loPI    C112661  16.982  14.933   5.008 -0.1018  0.1954  0.0317
  834loPI    C212662  16.606  15.037   4.921 -0.0048  0.3517 -0.2082
  834loPI    C312663  16.883  15.029   4.633  0.0452 -0.3548 -0.1573
  834loPI   PO412664  17.023  14.757   5.299 -0.1414 -0.1063  0.0208
  834loPI   GL112665  16.933  14.626   5.665  0.2046 -0.0280 -0.0680
  834loPI   GL212666  16.863  14.928   5.805 -0.3208  0.2102  0.1860
  834loPI   C1A12667  16.894  14.244   5.825  0.0280 -0.0196  0.1878
  834loPI   C2A12668  16.924  14.068   6.127  0.0374  0.1675  0.1234
  834loPI   C3A12669  17.037  13.985   6.548 -0.1223  0.1723 -0.0551
  834loPI   C4A12670  16.973  13.839   6.927  0.0567 -0.1474  0.0452
  834loPI   C5A12671  16.744  13.647   7.260 -0.3359 -0.1011  0.1359
  834loPI   C6A12672  16.411  13.799   7.476  0.2626  0.4199  0.0290
  834loPI   C1B12673  16.953  14.664   6.218 -0.1508  0.2142  0.1645
  834loPI   C2B12674  16.990  14.639   6.682  0.2041  0.2771 -0.4284
  834loPI   C3B12675  17.089  14.534   7.101 -0.1045 -0.1085  0.0095
  834loPI   C4B12676  17.296  14.474   7.520 -0.0609 -0.1446 -0.0047
  835loPI    C112677   9.071   8.966   4.784  0.1739  0.0055  0.1020
  835loPI    C212678   8.769   8.812   4.571  0.1176 -0.0535  0.2235
  835loPI    C312679   8.902   9.180   4.492  0.2068 -0.1366 -0.0226
  835loPI   PO412680   9.070   8.889   5.078 -0.1584 -0.0459  0.2306
  835loPI   GL112681   9.147   8.571   5.332  0.1778  0.0330  0.1020
  835loPI   GL212682   8.793   8.574   5.476  0.2089  0.2268 -0.2053
  835loPI   C1A12683   9.181   8.562   5.839  0.0467 -0.2256  0.1552
  835loPI   C2A12684   9.009   8.574   6.298  0.1727 -0.3644  0.1304
  835loPI   C3A12685   8.756   8.618   6.698 -0.0411  0.0554  0.3522
  835loPI   C4A12686   8.755   8.392   7.049  0.1597  0.0505  0.0428
  835loPI   C5A12687   9.079   8.383   7.285 -0.0561  0.0389  0.1413
  835loPI   C6A12688   9.451   8.026   7.444 -0.0509  0.0065  0.2078
  835loPI   C1B12689   8.668   8.322   5.907  0.1444 -0.1897  0.4114
  835loPI   C2B12690   8.464   8.358   6.351 -0.0455 -0.2138 -0.0939
  835loPI   C3B12691   8.295   8.378   6.794  0.0656  0.1698  0.1871
  835loPI   C4B12692   8.205   8.474   7.243 -0.0792 -0.2882  0.1536
  836loPI    C112693  13.097   4.957   5.724  0.0827  0.0727 -0.1208
  836loPI    C212694  13.107   4.760   5.376  0.1579  0.0314 -0.0954
  836loPI    C312695  13.032   5.153   5.381 -0.0618 -0.0088 -0.1407
  836loPI   PO412696  13.194   4.818   5.866 -0.0226  0.1502 -0.2178
  836loPI   GL112697  13.145   4.612   6.200  0.4961  0.2687  0.2004
  836loPI   GL212698  13.515   4.531   6.341  0.0345 -0.0831  0.1473
  836loPI   C1A12699  13.059   4.682   6.611 -0.3987 -0.3072 -0.5219
  836loPI   C2A12700  13.022   4.825   6.981  0.3308 -0.0965 -0.1163
  836loPI   C3A12701  13.203   4.805   7.332 -0.0629  0.0844 -0.0199
  836loPI   C4A12702  13.123   4.576   7.737  0.1601  0.0018  0.1637
  836loPI   C5A12703  13.046   4.328   8.044 -0.2033 -0.0004  0.1241
  836loPI   C6A12704  13.366   4.054   8.387 -0.3791 -0.2169 -0.3512
  836loPI   C1B12705  13.789   4.355   6.710 -0.1055  0.0730  0.1001
  836loPI   C2B12706  14.090   4.361   7.122  0.0478 -0.0318 -0.0833
  836loPI   C3B12707  14.412   4.178   7.445 -0.2074  0.1250  0.0105
  836loPI   C4B12708  14.512   3.782   7.672 -0.1040  0.1185  0.0837
  837loPI    C112709  11.372   0.409   5.138 -0.1375 -0.1273 -0.0546
  837loPI    C212710  10.983   0.499   5.171 -0.0666  0.2223 -0.1336
  837loPI    C312711  11.184   0.596   4.838  0.0920  0.0534 -0.0889
  837loPI   PO412712  11.482   0.133   5.349 -0.0703 -0.2281  0.3084
  837loPI   GL112713  11.423  -0.211   5.703 -0.0102 -0.2772 -0.4689
  837loPI   GL212714  11.083  -0.165   5.636  0.2048 -0.0478  0.0653
  837loPI   C1A12715  11.247  -0.214   6.135 -0.0346  0.1381 -0.2555
  837loPI   C2A12716  11.088  -0.273   6.565  0.2530 -0.0752 -0.0981
  837loPI   C3A12717  10.992  -0.226   6.987 -0.0913 -0.0565 -0.1125
  837loPI   C4A12718  10.925  -0.243   7.335  0.2585 -0.0118 -0.0869
  837loPI   C5A12719  11.100  -0.111   7.793 -0.1995  0.0733  0.3305
  837loPI   C6A12720  11.437  -0.173   8.107 -0.0167  0.3068 -0.0717
  837loPI   C1B12721  10.790  -0.309   6.041 -0.2747  0.3044 -0.1426
  837loPI   C2B12722  10.685  -0.562   6.423  0.0437 -0.0910  0.0105
  837loPI   C3B12723  10.835  -0.631   6.788  0.1212  0.5807 -0.0596
  837loPI   C4B12724  10.733  -0.690   7.180  0.0111  0.3186 -0.1134
  838loPI    C112725   7.603   4.629   4.908 -0.0407  0.0564  0.0546
  838loPI    C212726   7.370   4.363   4.721 -0.0163 -0.0876  0.2260
  838loPI    C312727   7.468   4.705   4.539 -0.0345 -0.2019 -0.0031
  838loPI   PO412728   7.619   4.554   5.146 -0.0381  0.1640  0.0349
  838loPI   GL112729   7.507   4.555   5.543 -0.0432  0.1480  0.1933
  838loPI   GL212730   7.678   4.848   5.670 -0.0252  0.1517 -0.1673
  838loPI   C1A12731   7.420   4.319   5.927 -0.2735  0.1845 -0.2878
  838loPI   C2A12732   7.206   4.317   6.288  0.0527  0.2086  0.0549
  838loPI   C3A12733   7.106   4.093   6.637  0.3009  0.0055 -0.1939
  838loPI   C4A12734   7.064   4.271   6.883 -0.1698 -0.1738 -0.0843
  838loPI   C5A12735   7.057   4.202   7.297  0.1395  0.0436  0.0561
  838loPI   C6A12736   6.910   3.937   7.722 -0.3391  0.0042  0.2731
  838loPI   C1B12737   7.532   4.769   6.039  0.1024 -0.2647 -0.0450
  838loPI   C2B12738   7.541   4.680   6.440 -0.1130  0.0015  0.0906
  838loPI   C3B12739   7.553   4.586   6.871  0.1421  0.1072  0.2114
  838loPI   C4B12740   7.581   4.424   7.248  0.2079  0.1470  0.2343
  839loPI    C112741   9.050   5.322   5.163  0.1980 -0.0415  0.1376
  839loPI    C212742   8.747   5.102   5.022  0.2190  0.1414 -0.2032
  839loPI    C312743   9.015   5.258   4.769  0.4654  0.1773  0.0753
  839loPI   PO412744   9.002   5.307   5.393 -0.3883  0.0664  0.0533
  839loPI   GL112745   8.836   5.543   5.690 -0.2410  0.4290  0.0971
  839loPI   GL212746   9.005   5.674   5.875 -0.1230 -0.1380 -0.2122
  839loPI   C1A12747   8.688   5.299   6.013 -0.1172  0.3015 -0.0917
  839loPI   C2A12748   8.863   5.261   6.527  0.3430  0.2201 -0.2312
  839loPI   C3A12749   8.844   4.974   6.877  0.0297  0.2888 -0.2592
  839loPI   C4A12750   8.750   4.941   7.239  0.0835 -0.2182 -0.1757
  839loPI   C5A12751   8.401   4.836   7.459  0.1505  0.0777 -0.0788
  839loPI   C6A12752   8.413   4.896   7.891 -0.3984  0.1423  0.0948
  839loPI   C1B12753   8.819   5.690   6.291 -0.1898 -0.0903  0.2980
  839loPI   C2B12754   8.615   5.659   6.699 -0.0290  0.1166 -0.0354
  839loPI   C3B12755   8.335   5.767   7.034 -0.0932  0.1174  0.1371
  839loPI   C4B12756   8.099   5.724   7.478  0.0105 -0.0038 -0.0417
  840loPI    C112757  11.655   9.836   5.161 -0.2328  0.0258 -0.0578
  840loPI    C212758  11.284   9.960   5.081 -0.1653  0.0295 -0.3799
  840loPI    C312759  11.476   9.723   4.822 -0.0687 -0.2577 -0.0540
  840loPI   PO412760  11.685   9.780   5.353 -0.3951  0.1909  0.0840
  840loPI   GL112761  11.692  10.000   5.681  0.2610  0.0191 -0.0953
  840loPI   GL212762  11.855  10.168   5.793  0.0268 -0.2361 -0.0736
  840loPI   C1A12763  11.294  10.163   6.007  0.0821 -0.0676 -0.3339
  840loPI   C2A12764  11.057  10.289   6.323 -0.0747  0.4955 -0.1350
  840loPI   C3A12765  10.838  10.188   6.659 -0.0044  0.0779 -0.1744
  840loPI   C4A12766  10.456  10.273   6.810 -0.2221  0.1211 -0.0068
  840loPI   C5A12767  10.353  10.363   7.315 -0.0048 -0.1782  0.2033
  840loPI   C6A12768  10.256  10.691   7.564  0.0401 -0.0242  0.0849
  840loPI   C1B12769  11.789  10.178   6.198 -0.0229 -0.2680 -0.4558
  840loPI   C2B12770  11.666  10.396   6.448 -0.0811  0.0453  0.0414
  840loPI   C3B12771  11.432  10.656   6.525 -0.5109  0.1562 -0.3752
  840loPI   C4B12772  11.552  10.784   6.887  0.0412 -0.1150  0.0595
  841loPI    C112773   1.722  18.770   4.654 -0.0212 -0.1720 -0.1636
  841loPI    C212774   1.894  18.410   4.647  0.1045 -0.1143 -0.0789
  841loPI    C312775   1.784  18.585   4.305 -0.0961 -0.2980 -0.1109
  841loPI   PO412776   1.519  18.681   4.972 -0.2068 -0.2102 -0.0979
  841loPI   GL112777   1.566  18.827   5.431 -0.1461  0.0984 -0.3558
  841loPI   GL212778   1.304  18.584   5.448  0.1948 -0.3622  0.2166
  841loPI   C1A12779   1.619  18.691   5.889 -0.0410 -0.0234 -0.0072
  841loPI   C2A12780   1.544  18.705   6.357 -0.2708 -0.1082 -0.0604
  841loPI   C3A12781   1.649  18.567   6.799  0.0979  0.0475  0.1971
  841loPI   C4A12782   1.528  18.631   7.034 -0.2699  0.0417  0.2206
  841loPI   C5A12783   1.507  18.399   7.428  0.0421 -0.0919  0.2610
  841loPI   C6A12784   1.714  18.213   7.774  0.1354 -0.2754  0.0348
  841loPI   C1B12785   1.123  18.619   5.871  0.3809 -0.1900 -0.0557
  841loPI   C2B12786   1.063  18.558   6.361 -0.1032  0.0736  0.1244
  841loPI   C3B12787   1.132  18.475   6.814 -0.1698  0.1978 -0.1157
  841loPI   C4B12788   1.064  18.259   7.227  0.0335  0.1216 -0.3203
  842loPI    C112789  14.510   5.656   5.411  0.0199  0.1443  0.1541
  842loPI    C212790  14.271   5.377   5.253 -0.0072  0.1328  0.2157
  842loPI    C312791  14.375   5.356   5.639  0.2847  0.0056  0.1324
  842loPI   PO412792  14.419   5.968   5.434  0.0849 -0.1141 -0.2662
  842loPI   GL112793  14.534   6.303   5.776 -0.0613 -0.0099 -0.1508
  842loPI   GL212794  14.252   6.263   5.835  0.1403  0.0287  0.0662
  842loPI   C1A12795  14.653   6.595   6.047  0.1527  0.1851  0.1694
  842loPI   C2A12796  14.683   6.789   6.367 -0.0240 -0.0630 -0.0622
  842loPI   C3A12797  14.898   7.061   6.537 -0.2758 -0.0637 -0.1873
  842loPI   C4A12798  14.690   7.253   6.913 -0.2763  0.1409  0.0610
  842loPI   C5A12799  14.423   7.383   7.289 -0.2823 -0.4122 -0.2757
  842loPI   C6A12800  14.156   7.595   7.482  0.0402 -0.1522 -0.1324
  842loPI   C1B12801  14.156   6.537   6.138 -0.0358 -0.0501  0.1428
  842loPI   C2B12802  14.083   6.679   6.545  0.0303  0.1253 -0.0930
  842loPI   C3B12803  14.047   6.555   7.021  0.2770 -0.2401  0.1213
  842loPI   C4B12804  13.928   6.657   7.504  0.1513  0.2279 -0.1725
  843loPI    C112805  14.635  10.285   5.122  0.1429 -0.1577 -0.3421
  843loPI    C212806  14.842  10.167   5.444  0.0515  0.1222 -0.1776
  843loPI    C312807  15.009  10.147   5.081  0.2295 -0.0039 -0.0903
  843loPI   PO412808  14.559  10.523   5.173  0.0712 -0.1930  0.1024
  843loPI   GL112809  14.356  10.817   5.544 -0.0057 -0.4176  0.1398
  843loPI   GL212810  14.049  10.757   5.620  0.0913 -0.0420  0.3460
  843loPI   C1A12811  14.459  10.634   5.979  0.0981  0.1560  0.0127
  843loPI   C2A12812  14.281  10.436   6.356 -0.2589 -0.0444  0.2531
  843loPI   C3A12813  14.383  10.367   6.829  0.0935 -0.1960  0.1880
  843loPI   C4A12814  14.327  10.338   7.262 -0.2978 -0.0202  0.1000
  843loPI   C5A12815  14.596  10.227   7.639  0.1998 -0.0700  0.1991
  843loPI   C6A12816  14.686   9.799   7.804 -0.0146  0.2203  0.1116
  843loPI   C1B12817  13.943  10.702   5.984  0.0895  0.2588 -0.1607
  843loPI   C2B12818  13.889  10.771   6.339 -0.2367  0.1249  0.1467
  843loPI   C3B12819  14.043  10.817   6.731  0.1174 -0.3614 -0.2216
  843loPI   C4B12820  14.186  10.848   7.142  0.0325 -0.1505 -0.2009
  844loPI    C112821  10.994  15.439   5.125  0.0275  0.2344 -0.0826
  844loPI    C212822  10.641  15.312   4.986 -0.0106  0.1679  0.0732
  844loPI    C312823  10.885  15.523   4.749 -0.0372 -0.0170 -0.1216
  844loPI   PO412824  11.056  15.176   5.208 -0.1361  0.1593  0.4184
  844loPI   GL112825  11.130  15.206   5.556 -0.1651 -0.0494 -0.0683
  844loPI   GL212826  11.347  14.919   5.636  0.1449 -0.0712  0.1231
  844loPI   C1A12827  11.040  15.458   5.894 -0.3068 -0.0330 -0.0786
  844loPI   C2A12828  10.843  15.241   6.298  0.0059 -0.3094 -0.0895
  844loPI   C3A12829  10.424  15.225   6.509  0.1870  0.2444 -0.1052
  844loPI   C4A12830  10.236  15.025   6.811 -0.5958  0.2971 -0.3634
  844loPI   C5A12831   9.867  14.767   6.850 -0.2140  0.0977 -0.2349
  844loPI   C6A12832   9.400  14.699   6.895  0.1431  0.1047  0.1509
  844loPI   C1B12833  11.137  14.932   5.997 -0.2038  0.0437 -0.2798
  844loPI   C2B12834  11.290  15.003   6.440  0.3395  0.1088  0.1286
  844loPI   C3B12835  11.258  14.982   6.846  0.1123 -0.0780 -0.3470
  844loPI   C4B12836  11.575  15.066   7.164 -0.2922 -0.1246  0.0465
  845loPI    C112837   7.499   1.006   5.119  0.0148  0.2712  0.1593
  845loPI    C212838   7.196   1.235   4.992 -0.1012  0.0116 -0.0430
  845loPI    C312839   7.567   1.301   4.856 -0.1398  0.0567 -0.1271
  845loPI   PO412840   7.604   1.032   5.367  0.1507 -0.0970 -0.0507
  845loPI   GL112841   7.612   1.196   5.738  0.1127  0.1010 -0.0929
  845loPI   GL212842   7.698   1.510   5.797 -0.0512 -0.1421 -0.0263
  845loPI   C1A12843   7.557   1.140   6.152 -0.2228  0.2826 -0.1699
  845loPI   C2A12844   7.609   1.271   6.483  0.3581 -0.0036  0.2365
  845loPI   C3A12845   7.345   1.460   6.760  0.1610  0.1854 -0.3397
  845loPI   C4A12846   7.269   1.509   7.144  0.0690 -0.0180 -0.4327
  845loPI   C5A12847   7.348   1.076   7.467  0.0045 -0.1970 -0.1522
  845loPI   C6A12848   7.307   0.662   7.504  0.0564 -0.2361  0.0567
  845loPI   C1B12849   7.727   1.682   6.209 -0.1792 -0.2241 -0.0835
  845loPI   C2B12850   7.690   1.798   6.594 -0.0353  0.0089  0.1256
  845loPI   C3B12851   7.534   1.930   6.928 -0.0883  0.0215 -0.0540
  845loPI   C4B12852   7.605   1.811   7.360  0.4400  0.0762  0.1054
  846loPI    C112853   8.205  12.266   4.809 -0.0613 -0.0583 -0.1332
  846loPI    C212854   7.825  12.381   4.763 -0.0935 -0.1777 -0.1710
  846loPI    C312855   8.112  12.542   4.535 -0.0496  0.2676  0.1854
  846loPI   PO412856   8.139  12.028   4.880 -0.2470 -0.1167 -0.2984
  846loPI   GL112857   8.078  11.948   5.243 -0.3222 -0.3078  0.2500
  846loPI   GL212858   7.941  11.688   5.424  0.1501 -0.0300 -0.1220
  846loPI   C1A12859   8.177  12.059   5.693 -0.1984 -0.2512  0.0012
  846loPI   C2A12860   8.082  12.015   6.156  0.0405  0.0267  0.2098
  846loPI   C3A12861   8.116  12.184   6.671 -0.0706  0.2710 -0.0835
  846loPI   C4A12862   8.246  11.984   7.045 -0.0344  0.0885 -0.0888
  846loPI   C5A12863   8.151  12.133   7.474  0.1004  0.1116  0.0814
  846loPI   C6A12864   7.846  12.186   7.666 -0.1338 -0.2586 -0.0713
  846loPI   C1B12865   8.048  11.561   5.829  0.0409  0.0625 -0.2118
  846loPI   C2B12866   8.093  11.536   6.315 -0.0994 -0.2969 -0.3540
  846loPI   C3B12867   8.183  11.616   6.781  0.2739  0.1714 -0.1098
  846loPI   C4B12868   8.106  11.557   7.224  0.1617 -0.1472 -0.0233
  847loPI    C112869  18.091   1.275   4.604 -0.0800  0.1960  0.0368
  847loPI    C212870  17.773   1.458   4.445 -0.1012 -0.0216 -0.1777
  847loPI    C312871  17.899   1.110   4.294  0.1568 -0.0053 -0.0060
  847loPI   PO412872  18.056   1.220   4.825  0.2121  0.1638  0.0459
  847loPI   GL112873  18.083   1.335   5.279 -0.0038  0.1643 -0.2704
  847loPI   GL212874  17.974   1.649   5.298  0.0028  0.1264  0.0060
  847loPI   C1A12875  18.093   1.199   5.588 -0.1373 -0.3895  0.2260
  847loPI   C2A12876  18.051   1.199   6.043 -0.1946 -0.1513  0.3175
  847loPI   C3A12877  18.278   1.322   6.512  0.1711 -0.4241  0.2177
  847loPI   C4A12878  18.365   1.301   6.943 -0.1120 -0.2632 -0.1165
  847loPI   C5A12879  18.474   1.107   7.296 -0.2289  0.4976  0.1431
  847loPI   C6A12880  18.276   0.896   7.624 -0.4566  0.2900  0.0345
  847loPI   C1B12881  17.828   1.613   5.729 -0.1513 -0.1252 -0.1220
  847loPI   C2B12882  17.850   1.670   6.255 -0.2048  0.0538 -0.0871
  847loPI   C3B12883  17.965   1.663   6.619  0.0392  0.0714  0.0588
  847loPI   C4B12884  18.154   1.777   6.979  0.0455  0.1483  0.1716
  848loPI    C112885   1.553  14.040   4.553  0.0661  0.0940  0.1094
  848loPI    C212886   1.917  14.052   4.387 -0.0243 -0.0119 -0.1008
  848loPI    C312887   1.697  14.385   4.411  0.0438  0.0312 -0.0689
  848loPI   PO412888   1.648  13.884   4.880  0.3502  0.0373  0.0946
  848loPI   GL112889   1.823  13.750   5.180 -0.2293 -0.1814  0.3475
  848loPI   GL212890   2.026  14.023   5.352  0.2041  0.0035  0.1692
  848loPI   C1A12891   1.898  13.382   5.487  0.0305 -0.1008 -0.0796
  848loPI   C2A12892   2.041  13.380   5.873  0.1181 -0.0250  0.1816
  848loPI   C3A12893   2.132  13.466   6.336 -0.0859  0.2624  0.0401
  848loPI   C4A12894   1.815  13.610   6.763 -0.0437  0.0959  0.0688
  848loPI   C5A12895   1.833  13.457   7.242 -0.3829 -0.0173  0.2620
  848loPI   C6A12896   1.538  13.300   7.612 -0.1071 -0.1939 -0.2742
  848loPI   C1B12897   2.139  13.851   5.629  0.1865 -0.0047  0.1020
  848loPI   C2B12898   2.379  13.725   6.025 -0.0592 -0.0727 -0.1376
  848loPI   C3B12899   2.604  13.570   6.385 -0.0638  0.3419 -0.0162
  848loPI   C4B12900   2.710  13.433   6.822  0.2879  0.2474 -0.1597
  849loPI    C112901   1.394  12.357   4.925 -0.1000 -0.0248 -0.0526
  849loPI    C212902   1.475  12.146   4.594 -0.0686 -0.1824  0.0545
  849loPI    C312903   1.363  11.958   4.929 -0.1382 -0.0206  0.1233
  849loPI   PO412904   1.630  12.481   4.980 -0.0360  0.1281 -0.0390
  849loPI   GL112905   1.839  12.627   5.257  0.0992 -0.0431 -0.1701
  849loPI   GL212906   1.592  12.988   5.364 -0.0810  0.0437 -0.2650
  849loPI   C1A12907   2.035  12.532   5.586  0.0537  0.2531 -0.1090
  849loPI   C2A12908   1.965  12.532   6.016 -0.0882 -0.0922  0.0009
  849loPI   C3A12909   1.895  12.313   6.368 -0.1119  0.1156 -0.1672
  849loPI   C4A12910   1.976  12.128   6.693  0.1219  0.1281 -0.0611
  849loPI   C5A12911   1.732  11.991   7.159  0.1024 -0.1703  0.0495
  849loPI   C6A12912   1.830  11.707   7.595  0.0058 -0.1911 -0.1384
  849loPI   C1B12913   1.707  12.998   5.765 -0.0048 -0.0043  0.1702
  849loPI   C2B12914   1.830  13.041   6.132  0.1780 -0.1402 -0.1262
  849loPI   C3B12915   1.978  12.981   6.526 -0.1075 -0.0925 -0.0997
  849loPI   C4B12916   2.177  13.197   6.828  0.2457  0.1606 -0.0696
  850loPI    C112917  13.096  16.677   4.696 -0.0044  0.4099  0.3180
  850loPI    C212918  13.395  16.943   4.707  0.0411  0.3796 -0.0527
  850loPI    C312919  13.060  17.027   4.505  0.0192  0.1923 -0.0964
  850loPI   PO412920  13.215  16.492   4.943  0.1985  0.0245  0.0092
  850loPI   GL112921  13.121  16.434   5.361  0.1999  0.2336 -0.0467
  850loPI   GL212922  13.324  16.514   5.540  0.1047 -0.1286 -0.1630
  850loPI   C1A12923  12.826  16.181   5.737  0.2034  0.4113 -0.0415
  850loPI   C2A12924  12.706  15.912   6.126 -0.2533  0.1065 -0.0354
  850loPI   C3A12925  12.460  15.843   6.518  0.0857 -0.0066 -0.1634
  850loPI   C4A12926  12.663  15.919   6.919 -0.0215 -0.2709 -0.2326
  850loPI   C5A12927  12.909  16.195   7.331  0.0696 -0.1846 -0.0878
  850loPI   C6A12928  12.761  16.657   7.533 -0.4450  0.0350  0.1094
  850loPI   C1B12929  13.231  16.364   5.901  0.2404  0.0807  0.0476
  850loPI   C2B12930  13.167  16.252   6.182  0.1879  0.0686  0.1776
  850loPI   C3B12931  12.795  16.322   6.380  0.0919  0.2400 -0.3192
  850loPI   C4B12932  12.768  16.465   6.854  0.0821  0.0290 -0.1578
  851loPI    C112933  18.567   3.438   4.470 -0.0689 -0.1478  0.2187
  851loPI    C212934  18.665   3.449   4.082 -0.1242  0.0468  0.2086
  851loPI    C312935  18.449   3.145   4.226 -0.0221 -0.0749  0.1076
  851loPI   PO412936  18.733   3.520   4.661  0.2615 -0.2146 -0.0915
  851loPI   GL112937  18.624   3.614   5.089  0.3172  0.0510 -0.0240
  851loPI   GL212938  18.564   3.311   5.126 -0.3275 -0.2203  0.2270
  851loPI   C1A12939  18.500   3.770   5.523  0.0669 -0.1615 -0.0219
  851loPI   C2A12940  18.526   3.810   6.033  0.0672  0.3290 -0.0420
  851loPI   C3A12941  18.379   3.784   6.416  0.0541 -0.0319 -0.0819
  851loPI   C4A12942  18.485   3.662   6.812 -0.0660  0.2711 -0.1703
  851loPI   C5A12943  18.455   3.470   7.166  0.2250  0.0102 -0.0654
  851loPI   C6A12944  18.631   3.320   7.683  0.1985 -0.0529 -0.0898
  851loPI   C1B12945  18.529   3.197   5.572 -0.1838  0.0202  0.3356
  851loPI   C2B12946  18.419   3.129   5.945  0.0072 -0.1408 -0.0177
  851loPI   C3B12947  18.370   3.265   6.367 -0.1319 -0.0386  0.1215
  851loPI   C4B12948  18.298   3.177   6.829 -0.0561 -0.0016  0.1037
  852loPI    C112949   8.762   9.738   4.714  0.0515 -0.1853  0.0681
  852loPI    C212950   8.484   9.929   4.500 -0.0658 -0.0822  0.3085
  852loPI    C312951   8.840   9.846   4.337 -0.1954 -0.1143  0.0360
  852loPI   PO412952   8.568   9.513   4.848  0.0734  0.1248 -0.2178
  852loPI   GL112953   8.511   9.456   5.371 -0.1579  0.1959 -0.0431
  852loPI   GL212954   8.211   9.537   5.508  0.1231 -0.0523  0.3124
  852loPI   C1A12955   8.626   9.621   5.761  0.0633  0.1586 -0.3172
  852loPI   C2A12956   8.655   9.623   6.184  0.0347  0.1966 -0.0883
  852loPI   C3A12957   8.694   9.733   6.501  0.0241  0.2891  0.0399
  852loPI   C4A12958   8.682   9.777   6.900  0.1896  0.0961  0.0140
  852loPI   C5A12959   8.543   9.722   7.330  0.1831  0.0449  0.1132
  852loPI   C6A12960   8.439   9.738   7.698  0.1871  0.0617  0.1867
  852loPI   C1B12961   8.252   9.240   5.890  0.1359 -0.1225  0.0255
  852loPI   C2B12962   8.234   9.469   6.379  0.1444  0.0141  0.2787
  852loPI   C3B12963   8.213   9.436   6.821 -0.0470 -0.1264  0.0113
  852loPI   C4B12964   8.066   9.496   7.181  0.0803  0.1016  0.3200
  853loPI    C112965   1.539   1.891   5.120  0.0478 -0.3080  0.2262
  853loPI    C212966   1.754   1.836   4.788  0.0747 -0.1289  0.2132
  853loPI    C312967   1.386   1.990   4.764  0.0345 -0.2172  0.2571
  853loPI   PO412968   1.656   1.681   5.320 -0.1895  0.2488 -0.0674
  853loPI   GL112969   1.588   1.490   5.650  0.0017  0.1646 -0.0414
  853loPI   GL212970   1.528   1.274   5.864 -0.0760 -0.1016  0.0156
  853loPI   C1A12971   1.829   1.596   6.061  0.0455  0.1073 -0.0767
  853loPI   C2A12972   1.987   1.616   6.453  0.0052  0.1641 -0.2984
  853loPI   C3A12973   1.812   1.706   6.943  0.0989 -0.0374 -0.2387
  853loPI   C4A12974   1.716   1.432   7.304  0.0654 -0.1843  0.0713
  853loPI   C5A12975   1.588   1.147   7.673 -0.2739 -0.0552  0.2865
  853loPI   C6A12976   1.549   1.211   8.101 -0.1840  0.2073  0.3455
  853loPI   C1B12977   1.458   1.132   6.218 -0.0432 -0.0691 -0.1671
  853loPI   C2B12978   1.288   1.018   6.637  0.3356  0.0576  0.0909
  853loPI   C3B12979   1.221   0.902   6.995 -0.2383  0.1387  0.0555
  853loPI   C4B12980   0.892   0.922   7.246  0.1583 -0.4412  0.0778
  854loPI    C112981   2.771  13.391   4.379 -0.1272 -0.0367 -0.2646
  854loPI    C212982   2.985  13.473   4.052  0.0612 -0.2749 -0.2042
  854loPI    C312983   2.586  13.503   4.043  0.0881  0.0946 -0.3411
  854loPI   PO412984   2.939  13.273   4.575 -0.2129  0.0378  0.0439
  854loPI   GL112985   2.943  13.343   5.063  0.1790  0.3175  0.0702
  854loPI   GL212986   3.018  13.650   5.165 -0.0612  0.0018 -0.1809
  854loPI   C1A12987   3.217  13.153   5.407 -0.0487  0.1014 -0.0487
  854loPI   C2A12988   3.295  13.126   5.879 -0.2030 -0.2816 -0.0061
  854loPI   C3A12989   3.400  13.130   6.293  0.2620 -0.1554  0.0364
  854loPI   C4A12990   3.453  13.403   6.685 -0.3509  0.0729  0.0008
  854loPI   C5A12991   3.310  13.470   7.106 -0.2638 -0.2343 -0.1946
  854loPI   C6A12992   3.231  13.431   7.412  0.1557  0.1956  0.1472
  854loPI   C1B12993   3.112  13.587   5.551  0.2233 -0.4527 -0.0975
  854loPI   C2B12994   3.012  13.559   6.014  0.0996  0.0662  0.1992
  854loPI   C3B12995   3.080  13.675   6.434  0.0044 -0.0678 -0.0874
  854loPI   C4B12996   3.303  13.903   6.731 -0.1570 -0.0170 -0.3365
  855loPI    C112997   0.491   1.557   5.256  0.0379  0.0818  0.2527
  855loPI    C212998   0.225   1.847   5.187  0.0296  0.0456  0.1299
  855loPI    C312999   0.102   1.491   5.322  0.0304  0.0714  0.1989
  855loPI   PO413000   0.691   1.714   5.405  0.4534  0.2434 -0.0507
  855loPI   GL113001   0.623   2.129   5.644  0.0604 -0.0460 -0.2377
  855loPI   GL213002   0.377   1.936   5.694 -0.2016 -0.1021  0.1978
  855loPI   C1A13003   0.466   2.406   5.936  0.1437 -0.2831  0.0149
  855loPI   C2A13004   0.174   2.384   6.259 -0.0387  0.0280 -0.0251
  855loPI   C3A13005   0.149   2.463   6.692 -0.2889  0.0317 -0.2946
  855loPI   C4A13006   0.104   2.336   7.152  0.0951  0.3049  0.0690
  855loPI   C5A13007  -0.098   2.166   7.545 -0.0353  0.2523  0.1199
  855loPI   C6A13008  -0.225   1.906   7.934  0.2252 -0.1964  0.1572
  855loPI   C1B13009   0.483   2.006   6.180 -0.1677 -0.4841 -0.1025
  855loPI   C2B13010   0.539   2.138   6.602  0.0802  0.1007 -0.1789
  855loPI   C3B13011   0.663   1.996   6.964 -0.1236  0.0578 -0.1189
  855loPI   C4B13012   0.802   1.761   7.336  0.0932 -0.2423  0.0144
  856loPI    C113013   8.241   0.844   5.374 -0.1546 -0.0788  0.1573
  856loPI    C213014   8.021   0.672   5.088 -0.1354  0.2973 -0.0918
  856loPI    C313015   8.032   1.070   5.119 -0.1210  0.2638  0.4259
  856loPI   PO413016   8.290   0.634   5.553 -0.1156  0.0947 -0.0335
  856loPI   GL113017   8.254   0.492   5.978  0.0005 -0.0570  0.1077
  856loPI   GL213018   7.992   0.787   6.064  0.0380  0.3887  0.2292
  856loPI   C1A13019   8.392   0.473   6.285  0.3219 -0.2744  0.0721
  856loPI   C2A13020   8.333   0.285   6.712  0.1233 -0.2375  0.2113
  856loPI   C3A13021   8.401   0.190   7.182  0.1233  0.0189  0.0972
  856loPI   C4A13022   8.833   0.135   7.425 -0.1464 -0.2927  0.0760
  856loPI   C5A13023   8.834   0.208   7.706  0.3440 -0.1890 -0.2253
  856loPI   C6A13024   8.898   0.364   8.133 -0.4683  0.0610  0.1114
  856loPI   C1B13025   7.736   0.714   6.467 -0.0677 -0.1605 -0.1284
  856loPI   C2B13026   7.916   0.650   6.969  0.2357 -0.1536  0.0407
  856loPI   C3B13027   7.793   0.620   7.490  0.1138  0.0642 -0.1603
  856loPI   C4B13028   7.562   0.817   7.873  0.1131  0.0156  0.0416
  857loPI    C113029   1.934  16.234   4.686  0.3200  0.0551 -0.0443
  857loPI    C213030   1.650  16.332   4.422  0.1603 -0.0728  0.0779
  857loPI    C313031   2.009  16.212   4.294  0.1689  0.1135 -0.0772
  857loPI   PO413032   1.731  16.296   4.968 -0.1104  0.0404 -0.0019
  857loPI   GL113033   1.856  16.051   5.285 -0.0516  0.2070  0.1439
  857loPI   GL213034   1.844  15.782   5.535  0.1048  0.0448 -0.0798
  857loPI   C1A13035   1.958  16.198   5.738  0.0908 -0.1026 -0.0106
  857loPI   C2A13036   2.051  16.142   6.186  0.0949  0.1662 -0.0426
  857loPI   C3A13037   1.998  16.161   6.653  0.0091 -0.1465 -0.0173
  857loPI   C4A13038   1.833  16.172   7.095 -0.0216 -0.2043  0.0534
  857loPI   C5A13039   1.769  16.481   7.355  0.0435 -0.0039 -0.0707
  857loPI   C6A13040   1.473  16.673   7.519 -0.4135  0.1912 -0.1661
  857loPI   C1B13041   2.094  15.496   5.835  0.0385  0.2142  0.2298
  857loPI   C2B13042   2.212  15.660   6.203 -0.2650  0.0303  0.0874
  857loPI   C3B13043   2.191  15.723   6.622 -0.1907 -0.0576 -0.0768
  857loPI   C4B13044   2.134  15.738   6.964 -0.1542  0.2436 -0.0738
  858loPI    C113045   5.399  18.278   5.267  0.0457 -0.0160 -0.0713
  858loPI    C213046   5.057  18.353   5.074  0.0305 -0.0777 -0.0684
  858loPI    C313047   5.384  18.250   4.868  0.0903  0.1397 -0.0843
  858loPI   PO413048   5.412  18.348   5.520 -0.0052 -0.1362  0.1535
  858loPI   GL113049   5.552  18.242   5.862 -0.0413  0.1700 -0.0998
  858loPI   GL213050   5.453  17.919   5.772 -0.0883 -0.1641  0.2371
  858loPI   C1A13051   5.830  18.130   6.288 -0.0684 -0.0830  0.2904
  858loPI   C2A13052   6.103  17.995   6.747 -0.0499  0.4104 -0.0423
  858loPI   C3A13053   6.133  18.134   7.150  0.0042 -0.0899  0.2676
  858loPI   C4A13054   6.309  18.096   7.542  0.2667 -0.0052  0.0949
  858loPI   C5A13055   6.296  17.703   7.750 -0.1785  0.1243  0.1863
  858loPI   C6A13056   6.323  17.749   8.143  0.2667 -0.1655  0.4247
  858loPI   C1B13057   5.555  17.744   6.120  0.0284  0.1262  0.2004
  858loPI   C2B13058   5.675  17.779   6.599 -0.1104 -0.0730  0.1747
  858loPI   C3B13059   5.797  17.742   7.035  0.0209  0.0885  0.1314
  858loPI   C4B13060   5.944  17.696   7.436  0.2400 -0.0475 -0.0064
  859loPI    C113061   3.463  11.614   4.367 -0.1668 -0.0945 -0.3484
  859loPI    C213062   3.806  11.804   4.288 -0.1827  0.0240 -0.1404
  859loPI    C313063   3.759  11.422   4.178 -0.0379  0.0495 -0.2954
  859loPI   PO413064   3.442  11.738   4.606 -0.0477  0.0198  0.0487
  859loPI   GL113065   3.278  11.652   4.999  0.0566 -0.0480 -0.1383
  859loPI   GL213066   3.129  11.943   5.150 -0.0121  0.1220 -0.1411
  859loPI   C1A13067   3.588  11.402   5.297  0.1730 -0.0821  0.2075
  859loPI   C2A13068   3.630  11.357   5.741  0.1589 -0.0609 -0.2870
  859loPI   C3A13069   3.668  11.320   6.161  0.4809 -0.1602  0.0193
  859loPI   C4A13070   3.805  11.171   6.640  0.0602 -0.1334 -0.2333
  859loPI   C5A13071   3.938  11.188   6.980  0.0248  0.2619 -0.1310
  859loPI   C6A13072   4.107  11.159   7.413 -0.0539 -0.0010 -0.0142
  859loPI   C1B13073   3.353  11.846   5.474  0.3659 -0.1562 -0.1452
  859loPI   C2B13074   3.470  11.888   5.916  0.1147  0.1923 -0.2493
  859loPI   C3B13075   3.445  11.914   6.469 -0.2070 -0.2235 -0.1752
  859loPI   C4B13076   3.674  11.898   6.866  0.1517 -0.0474  0.0931
  860loPI    C113077   4.243   5.776   5.246  0.0451  0.0922  0.0727
  860loPI    C213078   4.452   5.822   4.909  0.2804 -0.1535  0.1815
  860loPI    C313079   4.057   5.881   4.908  0.3091  0.0553 -0.0871
  860loPI   PO413080   4.397   5.615   5.425 -0.3489  0.1153  0.1028
  860loPI   GL113081   4.254   5.624   5.857 -0.1194  0.3210  0.1252
  860loPI   GL213082   4.456   5.337   5.947  0.1489 -0.0594  0.1241
  860loPI   C1A13083   4.019   5.650   6.248 -0.1764  0.0685 -0.2556
  860loPI   C2A13084   3.596   5.482   6.431  0.2146  0.1147 -0.0971
  860loPI   C3A13085   3.483   5.095   6.677  0.1288  0.0356 -0.0390
  860loPI   C4A13086   3.252   5.164   7.000  0.1349 -0.0440 -0.1128
  860loPI   C5A13087   3.016   5.321   7.335  0.2533 -0.3852  0.4033
  860loPI   C6A13088   2.707   5.563   7.405 -0.0222  0.4132  0.2267
  860loPI   C1B13089   4.501   5.483   6.430 -0.0025  0.1616 -0.0154
  860loPI   C2B13090   4.487   5.521   6.835  0.0229  0.0980 -0.0487
  860loPI   C3B13091   4.522   5.335   7.244  0.0779 -0.0023 -0.0276
  860loPI   C4B13092   4.363   5.016   7.565 -0.4293  0.0957  0.1632
  861loPI    C113093   8.375  14.772   4.582  0.0182 -0.1435  0.3715
  861loPI    C213094   8.256  14.409   4.464  0.0298 -0.0036 -0.0912
  861loPI    C313095   8.645  14.483   4.522  0.0045 -0.1374  0.2796
  861loPI   PO413096   8.175  14.767   4.818  0.1131 -0.0046  0.0575
  861loPI   GL113097   8.071  15.111   5.135 -0.3332  0.0325 -0.0552
  861loPI   GL213098   8.380  14.961   5.265 -0.0807  0.1772  0.1962
  861loPI   C1A13099   7.838  14.953   5.517 -0.4788 -0.0191 -0.0429
  861loPI   C2A13100   7.936  14.809   5.938 -0.3436 -0.2767  0.0117
  861loPI   C3A13101   7.991  14.753   6.359  0.0486  0.0624  0.1358
  861loPI   C4A13102   8.048  14.651   6.867  0.0048  0.2704  0.0012
  861loPI   C5A13103   7.928  14.789   7.186  0.0537 -0.0226 -0.0510
  861loPI   C6A13104   7.775  14.841   7.644 -0.3136  0.1508 -0.2483
  861loPI   C1B13105   8.462  14.844   5.702 -0.0317 -0.2478  0.3864
  861loPI   C2B13106   8.529  14.757   6.129  0.0194 -0.0807  0.0209
  861loPI   C3B13107   8.480  14.756   6.511  0.4254 -0.2304 -0.0501
  861loPI   C4B13108   8.504  14.470   6.906 -0.1895 -0.2397  0.0445
  862loPI    C113109  16.217  12.089   5.082  0.1025  0.1846  0.0420
  862loPI    C213110  15.885  12.083   5.305 -0.0410 -0.2557 -0.1705
  862loPI    C313111  15.865  12.185   4.919  0.0956 -0.1511 -0.1508
  862loPI   PO413112  16.393  12.109   5.264 -0.2848  0.0268 -0.0262
  862loPI   GL113113  16.305  12.138   5.649  0.0118  0.0143 -0.0880
  862loPI   GL213114  16.620  11.960   5.675 -0.0284  0.0928 -0.0665
  862loPI   C1A13115  16.309  12.305   6.185 -0.1677 -0.0159  0.0347
  862loPI   C2A13116  16.344  12.288   6.627  0.2610 -0.0786 -0.1026
  862loPI   C3A13117  16.410  12.449   7.129  0.1164 -0.0531  0.0576
  862loPI   C4A13118  16.145  12.645   7.408 -0.1796 -0.1660 -0.2257
  862loPI   C5A13119  16.114  12.775   7.799 -0.0814  0.2868  0.0860
  862loPI   C6A13120  15.962  13.130   8.042  0.2448 -0.0469 -0.0396
  862loPI   C1B13121  16.645  11.910   6.117  0.1593  0.2297 -0.0057
  862loPI   C2B13122  16.576  11.833   6.581 -0.1263 -0.0635 -0.0591
  862loPI   C3B13123  16.442  11.918   6.987 -0.1150  0.0125 -0.0863
  862loPI   C4B13124  16.713  12.102   7.311  0.1928 -0.2723  0.0090
  863loPI    C113125  17.428   7.270   5.191 -0.1862  0.0753  0.2856
  863loPI    C213126  17.254   7.086   4.881  0.0985  0.1506  0.0766
  863loPI    C313127  17.283   7.485   4.886  0.0569  0.1524  0.2221
  863loPI   PO413128  17.534   7.132   5.297 -0.0776 -0.0404 -0.0827
  863loPI   GL113129  17.533   7.085   5.751  0.0726 -0.0110  0.2025
  863loPI   GL213130  17.900   7.131   5.703  0.0871 -0.2271  0.0187
  863loPI   C1A13131  17.784   6.678   5.907 -0.0657  0.1716  0.4160
  863loPI   C2A13132  17.788   6.653   6.340  0.0756  0.0374 -0.0272
  863loPI   C3A13133  17.977   6.717   6.842 -0.2182  0.1067  0.0360
  863loPI   C4A13134  18.105   7.137   7.087 -0.3192  0.0991  0.2873
  863loPI   C5A13135  18.456   7.364   7.134 -0.0114 -0.0229 -0.1641
  863loPI   C6A13136  18.625   7.773   7.208  0.0588  0.0159 -0.2497
  863loPI   C1B13137  17.916   7.146   6.073 -0.3227 -0.0715 -0.0115
  863loPI   C2B13138  17.974   7.157   6.493 -0.0340 -0.0964  0.0821
  863loPI   C3B13139  17.676   7.139   6.821  0.2681  0.1524 -0.0162
  863loPI   C4B13140  17.515   6.930   7.251 -0.1556  0.2689  0.4654
  864loPI    C113141  10.056   6.190   5.261  0.3813  0.0318 -0.3623
  864loPI    C213142  10.132   6.533   5.453  0.1586 -0.0763 -0.0740
  864loPI    C313143   9.960   6.540   5.092 -0.2034  0.1082  0.0973
  864loPI   PO413144   9.962   6.024   5.469  0.0769 -0.0850  0.1021
  864loPI   GL113145   9.933   5.885   5.901 -0.0154  0.0682  0.3070
  864loPI   GL213146  10.045   6.241   5.905  0.1075 -0.0131  0.1411
  864loPI   C1A13147  10.285   5.847   6.211 -0.0795 -0.2735  0.0577
  864loPI   C2A13148  10.150   5.926   6.653 -0.0056  0.3018  0.2119
  864loPI   C3A13149  10.422   5.761   7.068  0.0533  0.0201 -0.2231
  864loPI   C4A13150  10.734   6.010   7.444  0.1350 -0.1549  0.0116
  864loPI   C5A13151  10.582   6.206   7.868 -0.4781  0.1313  0.5822
  864loPI   C6A13152  10.309   6.368   8.183 -0.0627  0.0852  0.0546
  864loPI   C1B13153   9.824   6.205   6.338 -0.1039 -0.3135 -0.0433
  864loPI   C2B13154   9.555   6.249   6.656  0.0028  0.1388 -0.1500
  864loPI   C3B13155   9.453   6.030   7.002  0.3455 -0.2546  0.4327
  864loPI   C4B13156   9.533   5.776   7.292  0.1855  0.1232 -0.1829
  865loPI    C113157  15.182   1.926   4.828 -0.1118 -0.2619 -0.1365
  865loPI    C213158  15.079   1.834   4.453 -0.0295  0.1981 -0.2786
  865loPI    C313159  15.417   2.036   4.524 -0.0006  0.0394  0.0533
  865loPI   PO413160  14.930   1.976   5.020  0.0255  0.2910 -0.0126
  865loPI   GL113161  14.893   1.989   5.433 -0.2236 -0.0603 -0.0957
  865loPI   GL213162  14.717   2.181   5.532 -0.0183 -0.2032  0.1784
  865loPI   C1A13163  14.991   1.664   5.736 -0.2109  0.3271  0.0727
  865loPI   C2A13164  15.271   1.600   6.068 -0.2887 -0.3755  0.1368
  865loPI   C3A13165  15.404   1.510   6.452  0.2320  0.0891 -0.3100
  865loPI   C4A13166  15.606   1.528   6.796 -0.1130 -0.1870 -0.2711
  865loPI   C5A13167  16.040   1.610   6.692  0.1891  0.0138 -0.0780
  865loPI   C6A13168  16.422   1.484   6.894 -0.2832  0.2059 -0.1392
  865loPI   C1B13169  14.900   2.104   5.974 -0.0356  0.1113  0.1185
  865loPI   C2B13170  15.238   2.076   6.172 -0.0891 -0.1605 -0.3153
  865loPI   C3B13171  15.570   1.982   6.520 -0.0955 -0.1874  0.0219
  865loPI   C4B13172  15.747   2.015   6.881  0.2806 -0.0046 -0.1499
  866loPI    C113173   2.753   0.714   4.975  0.2735 -0.0654 -0.0948
  866loPI    C213174   2.693   1.086   4.840 -0.2026  0.0033  0.2779
  866loPI    C313175   2.411   0.807   4.789  0.2332 -0.3732 -0.1811
  866loPI   PO413176   2.797   0.755   5.213 -0.2633 -0.1574  0.1867
  866loPI   GL113177   2.627   0.604   5.606 -0.0121 -0.0520  0.0137
  866loPI   GL213178   2.794   0.553   5.943 -0.1100 -0.3266  0.0050
  866loPI   C1A13179   2.253   0.556   5.891 -0.3369  0.1251  0.0990
  866loPI   C2A13180   2.138   0.670   6.255  0.0128 -0.1054 -0.2620
  866loPI   C3A13181   1.991   0.752   6.746 -0.1870 -0.1824 -0.0162
  866loPI   C4A13182   2.044   0.484   7.101  0.0048  0.0439 -0.0087
  866loPI   C5A13183   2.278   0.551   7.453  0.2603 -0.2144 -0.2390
  866loPI   C6A13184   2.260   0.476   7.854 -0.2133  0.0255  0.1507
  866loPI   C1B13185   2.717   0.383   6.387  0.0204  0.1995 -0.0310
  866loPI   C2B13186   2.815   0.110   6.779 -0.2721  0.1774 -0.0715
  866loPI   C3B13187   2.803  -0.218   7.152 -0.0236 -0.0871 -0.1600
  866loPI   C4B13188   2.882  -0.214   7.522  0.0432 -0.4211  0.0759
  867loPI    C113189   9.009   4.441   4.930  0.1213 -0.0381 -0.2025
  867loPI    C213190   8.645   4.599   4.983  0.2906  0.3285 -0.1051
  867loPI    C313191   8.684   4.239   4.813 -0.1245  0.2174  0.0249
  867loPI   PO413192   9.133   4.447   5.137 -0.0283 -0.1298 -0.0589
  867loPI   GL113193   9.116   4.266   5.635 -0.0559  0.2957  0.2823
  867loPI   GL213194   9.345   4.386   5.787  0.1376  0.1732  0.0033
  867loPI   C1A13195   8.751   4.453   5.783  0.1764 -0.0180 -0.2350
  867loPI   C2A13196   8.378   4.345   6.149  0.0409 -0.3066  0.0751
  867loPI   C3A13197   8.242   4.216   6.502  0.1969  0.1303 -0.2787
  867loPI   C4A13198   8.459   4.063   6.873  0.0554 -0.1715 -0.1453
  867loPI   C5A13199   8.519   4.008   7.320 -0.1816  0.0121 -0.2120
  867loPI   C6A13200   8.205   3.871   7.709  0.1221  0.1670 -0.0972
  867loPI   C1B13201   9.178   4.516   6.102  0.0376  0.1727 -0.2625
  867loPI   C2B13202   9.183   4.830   6.444 -0.1347  0.0074  0.2898
  867loPI   C3B13203   9.209   4.644   6.905 -0.0246 -0.1279  0.1545
  867loPI   C4B13204   9.187   4.517   7.364  0.0889  0.1122 -0.1818
  868loPI    C113205  10.425   7.209   4.928 -0.0530  0.1877  0.1524
  868loPI    C213206  10.220   7.324   4.604  0.0250  0.1275  0.0812
  868loPI    C313207  10.102   7.004   4.812 -0.0766  0.2182  0.1642
  868loPI   PO413208  10.599   7.274   5.022  0.0614  0.3182 -0.0868
  868loPI   GL113209  10.683   7.336   5.461  0.1431  0.0602 -0.0557
  868loPI   GL213210  10.408   7.126   5.619  0.2662 -0.2703  0.2226
  868loPI   C1A13211  10.766   7.516   5.891 -0.0859  0.1370  0.0965
  868loPI   C2A13212  10.855   7.339   6.349 -0.1451  0.0361  0.1980
  868loPI   C3A13213  10.918   7.374   6.794  0.1506  0.0231  0.2401
  868loPI   C4A13214  11.100   7.169   7.084  0.1487  0.1217  0.0219
  868loPI   C5A13215  11.240   7.391   7.428  0.0493  0.0757 -0.2446
  868loPI   C6A13216  11.308   7.216   7.862 -0.3597  0.1940  0.1323
  868loPI   C1B13217  10.713   7.065   5.910  0.2883 -0.1088 -0.1204
  868loPI   C2B13218  10.643   6.936   6.469 -0.2694 -0.1142 -0.0062
  868loPI   C3B13219  10.749   6.855   6.923 -0.3716  0.3524 -0.3027
  868loPI   C4B13220  10.727   6.610   7.352  0.3695 -0.0397  0.1252
  869loPI    C113221   4.231   7.438   4.827  0.1982  0.1536  0.0783
  869loPI    C213222   4.620   7.384   4.753  0.1452  0.0855 -0.1593
  869loPI    C313223   4.346   7.212   4.518 -0.0296  0.0643  0.0568
  869loPI   PO413224   4.277   7.463   5.124  0.0335 -0.1317  0.0112
  869loPI   GL113225   4.402   7.663   5.424  0.1458  0.2267  0.1656
  869loPI   GL213226   4.610   8.029   5.530  0.0564 -0.1206 -0.0856
  869loPI   C1A13227   4.119   7.672   5.868 -0.1271 -0.2051 -0.2109
  869loPI   C2A13228   4.118   7.871   6.301 -0.1823  0.4924 -0.0636
  869loPI   C3A13229   4.224   8.126   6.626  0.1773 -0.0888 -0.2400
  869loPI   C4A13230   4.051   8.209   6.977 -0.1463  0.2235  0.0501
  869loPI   C5A13231   3.979   8.459   7.301 -0.0032 -0.0199 -0.1726
  869loPI   C6A13232   4.043   8.348   7.730  0.0200  0.2804  0.0406
  869loPI   C1B13233   4.744   7.683   5.760  0.0612  0.1253  0.3535
  869loPI   C2B13234   4.926   7.313   5.947 -0.1996 -0.1141 -0.0580
  869loPI   C3B13235   5.138   7.110   6.256  0.0608 -0.1878  0.1237
  869loPI   C4B13236   5.570   6.953   6.305  0.1933 -0.1429  0.0574
  870loPI    C113237  14.241   6.671   5.055  0.0765 -0.0945 -0.1844
  870loPI    C213238  13.934   6.414   5.041 -0.0763  0.0404  0.4221
  870loPI    C313239  14.310   6.277   5.047 -0.1165 -0.1285 -0.2263
  870loPI   PO413240  14.143   6.831   5.272 -0.0636  0.2414 -0.0759
  870loPI   GL113241  14.077   6.692   5.667  0.0700 -0.0642  0.1299
  870loPI   GL213242  14.331   6.813   5.733 -0.2677  0.0628  0.0114
  870loPI   C1A13243  13.808   6.923   5.991  0.2805  0.2265  0.0639
  870loPI   C2A13244  13.825   7.147   6.369 -0.0946  0.2940 -0.0035
  870loPI   C3A13245  13.786   7.054   6.808  0.0875  0.0981  0.2868
  870loPI   C4A13246  13.813   7.003   7.177  0.0486 -0.2523 -0.1063
  870loPI   C5A13247  13.830   7.204   7.471  0.0885  0.1253  0.0765
  870loPI   C6A13248  13.622   7.455   7.910 -0.1853 -0.0306 -0.5677
  870loPI   C1B13249  14.302   7.024   6.153  0.3705 -0.1712 -0.4680
  870loPI   C2B13250  14.278   7.207   6.612 -0.1066 -0.0686  0.0426
  870loPI   C3B13251  14.288   7.013   6.969 -0.0379  0.1566 -0.3190
  870loPI   C4B13252  14.341   6.864   7.315  0.1600 -0.2674  0.2346
  871loPI    C113253   2.672  11.018   4.635  0.2520  0.0645 -0.0228
  871loPI    C213254   2.671  10.723   4.905  0.1744 -0.0874 -0.1869
  871loPI    C313255   2.457  10.687   4.569  0.1262  0.1773 -0.1861
  871loPI   PO413256   2.570  11.235   4.791  0.0960  0.2404 -0.1113
  871loPI   GL113257   2.642  11.324   5.170  0.1220 -0.2914 -0.1724
  871loPI   GL213258   2.607  11.608   5.213  0.1749  0.0882  0.0070
  871loPI   C1A13259   2.580  11.297   5.639  0.2820 -0.1110 -0.3311
  871loPI   C2A13260   2.310  11.423   6.042  0.0102 -0.0864 -0.1372
  871loPI   C3A13261   2.324  11.708   6.386 -0.1861  0.0509  0.0427
  871loPI   C4A13262   2.307  11.768   6.776  0.0691 -0.1046 -0.0274
  871loPI   C5A13263   2.143  11.582   7.094 -0.2774 -0.0576  0.3319
  871loPI   C6A13264   1.937  11.221   7.327 -0.0690 -0.2628  0.1672
  871loPI   C1B13265   2.784  11.751   5.526  0.1131 -0.2850 -0.0354
  871loPI   C2B13266   2.690  11.942   6.054  0.0485 -0.1690 -0.0472
  871loPI   C3B13267   2.842  11.863   6.425  0.0184 -0.1037  0.2115
  871loPI   C4B13268   3.055  11.737   6.840  0.0564  0.0328  0.2937
  872loPI    C113269   8.240   8.678   5.156 -0.0206 -0.1507  0.1788
  872loPI    C213270   8.206   8.387   4.883  0.1782  0.0839 -0.1024
  872loPI    C313271   7.942   8.687   4.890  0.0899  0.0039  0.0584
  872loPI   PO413272   8.275   8.558   5.329  0.0885  0.1099  0.1873
  872loPI   GL113273   8.147   8.431   5.763 -0.0083  0.3333  0.1910
  872loPI   GL213274   7.897   8.550   6.044  0.1713  0.0433  0.0793
  872loPI   C1A13275   8.340   8.738   6.042 -0.1937 -0.1098  0.1009
  872loPI   C2A13276   8.296   8.863   6.552 -0.0312  0.2967 -0.0559
  872loPI   C3A13277   8.300   8.911   6.956 -0.1370  0.1302  0.0427
  872loPI   C4A13278   8.456   9.198   7.357 -0.0562 -0.2324 -0.1197
  872loPI   C5A13279   8.820   9.304   7.680 -0.1249  0.1470 -0.1213
  872loPI   C6A13280   9.126   9.596   7.670 -0.0999  0.3018 -0.0055
  872loPI   C1B13281   7.914   8.520   6.487 -0.0533 -0.1470  0.0052
  872loPI   C2B13282   7.824   8.491   6.955 -0.0271 -0.1712 -0.1842
  872loPI   C3B13283   7.633   8.748   7.401  0.4281  0.1229 -0.1171
  872loPI   C4B13284   7.280   8.921   7.446 -0.1103 -0.0439 -0.2812
  873loPI    C113285  11.893   4.510   5.480 -0.0801 -0.1000  0.4914
  873loPI    C213286  11.836   4.179   5.263  0.0796  0.0766  0.1729
  873loPI    C313287  11.560   4.469   5.261  0.1257  0.1204  0.1258
  873loPI   PO413288  11.940   4.414   5.700 -0.1101 -0.3005  0.0152
  873loPI   GL113289  11.628   4.515   5.982 -0.1045  0.1730 -0.0064
  873loPI   GL213290  11.400   4.279   5.726  0.2157 -0.1849  0.1822
  873loPI   C1A13291  11.654   4.389   6.390 -0.0698 -0.1220  0.1694
  873loPI   C2A13292  11.521   4.542   6.872  0.2630  0.4158 -0.2317
  873loPI   C3A13293  11.393   4.506   7.238  0.1599  0.0294  0.0387
  873loPI   C4A13294  11.345   4.833   7.495  0.0281 -0.1779 -0.2250
  873loPI   C5A13295  11.410   5.214   7.762 -0.2504 -0.0457  0.3017
  873loPI   C6A13296  11.420   5.471   8.091 -0.3109  0.0605 -0.2436
  873loPI   C1B13297  11.257   4.124   6.125  0.2528  0.0817  0.2379
  873loPI   C2B13298  11.197   4.277   6.537  0.1020 -0.3318 -0.0242
  873loPI   C3B13299  11.079   4.156   6.954 -0.1654  0.1108  0.2595
  873loPI   C4B13300  11.298   3.926   7.178 -0.1274 -0.1227 -0.0382
  874loPI    C113301   6.432   1.244   5.369  0.0939  0.0387 -0.0582
  874loPI    C213302   6.813   1.352   5.314  0.0613  0.1524 -0.0635
  874loPI    C313303   6.634   1.109   5.051  0.0673  0.2666 -0.1746
  874loPI   PO413304   6.484   1.075   5.669  0.0161 -0.2120 -0.2590
  874loPI   GL113305   6.647   1.279   5.997  0.1404  0.0925  0.1416
  874loPI   GL213306   6.558   1.521   5.963  0.0057  0.2362 -0.1375
  874loPI   C1A13307   6.651   0.997   6.395 -0.1199 -0.0628 -0.1403
  874loPI   C2A13308   6.536   1.010   6.831 -0.0044 -0.0443  0.0663
  874loPI   C3A13309   6.534   0.992   7.242  0.4024 -0.1494 -0.0241
  874loPI   C4A13310   6.392   0.732   7.438 -0.1168 -0.3573 -0.2864
  874loPI   C5A13311   6.323   0.296   7.707  0.0062  0.3130 -0.0969
  874loPI   C6A13312   6.243  -0.182   7.663 -0.0805 -0.2920  0.1540
  874loPI   C1B13313   6.767   1.657   6.272  0.3887  0.0484  0.2363
  874loPI   C2B13314   6.646   1.872   6.707  0.1756 -0.1920  0.1343
  874loPI   C3B13315   6.521   1.986   7.202  0.2159 -0.0356  0.2789
  874loPI   C4B13316   6.298   2.036   7.540  0.2575  0.0731 -0.1764
  875loPI    C113317   7.337   7.456   4.928 -0.2695 -0.1124 -0.3763
  875loPI    C213318   7.523   7.806   4.872 -0.0232 -0.1736  0.0198
  875loPI    C313319   7.707   7.463   4.777 -0.0440 -0.2211  0.1490
  875loPI   PO413320   7.200   7.582   5.206 -0.1399  0.0211 -0.0279
  875loPI   GL113321   7.268   7.462   5.580 -0.1245  0.0312  0.1897
  875loPI   GL213322   7.460   7.109   5.748  0.2439  0.1083  0.1439
  875loPI   C1A13323   7.587   7.586   5.841 -0.0649  0.1069  0.0023
  875loPI   C2A13324   7.961   7.674   6.095  0.2147 -0.0206  0.1210
  875loPI   C3A13325   8.012   7.515   6.574 -0.0699  0.2386 -0.0469
  875loPI   C4A13326   8.085   7.554   6.976 -0.2517  0.3362  0.0329
  875loPI   C5A13327   8.062   7.687   7.354 -0.1829 -0.0152  0.0133
  875loPI   C6A13328   8.001   8.074   7.419  0.1094 -0.1318  0.0735
  875loPI   C1B13329   7.362   7.178   6.216  0.1516 -0.0162  0.1764
  875loPI   C2B13330   7.232   7.016   6.484 -0.1054  0.0650  0.1737
  875loPI   C3B13331   7.212   7.106   6.850  0.0591  0.0387  0.0754
  875loPI   C4B13332   7.335   7.092   7.372 -0.0008  0.0407 -0.1914
  876loPI    C113333   2.138  14.822   4.939 -0.0328 -0.0338 -0.0991
  876loPI    C213334   1.825  14.762   4.697 -0.1329 -0.0867  0.0422
  876loPI    C313335   2.173  14.578   4.623 -0.1521 -0.0745 -0.0813
  876loPI   PO413336   2.031  15.103   5.046  0.1515  0.3151  0.0871
  876loPI   GL113337   1.878  15.119   5.482 -0.0719  0.1666  0.3615
  876loPI   GL213338   2.022  14.793   5.443  0.1094 -0.1904 -0.1345
  876loPI   C1A13339   1.973  14.979   5.885  0.2142 -0.0933 -0.2552
  876loPI   C2A13340   2.062  14.860   6.373 -0.0572  0.0908  0.0174
  876loPI   C3A13341   1.827  14.783   6.846 -0.2632  0.1912  0.1719
  876loPI   C4A13342   1.722  14.616   7.143  0.0822  0.2317 -0.1483
  876loPI   C5A13343   1.616  14.456   7.523 -0.0429 -0.2307  0.2228
  876loPI   C6A13344   1.653  14.429   7.924 -0.1852  0.0655  0.0769
  876loPI   C1B13345   1.949  14.483   5.701  0.0130  0.1505 -0.0413
  876loPI   C2B13346   1.875  14.481   6.084 -0.1303 -0.1089 -0.0693
  876loPI   C3B13347   1.651  14.507   6.433 -0.0635  0.0796 -0.0786
  876loPI   C4B13348   1.458  14.399   6.746 -0.2248 -0.1894  0.3112
  877loPI    C113349  17.586   6.419   4.635 -0.0331  0.1407  0.0677
  877loPI    C213350  17.481   6.385   4.251  0.0660  0.2983  0.0258
  877loPI    C313351  17.349   6.695   4.467  0.0699  0.2492  0.0990
  877loPI   PO413352  17.500   6.180   4.843  0.2165 -0.0750  0.2463
  877loPI   GL113353  17.467   6.185   5.331  0.0293  0.0249 -0.0299
  877loPI   GL213354  17.803   6.063   5.351  0.0638  0.1009  0.3132
  877loPI   C1A13355  17.119   6.175   5.663  0.1076 -0.2513  0.0097
  877loPI   C2A13356  17.087   5.998   5.955  0.0563  0.2720  0.1561
  877loPI   C3A13357  17.362   5.857   6.322  0.1450  0.0707 -0.3216
  877loPI   C4A13358  17.491   5.899   6.715 -0.1841 -0.1829 -0.1657
  877loPI   C5A13359  17.347   5.927   7.068  0.1153  0.4278  0.0309
  877loPI   C6A13360  17.348   5.838   7.504 -0.1466 -0.3671 -0.0276
  877loPI   C1B13361  17.580   6.128   5.792  0.0696  0.0089  0.2083
  877loPI   C2B13362  17.381   6.376   6.141  0.0696 -0.3478  0.1603
  877loPI   C3B13363  17.262   6.329   6.571  0.0082  0.1637  0.3230
  877loPI   C4B13364  17.002   6.273   6.895 -0.4885 -0.1563  0.1457
  878loPI    C113365  17.063  11.707   4.831  0.0235 -0.0630 -0.0124
  878loPI    C213366  17.204  12.081   4.821 -0.1060 -0.0164 -0.1363
  878loPI    C313367  17.389  11.792   4.615 -0.1503  0.0303 -0.2421
  878loPI   PO413368  17.085  11.570   5.081 -0.0697 -0.1080  0.1405
  878loPI   GL113369  17.076  11.649   5.522  0.0545 -0.0321  0.1730
  878loPI   GL213370  16.899  11.489   5.555 -0.2236  0.1604 -0.0016
  878loPI   C1A13371  17.491  11.665   5.673  0.3515  0.1294 -0.2055
  878loPI   C2A13372  17.680  11.814   6.002 -0.1212 -0.1310  0.0522
  878loPI   C3A13373  17.805  12.040   6.325 -0.1347 -0.3231 -0.0170
  878loPI   C4A13374  18.071  12.209   6.676 -0.0377  0.1407  0.2344
  878loPI   C5A13375  18.539  12.220   6.829 -0.1033  0.1710  0.2303
  878loPI   C6A13376  18.963  12.183   6.945 -0.1159  0.0200 -0.0003
  878loPI   C1B13377  16.854  11.503   5.946 -0.2534  0.2229  0.0237
  878loPI   C2B13378  16.839  11.493   6.367 -0.0174  0.0625  0.1190
  878loPI   C3B13379  16.970  11.625   6.788  0.4529  0.0191  0.2475
  878loPI   C4B13380  17.081  11.752   7.160 -0.1261  0.1359  0.0229
  879loPI    C113381  13.440  11.745   4.737  0.0521 -0.0271 -0.0690
  879loPI    C213382  13.154  11.496   4.611 -0.0395  0.0514 -0.0175
  879loPI    C313383  13.233  11.830   4.406 -0.0652  0.0887  0.0330
  879loPI   PO413384  13.338  11.812   4.979  0.0794  0.1535 -0.0067
  879loPI   GL113385  13.600  11.688   5.340  0.1242  0.2955 -0.0573
  879loPI   GL213386  13.389  11.483   5.475  0.0333  0.0722  0.0977
  879loPI   C1A13387  13.596  11.976   5.714 -0.0462  0.2696  0.0057
  879loPI   C2A13388  13.348  12.053   6.077 -0.1282 -0.0430 -0.1081
  879loPI   C3A13389  13.042  12.111   6.405  0.0354  0.2829 -0.3032
  879loPI   C4A13390  13.269  12.185   6.729 -0.0919 -0.1040 -0.0412
  879loPI   C5A13391  13.728  12.158   6.795 -0.1902 -0.1025 -0.2247
  879loPI   C6A13392  14.084  12.449   6.781  0.2492  0.0795  0.2827
  879loPI   C1B13393  13.434  11.511   5.901  0.3707  0.0557 -0.0584
  879loPI   C2B13394  13.063  11.653   6.211  0.3409 -0.3193 -0.2343
  879loPI   C3B13395  13.069  11.672   6.658 -0.0955  0.0195  0.2430
  879loPI   C4B13396  12.833  11.646   7.070  0.0545 -0.1631 -0.0485
  880loPI    C113397  16.952  16.729   5.105  0.1216  0.0322  0.1031
  880loPI    C213398  17.277  16.531   5.226  0.0247 -0.1108  0.1329
  880loPI    C313399  17.116  16.452   4.868 -0.0271 -0.1008  0.1540
  880loPI   PO413400  16.844  16.744   5.345  0.2241 -0.0769 -0.2347
  880loPI   GL113401  16.742  16.840   5.752  0.1628 -0.1856 -0.1964
  880loPI   GL213402  16.657  16.592   5.857 -0.0577 -0.1657 -0.3005
  880loPI   C1A13403  17.053  17.026   5.934 -0.2681 -0.1187 -0.1794
  880loPI   C2A13404  17.086  17.204   6.260  0.2204 -0.0050 -0.2635
  880loPI   C3A13405  17.104  17.278   6.650  0.0307  0.0319  0.2509
  880loPI   C4A13406  16.938  17.278   7.051  0.0150 -0.0325  0.0365
  880loPI   C5A13407  16.925  17.048   7.454  0.1672  0.0536 -0.2550
  880loPI   C6A13408  17.066  17.042   7.903  0.1983 -0.4092 -0.0886
  880loPI   C1B13409  16.768  16.757   6.286  0.0689 -0.2440  0.1591
  880loPI   C2B13410  16.837  16.813   6.681 -0.1482  0.0473 -0.0844
  880loPI   C3B13411  16.753  16.691   7.090 -0.0270  0.0443 -0.0972
  880loPI   C4B13412  16.768  16.584   7.482 -0.1951  0.1439  0.0056
  881loPI    C113413  10.462   6.564   5.027  0.0151 -0.1277  0.0324
  881loPI    C213414  10.812   6.591   4.834  0.0472  0.0678  0.1157
  881loPI    C313415  10.488   6.456   4.643  0.1296  0.0473 -0.0107
  881loPI   PO413416  10.456   6.820   5.182 -0.1688  0.1212 -0.0302
  881loPI   GL113417  10.696   6.749   5.506 -0.2099 -0.2538 -0.3458
  881loPI   GL213418  10.793   6.571   5.754 -0.3357 -0.1881  0.0317
  881loPI   C1A13419  10.331   6.741   5.919 -0.2088  0.1170 -0.4896
  881loPI   C2A13420  10.320   6.527   6.298 -0.2047 -0.3356  0.3049
  881loPI   C3A13421  10.249   6.465   6.764  0.0507  0.2010 -0.0798
  881loPI   C4A13422   9.957   6.555   7.096 -0.1711 -0.1256  0.1016
  881loPI   C5A13423   9.888   6.843   7.415  0.1492  0.0266  0.0054
  881loPI   C6A13424   9.988   7.175   7.622 -0.0500 -0.1791 -0.0507
  881loPI   C1B13425  10.791   6.582   6.202 -0.1029  0.3485 -0.2096
  881loPI   C2B13426  11.104   6.432   6.534  0.1649  0.0319  0.0007
  881loPI   C3B13427  11.107   6.451   7.045 -0.1229  0.0393  0.0077
  881loPI   C4B13428  11.275   6.496   7.347  0.2960  0.0505 -0.0326
  882loPI    C113429  16.753  18.368   5.004  0.0625 -0.2119 -0.0500
  882loPI    C213430  16.615  18.346   5.379 -0.0908 -0.1720 -0.1032
  882loPI    C313431  16.365  18.432   5.079  0.0735  0.0245 -0.1856
  882loPI   PO413432  16.972  18.500   5.083 -0.0025  0.1699  0.0854
  882loPI   GL113433  17.041  18.604   5.508  0.2499 -0.1065  0.1410
  882loPI   GL213434  16.953  18.908   5.562 -0.0487  0.2474  0.0517
  882loPI   C1A13435  16.982  18.557   5.948 -0.1937 -0.1939  0.2974
  882loPI   C2A13436  17.059  18.552   6.326  0.0083 -0.3194  0.2061
  882loPI   C3A13437  17.179  18.694   6.676  0.2682 -0.1579 -0.2936
  882loPI   C4A13438  17.060  18.862   7.134 -0.5832 -0.1441 -0.0821
  882loPI   C5A13439  17.012  19.198   7.520 -0.1093  0.4536  0.4809
  882loPI   C6A13440  17.134  19.563   7.356  0.0234 -0.1210  0.5238
  882loPI   C1B13441  17.142  19.087   5.897 -0.2155 -0.0574  0.1913
  882loPI   C2B13442  17.246  19.011   6.276  0.1457  0.3093  0.0815
  882loPI   C3B13443  17.307  19.178   6.638 -0.1643 -0.0764  0.3936
  882loPI   C4B13444  17.373  19.220   7.044 -0.1513 -0.2996 -0.0946
  883loPI    C113445  12.443   5.426   5.540  0.0652 -0.2742  0.0390
  883loPI    C213446  12.425   5.300   5.161 -0.0304  0.0737 -0.0757
  883loPI    C313447  12.091   5.410   5.351  0.0746  0.3614 -0.0529
  883loPI   PO413448  12.599   5.272   5.652  0.0438 -0.1967  0.3548
  883loPI   GL113449  12.538   5.184   6.043  0.0100  0.0349 -0.1560
  883loPI   GL213450  12.725   4.925   6.149  0.1953  0.2111 -0.0016
  883loPI   C1A13451  12.752   5.340   6.423  0.1742  0.0790 -0.0718
  883loPI   C2A13452  12.731   5.416   6.837  0.1499  0.1182  0.2402
  883loPI   C3A13453  12.794   5.170   7.232  0.2197  0.2586  0.0861
  883loPI   C4A13454  12.825   5.153   7.702  0.2518  0.1612 -0.1038
  883loPI   C5A13455  12.834   4.897   8.035 -0.1855 -0.3923  0.0222
  883loPI   C6A13456  13.201   4.713   8.283  0.2309 -0.0645 -0.2163
  883loPI   C1B13457  12.626   4.897   6.529 -0.0147  0.0060 -0.0155
  883loPI   C2B13458  12.498   4.802   6.878 -0.0278 -0.0525 -0.1426
  883loPI   C3B13459  12.349   4.920   7.351  0.2213 -0.1096  0.0410
  883loPI   C4B13460  12.294   4.823   7.743 -0.2617 -0.0047 -0.4201
  884loPI    C113461   3.275   6.149   5.012  0.0363  0.0873  0.1585
  884loPI    C213462   3.198   5.848   4.760  0.0375  0.2700 -0.0627
  884loPI    C313463   2.978   6.182   4.746  0.0290  0.2764  0.1890
  884loPI   PO413464   3.283   6.121   5.291 -0.0285  0.1681  0.0749
  884loPI   GL113465   3.494   6.219   5.660 -0.1449  0.3458 -0.0100
  884loPI   GL213466   3.824   6.031   5.837 -0.3489  0.1643  0.0529
  884loPI   C1A13467   3.286   6.531   5.849  0.0221 -0.0665 -0.0262
  884loPI   C2A13468   3.197   6.831   6.149 -0.0722  0.3040 -0.1234
  884loPI   C3A13469   3.177   6.955   6.488  0.2208 -0.1262  0.0604
  884loPI   C4A13470   3.295   6.970   6.929  0.0650  0.3888  0.3277
  884loPI   C5A13471   3.335   6.802   7.339  0.4221 -0.1852  0.0245
  884loPI   C6A13472   3.536   6.720   7.731 -0.1747 -0.0018  0.1783
  884loPI   C1B13473   3.777   6.422   6.025  0.4390  0.3102  0.0989
  884loPI   C2B13474   3.456   6.478   6.296 -0.0916  0.1686 -0.0502
  884loPI   C3B13475   3.391   6.419   6.680  0.0750  0.1220  0.1317
  884loPI   C4B13476   3.463   6.329   7.128  0.2692 -0.2150  0.0901
  885loPI    C113477   1.853   2.270   4.986 -0.0894  0.0886  0.0138
  885loPI    C213478   2.243   2.269   4.896 -0.0452 -0.0780  0.1996
  885loPI    C313479   1.970   2.294   4.605  0.1040  0.0614  0.0703
  885loPI   PO413480   1.927   2.378   5.345  0.0722  0.1062 -0.1511
  885loPI   GL113481   2.110   2.437   5.727  0.3274  0.3397 -0.3476
  885loPI   GL213482   2.420   2.506   5.720  0.0337 -0.0331 -0.0129
  885loPI   C1A13483   1.952   2.613   6.052 -0.0524  0.3310 -0.3468
  885loPI   C2A13484   1.777   2.627   6.523  0.0357  0.3159  0.2444
  885loPI   C3A13485   1.579   2.471   6.894  0.5170 -0.3039  0.2937
  885loPI   C4A13486   1.592   2.296   7.270  0.1832  0.1572  0.3853
  885loPI   C5A13487   1.775   1.960   7.462  0.1078  0.3004  0.0353
  885loPI   C6A13488   2.090   1.978   7.749 -0.0390 -0.0741 -0.0728
  885loPI   C1B13489   2.404   2.473   6.122 -0.0744 -0.1853 -0.0432
  885loPI   C2B13490   2.276   2.537   6.500 -0.0347  0.0964 -0.1518
  885loPI   C3B13491   1.988   2.751   6.896 -0.0531  0.0111  0.1488
  885loPI   C4B13492   1.700   2.861   7.256 -0.2114 -0.1761 -0.1747
  886loPI    C113493   7.466  16.218   4.922 -0.0013  0.0072  0.0561
  886loPI    C213494   7.705  15.898   4.910 -0.1570 -0.1155  0.1764
  886loPI    C313495   7.491  15.999   4.588 -0.1779 -0.1873  0.1675
  886loPI   PO413496   7.415  16.255   5.134 -0.0448  0.2450  0.4191
  886loPI   GL113497   7.262  16.255   5.543 -0.1357  0.0806 -0.1681
  886loPI   GL213498   6.980  16.467   5.431  0.0201 -0.0100 -0.0050
  886loPI   C1A13499   7.205  16.303   5.994  0.3572  0.1944 -0.2996
  886loPI   C2A13500   7.251  16.670   6.197 -0.2352  0.0993  0.2553
  886loPI   C3A13501   7.335  16.574   6.548 -0.0952 -0.1957 -0.1279
  886loPI   C4A13502   7.468  16.501   6.928 -0.2506  0.1446  0.2315
  886loPI   C5A13503   7.805  16.326   7.155  0.1728  0.0420  0.0126
  886loPI   C6A13504   8.135  16.122   7.301 -0.2312  0.2035 -0.2784
  886loPI   C1B13505   6.864  16.664   5.795 -0.2705  0.0186 -0.0720
  886loPI   C2B13506   6.730  16.683   6.284 -0.0823 -0.1077  0.3971
  886loPI   C3B13507   6.511  16.902   6.645 -0.0001 -0.1284 -0.0196
  886loPI   C4B13508   6.409  17.163   6.879  0.0963 -0.2624 -0.1724
  887loPI    C113509   2.135  13.087   4.430 -0.0398 -0.1566 -0.0931
  887loPI    C213510   2.083  12.814   4.142  0.0230  0.0656 -0.3196
  887loPI    C313511   2.380  13.080   4.113  0.0741  0.0460 -0.0112
  887loPI   PO413512   2.150  12.968   4.669 -0.1658  0.4053  0.2634
  887loPI   GL113513   2.313  12.941   5.150  0.0758  0.3431  0.1850
  887loPI   GL213514   2.616  12.981   5.138 -0.1560  0.0985  0.2751
  887loPI   C1A13515   2.258  12.951   5.584  0.3573  0.0137 -0.2624
  887loPI   C2A13516   2.290  12.954   6.052  0.4023 -0.1758  0.1873
  887loPI   C3A13517   2.444  13.078   6.468  0.0646  0.0772 -0.1677
  887loPI   C4A13518   2.651  12.884   6.762  0.6205 -0.4082  0.0027
  887loPI   C5A13519   2.701  12.584   7.010  0.0500 -0.5393 -0.1472
  887loPI   C6A13520   2.858  12.237   7.415 -0.0933  0.1250  0.2090
  887loPI   C1B13521   2.675  12.707   5.457  0.0670 -0.0471  0.1986
  887loPI   C2B13522   2.645  12.656   5.927 -0.0309  0.0684 -0.1641
  887loPI   C3B13523   2.628  12.615   6.282 -0.1070 -0.3936 -0.0320
  887loPI   C4B13524   2.342  12.576   6.651  0.0040 -0.0893  0.1400
  888loPI    C113525   5.431   5.761   5.057 -0.1569  0.1209  0.0761
  888loPI    C213526   5.725   5.964   5.238 -0.0383  0.1482 -0.1433
  888loPI    C313527   5.758   5.867   4.852 -0.1538 -0.1731 -0.0757
  888loPI   PO413528   5.255   5.885   5.300 -0.0750 -0.2323  0.1659
  888loPI   GL113529   5.209   6.059   5.718 -0.0416 -0.0158  0.0208
  888loPI   GL213530   5.022   6.272   5.702 -0.0547  0.0700 -0.0638
  888loPI   C1A13531   5.182   5.981   6.134 -0.0895  0.1891 -0.2608
  888loPI   C2A13532   5.078   5.923   6.480 -0.1639 -0.0325 -0.0415
  888loPI   C3A13533   4.906   5.972   6.995  0.1874 -0.3150 -0.3096
  888loPI   C4A13534   5.275   5.955   7.326 -0.0475  0.1110  0.0773
  888loPI   C5A13535   5.465   5.959   7.861 -0.0519  0.0901 -0.1775
  888loPI   C6A13536   5.312   5.649   8.274  0.1959  0.1399 -0.0890
  888loPI   C1B13537   4.844   6.295   6.128  0.0459  0.1149 -0.1888
  888loPI   C2B13538   4.892   6.360   6.615  0.2514 -0.0171  0.0409
  888loPI   C3B13539   4.868   6.517   7.038 -0.0109 -0.2964 -0.0938
  888loPI   C4B13540   4.615   6.481   7.348 -0.0124 -0.1191  0.1448
  889loPI    C113541  14.908  14.682   5.240  0.2678  0.0635 -0.1236
  889loPI    C213542  15.111  14.340   5.285  0.2275  0.0740  0.1585
  889loPI    C313543  14.902  14.406   4.951  0.1108 -0.2440  0.1657
  889loPI   PO413544  14.720  14.710   5.523  0.0118 -0.1398 -0.0228
  889loPI   GL113545  14.716  15.026   5.901  0.0193  0.1210 -0.0278
  889loPI   GL213546  14.834  15.238   5.773  0.3393  0.1314  0.1557
  889loPI   C1A13547  14.722  15.024   6.383  0.1560  0.0151  0.0546
  889loPI   C2A13548  14.495  14.944   6.710  0.4724 -0.1235 -0.2195
  889loPI   C3A13549  14.176  15.108   7.030  0.2189 -0.0500 -0.1250
  889loPI   C4A13550  14.002  15.191   7.421 -0.1929 -0.2430  0.1598
  889loPI   C5A13551  14.077  15.005   7.781 -0.0141  0.1304  0.3438
  889loPI   C6A13552  14.437  14.860   7.594  0.2023  0.1415 -0.2127
  889loPI   C1B13553  14.787  15.461   6.125 -0.0968  0.1399  0.1248
  889loPI   C2B13554  14.681  15.491   6.595  0.0902 -0.0897  0.0171
  889loPI   C3B13555  14.658  15.480   6.967 -0.0438  0.5128 -0.2739
  889loPI   C4B13556  14.556  15.305   7.319 -0.1438  0.0315  0.1120
  890loPI    C113557   5.884   5.447   5.073  0.3644 -0.1242 -0.0244
  890loPI    C213558   5.896   5.084   4.905  0.1999 -0.2665  0.2637
  890loPI    C313559   5.678   5.375   4.738  0.2951 -0.3126  0.0569
  890loPI   PO413560   5.787   5.448   5.271  0.1941 -0.2551 -0.0657
  890loPI   GL113561   5.892   5.618   5.611 -0.0435 -0.2592 -0.0099
  890loPI   GL213562   5.614   5.782   5.683  0.2338  0.0476  0.3633
  890loPI   C1A13563   6.088   5.703   6.046 -0.1307 -0.1361  0.0108
  890loPI   C2A13564   5.997   5.739   6.469  0.2562 -0.1615  0.4374
  890loPI   C3A13565   6.243   5.917   6.880  0.1422  0.0687  0.1973
  890loPI   C4A13566   6.169   5.949   7.358  0.0313 -0.0657  0.0424
  890loPI   C5A13567   6.369   5.905   7.665  0.0490 -0.0674  0.0145
  890loPI   C6A13568   6.669   5.871   7.989 -0.2400 -0.0297 -0.0514
  890loPI   C1B13569   5.484   5.561   5.946  0.0594 -0.2142 -0.1064
  890loPI   C2B13570   5.437   5.644   6.445 -0.3383 -0.3524 -0.0863
  890loPI   C3B13571   5.674   5.586   6.864 -0.0068  0.1064 -0.0547
  890loPI   C4B13572   5.766   5.797   7.114 -0.1854  0.2093  0.2169
  891loPI    C113573  18.435   0.603   4.810  0.0401 -0.1441 -0.0904
  891loPI    C213574  18.174   0.329   4.682  0.0679 -0.1492 -0.1364
  891loPI    C313575  18.503   0.407   4.468  0.0681 -0.0911 -0.1153
  891loPI   PO413576  18.260   0.776   5.041 -0.4145  0.0551  0.5192
  891loPI   GL113577  18.201   0.752   5.409 -0.0139  0.0729  0.0006
  891loPI   GL213578  18.415   0.558   5.550 -0.1108 -0.4934  0.0940
  891loPI   C1A13579  17.881   0.703   5.773 -0.3855  0.0432 -0.3942
  891loPI   C2A13580  18.008   0.712   6.227  0.2215 -0.2495  0.1591
  891loPI   C3A13581  18.131   0.840   6.713 -0.1837  0.0366 -0.2089
  891loPI   C4A13582  17.905   0.848   7.190 -0.4947  0.1278  0.1380
  891loPI   C5A13583  17.600   0.720   7.443  0.2039  0.0131 -0.0994
  891loPI   C6A13584  17.343   0.595   7.838 -0.2778 -0.0116  0.3094
  891loPI   C1B13585  18.402   0.815   5.920 -0.0784 -0.1356  0.0567
  891loPI   C2B13586  18.541   0.906   6.401 -0.0306  0.3190 -0.2079
  891loPI   C3B13587  18.668   0.896   6.825  0.0996  0.0192 -0.2527
  891loPI   C4B13588  18.891   0.685   7.067 -0.1676 -0.1805 -0.0287
  892loPI    C113589  16.249  15.177   5.264 -0.1187 -0.1150 -0.1675
  892loPI    C213590  16.391  15.494   5.065 -0.2134  0.1169  0.1267
  892loPI    C313591  16.159  15.228   4.878  0.1170  0.0526 -0.2029
  892loPI   PO413592  16.217  15.336   5.500  0.1958 -0.2703  0.2235
  892loPI   GL113593  16.035  15.190   5.865  0.1362  0.3216  0.0040
  892loPI   GL213594  16.302  14.968   5.793 -0.2457  0.1656  0.2265
  892loPI   C1A13595  16.031  15.058   6.298 -0.0083 -0.0533 -0.1361
  892loPI   C2A13596  16.053  15.137   6.644  0.1967 -0.1713 -0.1078
  892loPI   C3A13597  16.070  14.981   7.048  0.0278 -0.3923 -0.0856
  892loPI   C4A13598  16.011  15.044   7.443 -0.5960 -0.0067  0.2753
  892loPI   C5A13599  16.046  14.877   7.828  0.0737 -0.1956  0.3430
  892loPI   C6A13600  15.777  14.684   8.140  0.0115 -0.0313  0.0270
  892loPI   C1B13601  16.577  14.969   6.260  0.0184  0.0760  0.2336
  892loPI   C2B13602  16.511  14.907   6.712  0.2243  0.2449 -0.1727
  892loPI   C3B13603  16.624  14.741   7.154 -0.0994  0.3693 -0.0893
  892loPI   C4B13604  16.793  14.589   7.550 -0.2958  0.0189 -0.3728
  893loPI    C113605  18.245  12.012   4.531  0.0548  0.1386 -0.0818
  893loPI    C213606  18.272  12.410   4.561 -0.0086  0.1439 -0.0948
  893loPI    C313607  18.186  12.241   4.209  0.0752  0.1157 -0.1018
  893loPI   PO413608  18.502  11.831   4.592 -0.2055 -0.0351  0.2763
  893loPI   GL113609  18.609  11.811   4.912  0.0316  0.0472 -0.0021
  893loPI   GL213610  18.399  11.606   5.197 -0.0586  0.3663  0.0814
  893loPI   C1A13611  18.869  11.873   5.228  0.0810 -0.1468  0.2400
  893loPI   C2A13612  19.148  11.765   5.643 -0.3749 -0.1901 -0.0531
  893loPI   C3A13613  19.246  12.010   6.003 -0.2206  0.1471  0.1250
  893loPI   C4A13614  19.206  11.797   6.416  0.0244  0.3397 -0.1678
  893loPI   C5A13615  19.340  11.763   6.869 -0.3077 -0.5211  0.1697
  893loPI   C6A13616  19.232  11.890   7.226 -0.2547 -0.2425 -0.0412
  893loPI   C1B13617  18.688  11.566   5.622  0.0383 -0.0934 -0.0815
  893loPI   C2B13618  18.940  11.456   6.052  0.2988  0.1422  0.1806
  893loPI   C3B13619  18.835  11.462   6.391 -0.1330 -0.0796  0.2859
  893loPI   C4B13620  18.777  11.673   6.846  0.0750 -0.1102  0.1863
  894loPI    C113621   2.880   5.850   5.182  0.0297  0.0453 -0.2995
  894loPI    C213622   2.717   5.591   4.924  0.0299  0.1349 -0.3900
  894loPI    C313623   2.573   5.963   4.951 -0.1548  0.0431 -0.0594
  894loPI   PO413624   2.909   5.756   5.369  0.1468 -0.3282  0.1140
  894loPI   GL113625   3.158   5.791   5.643  0.2498 -0.2448  0.1417
  894loPI   GL213626   2.911   6.156   5.687  0.0146  0.3481  0.4870
  894loPI   C1A13627   3.373   5.946   6.059  0.2519  0.0712 -0.3966
  894loPI   C2A13628   3.680   5.977   6.435 -0.1298 -0.0760  0.2300
  894loPI   C3A13629   4.047   5.852   6.714 -0.0062 -0.3430  0.1324
  894loPI   C4A13630   4.125   5.627   7.147 -0.0305  0.1318 -0.3429
  894loPI   C5A13631   4.100   5.625   7.546  0.0013  0.0891  0.0120
  894loPI   C6A13632   4.061   5.763   7.932  0.0549  0.0522 -0.0538
  894loPI   C1B13633   2.921   6.280   6.110 -0.1424 -0.0513 -0.2933
  894loPI   C2B13634   2.921   6.526   6.466 -0.1862  0.1177  0.0404
  894loPI   C3B13635   2.891   6.677   6.905  0.1499 -0.1642 -0.0312
  894loPI   C4B13636   2.938   6.493   7.186  0.0609  0.0004  0.0902
  895loPI    C113637  10.350  15.770   4.758  0.2249 -0.2906 -0.1195
  895loPI    C213638  10.661  16.017   4.710  0.0862 -0.1042 -0.0714
  895loPI    C313639  10.378  15.996   4.429 -0.0341 -0.0161  0.0423
  895loPI   PO413640  10.347  15.773   5.070  0.0526  0.3065  0.0138
  895loPI   GL113641  10.449  15.591   5.421 -0.1419 -0.0290 -0.0557
  895loPI   GL213642  10.667  15.301   5.438 -0.2215  0.0343 -0.1051
  895loPI   C1A13643  10.479  15.577   5.936 -0.0718  0.0846  0.3175
  895loPI   C2A13644  10.485  15.693   6.383  0.0960 -0.2035 -0.3035
  895loPI   C3A13645  10.394  15.553   6.828  0.2456 -0.1259 -0.3202
  895loPI   C4A13646  10.234  15.382   7.121  0.3717 -0.0622 -0.3739
  895loPI   C5A13647  10.282  15.285   7.599  0.0373 -0.2038  0.0066
  895loPI   C6A13648  10.380  15.178   7.926  0.0741 -0.1078 -0.1389
  895loPI   C1B13649  10.577  15.110   5.810  0.0299 -0.3982  0.2341
  895loPI   C2B13650  10.302  14.942   6.101 -0.1048  0.1352  0.2435
  895loPI   C3B13651   9.993  14.910   6.346 -0.2885  0.0716  0.3503
  895loPI   C4B13652   9.623  15.007   6.432  0.1721 -0.0481  0.0577
  896loPI    C113653  12.721  17.885   4.859  0.0712  0.0772 -0.1697
  896loPI    C213654  13.059  17.714   4.989  0.0701 -0.0324 -0.3081
  896loPI    C313655  13.030  18.112   4.971  0.1152 -0.0185 -0.0954
  896loPI   PO413656  12.498  17.724   5.026  0.0891 -0.0822  0.1500
  896loPI   GL113657  12.304  17.901   5.439  0.0970  0.1009  0.2554
  896loPI   GL213658  12.052  17.897   5.485  0.2229  0.2093 -0.0434
  896loPI   C1A13659  12.589  18.047   5.807 -0.0473 -0.2308 -0.0874
  896loPI   C2A13660  12.686  18.144   6.169 -0.2197  0.1693 -0.0748
  896loPI   C3A13661  12.813  18.322   6.563  0.3740  0.0082  0.4342
  896loPI   C4A13662  12.536  18.673   6.776  0.0289 -0.2961 -0.1209
  896loPI   C5A13663  12.293  18.928   6.882 -0.1821  0.1859 -0.3053
  896loPI   C6A13664  12.183  19.338   6.878  0.2055  0.3255 -0.1071
  896loPI   C1B13665  12.105  17.817   5.871 -0.3058 -0.2094 -0.0069
  896loPI   C2B13666  12.184  17.753   6.264 -0.2956  0.2690 -0.3489
  896loPI   C3B13667  12.098  17.743   6.710  0.1953 -0.1377  0.0426
  896loPI   C4B13668  12.091  17.858   7.128 -0.0662 -0.1438 -0.2183
  897loPI    C113669  11.458   8.861   4.985 -0.0812 -0.0355 -0.0454
  897loPI    C213670  11.549   9.186   4.771 -0.1635 -0.0713 -0.1354
  897loPI    C313671  11.476   8.839   4.586  0.1059 -0.1869 -0.0301
  897loPI   PO413672  11.573   8.865   5.178 -0.1903  0.1530  0.0574
  897loPI   GL113673  11.893   8.800   5.418  0.1813  0.3140 -0.0496
  897loPI   GL213674  11.921   8.459   5.256 -0.2633 -0.1433  0.0776
  897loPI   C1A13675  11.761   8.640   5.876 -0.4915  0.3840 -0.0528
  897loPI   C2A13676  11.570   8.716   6.292  0.0469 -0.4423 -0.1533
  897loPI   C3A13677  11.652   8.715   6.705  0.1334 -0.1631 -0.2021
  897loPI   C4A13678  11.792   8.614   7.181 -0.2927 -0.4005  0.1974
  897loPI   C5A13679  12.062   8.789   7.478 -0.0699  0.1197  0.0572
  897loPI   C6A13680  12.193   8.800   7.872 -0.1574 -0.0844  0.1486
  897loPI   C1B13681  12.250   8.429   5.631  0.0495 -0.0762 -0.0247
  897loPI   C2B13682  12.247   8.219   6.044 -0.0399  0.0299  0.0304
  897loPI   C3B13683  12.158   7.874   6.260 -0.0157  0.2407  0.2455
  897loPI   C4B13684  12.172   7.592   6.660  0.3244  0.0672  0.0593
  898loPI    C113685  17.941  16.536   5.006  0.0148  0.2032 -0.0449
  898loPI    C213686  17.764  16.707   4.691  0.0083 -0.1774 -0.2530
  898loPI    C313687  17.610  16.374   4.851  0.1053 -0.0792  0.0505
  898loPI   PO413688  17.926  16.749   5.154  0.0433 -0.0714 -0.0098
  898loPI   GL113689  18.166  16.955   5.603  0.0573  0.1527 -0.1925
  898loPI   GL213690  18.126  16.861   5.836 -0.1882  0.0894  0.1664
  898loPI   C1A13691  18.146  17.296   5.995  0.0285 -0.2569  0.1484
  898loPI   C2A13692  18.068  17.305   6.440  0.1157  0.4690  0.1988
  898loPI   C3A13693  17.964  17.330   6.869 -0.1521  0.4878  0.3862
  898loPI   C4A13694  17.859  17.332   7.240  0.0268  0.0214  0.1727
  898loPI   C5A13695  17.756  17.142   7.635 -0.1956  0.1966  0.2337
  898loPI   C6A13696  17.647  16.948   7.971 -0.0140  0.0932 -0.0304
  898loPI   C1B13697  18.032  16.796   6.213 -0.1030 -0.3094  0.0883
  898loPI   C2B13698  17.908  16.877   6.684 -0.2629 -0.1457  0.0337
  898loPI   C3B13699  17.818  16.741   7.161 -0.0850  0.2745  0.2736
  898loPI   C4B13700  17.889  16.660   7.605 -0.1187 -0.1125  0.1598
  899loPI    C113701   2.485  17.404   4.648  0.0152  0.0681  0.1264
  899loPI    C213702   2.785  17.276   4.417  0.0680  0.0624  0.1981
  899loPI    C313703   2.585  17.607   4.318 -0.0298 -0.0413  0.0447
  899loPI   PO413704   2.586  17.334   4.919  0.4245  0.0164 -0.1145
  899loPI   GL113705   2.419  17.210   5.269 -0.0691 -0.2003  0.1295
  899loPI   GL213706   2.786  17.250   5.377 -0.1459 -0.0649 -0.0789
  899loPI   C1A13707   2.373  17.423   5.597  0.1856 -0.1638 -0.0208
  899loPI   C2A13708   2.401  17.217   5.981  0.1487  0.1942 -0.0982
  899loPI   C3A13709   2.342  17.057   6.475 -0.2050  0.2375  0.0117
  899loPI   C4A13710   1.978  17.174   6.665  0.1872 -0.1443 -0.1099
  899loPI   C5A13711   1.669  17.151   6.983 -0.0587  0.0758  0.0203
  899loPI   C6A13712   1.442  17.161   7.429 -0.0329  0.4483 -0.0178
  899loPI   C1B13713   3.023  17.339   5.703  0.2099 -0.2006  0.1790
  899loPI   C2B13714   3.262  17.303   6.110 -0.2711 -0.0145  0.1983
  899loPI   C3B13715   3.329  17.216   6.604 -0.0297  0.1260  0.1084
  899loPI   C4B13716   3.297  17.213   7.110  0.3522  0.2014 -0.2466
  900loPI    C113717   5.493   1.272   5.066  0.1751  0.0118  0.0334
  900loPI    C213718   5.789   1.453   4.867  0.0127  0.2477  0.0015
  900loPI    C313719   5.717   1.064   4.808  0.3722  0.1657  0.0780
  900loPI   PO413720   5.525   1.362   5.334 -0.1540 -0.1109 -0.1438
  900loPI   GL113721   5.477   1.259   5.714  0.0369  0.1408  0.1059
  900loPI   GL213722   5.725   1.115   5.973  0.0761 -0.1039  0.0527
  900loPI   C1A13723   5.285   1.450   6.006 -0.1985  0.1774  0.0937
  900loPI   C2A13724   5.220   1.851   6.263  0.1151 -0.2032 -0.0599
  900loPI   C3A13725   5.081   1.845   6.741 -0.3395 -0.0688  0.0891
  900loPI   C4A13726   4.979   1.694   7.168 -0.2284  0.0053 -0.0584
  900loPI   C5A13727   5.011   1.618   7.589 -0.0083  0.2504  0.1978
  900loPI   C6A13728   4.889   1.532   8.039 -0.0100 -0.1732  0.0508
  900loPI   C1B13729   5.586   1.244   6.379  0.1271  0.1048 -0.0684
  900loPI   C2B13730   5.206   1.350   6.521  0.0550 -0.2065  0.1994
  900loPI   C3B13731   4.764   1.298   6.368  0.0572 -0.0389 -0.1709
  900loPI   C4B13732   4.397   1.214   6.138 -0.2793 -0.0283  0.0135
  901loPI    C113733  13.739  12.547   4.850 -0.1050 -0.0136  0.0601
  901loPI    C213734  13.748  12.243   4.589  0.0383  0.1197 -0.0921
  901loPI    C313735  13.758  12.621   4.457 -0.0955  0.1915  0.0982
  901loPI   PO413736  13.922  12.414   5.049 -0.2477 -0.1936  0.2072
  901loPI   GL113737  13.975  12.325   5.467 -0.1386 -0.0168  0.2806
  901loPI   GL213738  14.203  11.975   5.458 -0.0542  0.0399 -0.2931
  901loPI   C1A13739  14.177  12.617   5.813  0.2191 -0.1122  0.1310
  901loPI   C2A13740  14.541  12.717   6.100 -0.0996 -0.0733  0.0139
  901loPI   C3A13741  14.480  12.849   6.544 -0.1551 -0.3088 -0.1356
  901loPI   C4A13742  14.577  12.673   6.952  0.0049 -0.2257  0.1025
  901loPI   C5A13743  14.665  12.467   7.350  0.0016 -0.3632  0.0514
  901loPI   C6A13744  14.344  12.557   7.710  0.1949  0.0641  0.3131
  901loPI   C1B13745  14.061  12.082   5.846  0.1491  0.1232  0.3271
  901loPI   C2B13746  14.249  12.219   6.085 -0.0272 -0.0782  0.2064
  901loPI   C3B13747  14.391  12.378   6.428  0.1734 -0.1128 -0.0423
  901loPI   C4B13748  14.526  12.169   6.863  0.0198  0.0471  0.1167
  902loPI    C113749   2.283   3.557   5.024 -0.2506 -0.1904  0.1560
  902loPI    C213750   2.427   3.332   5.322 -0.2670 -0.3106  0.0738
  902loPI    C313751   2.416   3.187   4.950  0.0574 -0.0440 -0.0445
  902loPI   PO413752   1.959   3.621   5.106  0.1718  0.2303  0.3608
  902loPI   GL113753   1.878   3.349   5.419 -0.0846 -0.0385 -0.0294
  902loPI   GL213754   1.569   3.326   5.579 -0.0255  0.0730  0.0590
  902loPI   C1A13755   2.135   3.581   5.714 -0.2971 -0.4656  0.1223
  902loPI   C2A13756   2.257   3.581   6.120 -0.1917  0.2506  0.3766
  902loPI   C3A13757   2.171   3.573   6.568  0.1954 -0.0300 -0.0185
  902loPI   C4A13758   2.081   3.740   6.955  0.0508  0.0181 -0.2924
  902loPI   C5A13759   2.033   4.012   7.375 -0.0893 -0.1002  0.1198
  902loPI   C6A13760   1.684   3.808   7.614 -0.0165  0.2853  0.0244
  902loPI   C1B13761   1.734   3.376   5.926  0.1733  0.0749  0.1047
  902loPI   C2B13762   1.780   3.547   6.227 -0.1165 -0.0060  0.0492
  902loPI   C3B13763   1.827   3.954   6.525  0.3002 -0.1872  0.1307
  902loPI   C4B13764   1.968   4.240   6.874 -0.2660  0.0919  0.2172
  903loPI    C113765   8.791   2.763   5.276  0.0354  0.1725 -0.0227
  903loPI    C213766   8.550   3.024   5.091 -0.0805  0.1103  0.0394
  903loPI    C313767   8.581   2.649   4.955 -0.1484  0.0708  0.1319
  903loPI   PO413768   8.937   2.846   5.299 -0.0907  0.0250 -0.0738
  903loPI   GL113769   9.114   2.740   5.705 -0.0190  0.1006  0.2395
  903loPI   GL213770   9.204   2.822   5.980  0.1205  0.0028 -0.0270
  903loPI   C1A13771   8.902   2.470   6.041  0.2683  0.0468  0.0398
  903loPI   C2A13772   8.963   2.359   6.413 -0.0682 -0.2099  0.1184
  903loPI   C3A13773   9.238   2.211   6.770  0.0394 -0.0476 -0.4526
  903loPI   C4A13774   9.312   2.271   7.258 -0.0249 -0.1312 -0.0083
  903loPI   C5A13775   9.280   2.562   7.504  0.2455  0.0708 -0.0901
  903loPI   C6A13776   9.415   2.706   7.853  0.2186  0.0367  0.1407
  903loPI   C1B13777   9.042   2.830   6.372 -0.0934  0.0127 -0.0387
  903loPI   C2B13778   8.895   2.780   6.862 -0.2167  0.0431  0.0663
  903loPI   C3B13779   8.850   2.661   7.209 -0.1970  0.1305  0.1791
  903loPI   C4B13780   8.507   2.553   7.376  0.1377 -0.0840  0.0450
  904loPI    C113781  10.005   1.265   5.212  0.0882  0.0951  0.2666
  904loPI    C213782  10.295   1.286   4.938 -0.0791 -0.1714  0.0647
  904loPI    C313783   9.933   1.436   4.858 -0.0402  0.0319  0.2617
  904loPI   PO413784  10.062   0.993   5.325  0.0913 -0.0733 -0.3034
  904loPI   GL113785  10.013   0.759   5.603 -0.1176 -0.2038  0.3547
  904loPI   GL213786   9.666   0.665   5.560  0.0964 -0.1947 -0.1390
  904loPI   C1A13787  10.182   0.561   5.995 -0.4069  0.4368  0.1066
  904loPI   C2A13788  10.464   0.501   6.356  0.2879  0.1734  0.1835
  904loPI   C3A13789  10.416   0.300   6.828  0.0749 -0.0270 -0.0407
  904loPI   C4A13790  10.274  -0.062   7.122 -0.0558 -0.1503  0.0436
  904loPI   C5A13791  10.397  -0.419   7.340 -0.0600  0.1984  0.1222
  904loPI   C6A13792  10.358  -0.833   7.474 -0.2032 -0.1447  0.3720
  904loPI   C1B13793   9.745   0.440   5.885 -0.1533  0.0862 -0.1626
  904loPI   C2B13794   9.869   0.326   6.430 -0.2330  0.1645  0.0059
  904loPI   C3B13795   9.916   0.279   6.905 -0.1936 -0.1702  0.4315
  904loPI   C4B13796   9.654   0.213   7.253 -0.1344 -0.0040 -0.0879
  905loPI    C113797  17.973   6.968   5.096 -0.1209 -0.1765  0.0593
  905loPI    C213798  17.906   6.607   4.936  0.0008 -0.1031 -0.1601
  905loPI    C313799  17.700   6.925   4.806 -0.3553 -0.1482  0.2715
  905loPI   PO413800  18.306   6.899   5.120  0.2331  0.1816 -0.0335
  905loPI   GL113801  18.351   6.805   5.583 -0.0218  0.0100  0.2653
  905loPI   GL213802  18.696   6.762   5.437 -0.0387  0.1328 -0.2699
  905loPI   C1A13803  18.275   6.734   5.999  0.1286 -0.0574  0.3180
  905loPI   C2A13804  18.335   6.628   6.488  0.2160 -0.1095  0.0213
  905loPI   C3A13805  18.395   6.445   6.896 -0.0826  0.1445 -0.1241
  905loPI   C4A13806  18.374   6.122   7.116 -0.3678 -0.1885 -0.0439
  905loPI   C5A13807  18.477   5.815   7.364 -0.0729 -0.1384 -0.0370
  905loPI   C6A13808  18.662   5.680   7.715  0.0076 -0.2281 -0.2453
  905loPI   C1B13809  18.848   6.795   5.904  0.2668  0.0863  0.0778
  905loPI   C2B13810  18.813   6.739   6.357 -0.0405  0.2472 -0.0488
  905loPI   C3B13811  18.664   6.918   6.835 -0.0777 -0.1764  0.1472
  905loPI   C4B13812  18.750   7.008   7.305 -0.1334 -0.2273 -0.3459
  906loPI    C113813  15.080   6.604   5.170 -0.1549 -0.0808  0.0041
  906loPI    C213814  15.320   6.289   5.109 -0.1346 -0.0469 -0.0920
  906loPI    C313815  15.216   6.525   4.802  0.0905  0.2128  0.0277
  906loPI   PO413816  15.159   6.774   5.332  0.1873 -0.0583 -0.3034
  906loPI   GL113817  14.942   6.827   5.713  0.3034 -0.3217  0.0237
  906loPI   GL213818  15.208   6.614   5.836  0.1106 -0.1058 -0.3576
  906loPI   C1A13819  15.126   7.116   5.982  0.0272  0.2399  0.0048
  906loPI   C2A13820  15.097   7.481   6.120  0.0432  0.1149  0.0982
  906loPI   C3A13821  14.956   7.595   6.567  0.0680  0.1256  0.3330
  906loPI   C4A13822  14.887   7.743   7.030  0.1752 -0.1673  0.2145
  906loPI   C5A13823  15.000   7.600   7.497  0.2492  0.0918  0.1532
  906loPI   C6A13824  15.125   7.808   7.878 -0.1132 -0.0497  0.0192
  906loPI   C1B13825  15.216   6.686   6.219  0.1609 -0.1029  0.0028
  906loPI   C2B13826  15.165   6.701   6.708 -0.0886  0.0877 -0.1323
  906loPI   C3B13827  14.758   6.764   7.084  0.0876  0.0028 -0.2572
  906loPI   C4B13828  14.835   7.060   7.430 -0.0143  0.1795 -0.1059
  907loPI    C113829   1.358   7.712   4.916 -0.0621  0.3820 -0.0593
  907loPI    C213830   1.597   7.464   4.713 -0.0348  0.2624  0.1167
  907loPI    C313831   1.514   7.827   4.566  0.2040  0.2814  0.0242
  907loPI   PO413832   1.458   7.813   5.230 -0.0805 -0.1769  0.2269
  907loPI   GL113833   1.142   8.120   5.328 -0.1863  0.0555  0.0776
  907loPI   GL213834   1.057   8.415   5.378  0.0337  0.1707 -0.0211
  907loPI   C1A13835   1.275   7.972   5.793  0.2548  0.2270  0.1996
  907loPI   C2A13836   1.059   7.928   6.142  0.1907  0.1651  0.2283
  907loPI   C3A13837   1.026   7.835   6.619 -0.2308 -0.0680  0.2893
  907loPI   C4A13838   0.733   8.024   7.026  0.1139  0.1514  0.0080
  907loPI   C5A13839   0.709   7.889   7.437  0.1864  0.2680 -0.0645
  907loPI   C6A13840   1.001   7.573   7.744  0.1860 -0.3080  0.1321
  907loPI   C1B13841   1.030   8.391   5.786 -0.0279 -0.0292  0.0520
  907loPI   C2B13842   1.025   8.450   6.236  0.0557  0.1478  0.3281
  907loPI   C3B13843   1.050   8.303   6.672 -0.4243 -0.3951 -0.2931
  907loPI   C4B13844   1.222   8.085   7.053 -0.0261 -0.2659  0.0540
  908loPI    C113845  13.585  14.193   5.167  0.0219  0.1577  0.0424
  908loPI    C213846  13.569  13.873   4.927 -0.0190  0.0358  0.2050
  908loPI    C313847  13.593  14.241   4.770  0.0612 -0.0482  0.0171
  908loPI   PO413848  13.742  14.224   5.444 -0.1259  0.1824  0.1791
  908loPI   GL113849  13.864  14.108   5.779  0.1048  0.1378 -0.2524
  908loPI   GL213850  13.552  13.913   5.781 -0.1097  0.3167  0.0140
  908loPI   C1A13851  13.702  14.266   6.197  0.2683 -0.2223  0.2892
  908loPI   C2A13852  13.441  14.463   6.477 -0.2615 -0.2048  0.1304
  908loPI   C3A13853  13.499  14.782   6.840 -0.2770 -0.1560 -0.0340
  908loPI   C4A13854  13.623  14.979   7.259  0.1312 -0.2985  0.0488
  908loPI   C5A13855  13.689  14.797   7.548 -0.2329 -0.2805  0.7177
  908loPI   C6A13856  14.011  14.563   7.545 -0.0873  0.0862 -0.1972
  908loPI   C1B13857  13.228  13.989   6.183 -0.2644  0.3397 -0.1819
  908loPI   C2B13858  13.105  14.114   6.576  0.1477  0.2108 -0.0068
  908loPI   C3B13859  13.218  13.993   6.963  0.1046 -0.0205 -0.1630
  908loPI   C4B13860  13.274  14.046   7.325  0.1085  0.2057  0.0112
  909loPI    C113861  15.646   2.415   5.199  0.1524  0.0387  0.0732
  909loPI    C213862  15.771   2.312   4.834  0.1734  0.3141  0.0002
  909loPI    C313863  15.586   2.043   5.065  0.3213  0.0867 -0.1414
  909loPI   PO413864  15.550   2.637   5.248  0.2672 -0.0811 -0.0030
  909loPI   GL113865  15.429   2.825   5.689 -0.0623 -0.0341  0.3802
  909loPI   GL213866  15.209   2.544   5.717  0.1758 -0.1702  0.2310
  909loPI   C1A13867  15.701   2.591   5.972 -0.1283  0.2230 -0.1930
  909loPI   C2A13868  15.767   2.409   6.379  0.0654 -0.2663 -0.1455
  909loPI   C3A13869  15.969   2.493   6.717 -0.0058  0.2714 -0.0602
  909loPI   C4A13870  16.123   2.473   7.132  0.1195 -0.0659  0.4451
  909loPI   C5A13871  16.440   2.378   7.451 -0.1351 -0.1131  0.0590
  909loPI   C6A13872  16.799   2.143   7.509  0.2313 -0.0774 -0.0365
  909loPI   C1B13873  15.283   2.573   6.176  0.1490  0.0063 -0.0091
  909loPI   C2B13874  15.379   2.490   6.689 -0.1367 -0.2725 -0.2006
  909loPI   C3B13875  15.216   2.271   7.086 -0.4033 -0.0585  0.1624
  909loPI   C4B13876  15.011   2.022   7.438  0.0201  0.1450  0.0407
  910loPI    C113877   8.691  17.179   4.644 -0.3510 -0.1915  0.2492
  910loPI    C213878   8.668  17.576   4.682 -0.2047 -0.1565 -0.0021
  910loPI    C313879   8.564  17.402   4.337  0.0866 -0.3005 -0.0196
  910loPI   PO413880   8.950  17.162   4.903  0.1779  0.0709 -0.1074
  910loPI   GL113881   9.110  17.221   5.335 -0.2041  0.0582  0.3040
  910loPI   GL213882   9.007  17.545   5.287  0.0623  0.2276  0.0107
  910loPI   C1A13883   9.275  17.290   5.779 -0.1869 -0.0915 -0.0231
  910loPI   C2A13884   9.681  17.337   6.052  0.1323  0.1586  0.0918
  910loPI   C3A13885   9.780  17.516   6.354  0.3175 -0.0557  0.1452
  910loPI   C4A13886   9.642  17.623   6.744  0.0239  0.2224  0.1341
  910loPI   C5A13887   9.434  17.561   7.144 -0.0750  0.0366 -0.2092
  910loPI   C6A13888   9.238  17.896   7.376  0.2610  0.0160 -0.3446
  910loPI   C1B13889   9.258  17.717   5.570 -0.1876 -0.0323  0.1586
  910loPI   C2B13890   9.419  17.809   5.930 -0.5573 -0.1777  0.0013
  910loPI   C3B13891   9.570  18.020   6.331  0.2946 -0.0756  0.4029
  910loPI   C4B13892   9.989  17.955   6.572  0.0039  0.1557  0.0368
  911loPI    C113893   8.548   3.549   5.156 -0.0930  0.2204  0.1253
  911loPI    C213894   8.729   3.377   4.843  0.1840  0.0964  0.3485
  911loPI    C313895   8.586   3.749   4.811  0.1696  0.0691  0.0628
  911loPI   PO413896   8.660   3.530   5.410 -0.3743 -0.0263  0.1146
  911loPI   GL113897   8.721   3.473   5.806 -0.0367  0.3245  0.6230
  911loPI   GL213898   8.899   3.211   5.649 -0.0063  0.0098 -0.0502
  911loPI   C1A13899   8.709   3.437   6.227  0.0533  0.0781 -0.0967
  911loPI   C2A13900   8.858   3.381   6.616  0.0881 -0.0188  0.1741
  911loPI   C3A13901   9.043   3.318   6.955  0.1258 -0.0899  0.0672
  911loPI   C4A13902   9.221   3.041   7.315 -0.0440  0.0267 -0.2924
  911loPI   C5A13903   9.009   3.090   7.731 -0.1815 -0.0361 -0.0960
  911loPI   C6A13904   8.921   2.855   8.145  0.0917  0.0338  0.0046
  911loPI   C1B13905   9.243   3.308   5.991  0.2523 -0.0073 -0.2239
  911loPI   C2B13906   9.245   3.527   6.350 -0.2318  0.1693  0.0558
  911loPI   C3B13907   9.243   3.734   6.649 -0.1266 -0.1105  0.0037
  911loPI   C4B13908   8.880   3.884   7.028 -0.3383 -0.2477  0.0707
  912loPI    C113909  14.388   2.223   4.953 -0.0282  0.2885  0.0556
  912loPI    C213910  14.087   2.009   4.799  0.0118  0.1593  0.1550
  912loPI    C313911  14.278   2.278   4.573 -0.0761  0.1304  0.0458
  912loPI   PO413912  14.444   2.083   5.133 -0.0056 -0.1654  0.2432
  912loPI   GL113913  14.267   1.802   5.386 -0.2363 -0.0929  0.1862
  912loPI   GL213914  13.961   1.823   5.489 -0.1035  0.2817  0.0023
  912loPI   C1A13915  14.418   1.864   5.721 -0.0112 -0.1154 -0.1103
  912loPI   C2A13916  14.430   1.953   6.055  0.1183  0.2301  0.3541
  912loPI   C3A13917  14.410   2.006   6.493 -0.0427 -0.1039 -0.0940
  912loPI   C4A13918  14.338   2.166   6.864  0.0692  0.1119  0.1616
  912loPI   C5A13919  14.587   2.404   7.214 -0.2820  0.0328  0.0108
  912loPI   C6A13920  14.643   2.510   7.558  0.2361  0.3000 -0.1578
  912loPI   C1B13921  13.968   2.050   5.929 -0.0172  0.2010  0.3296
  912loPI   C2B13922  13.929   2.090   6.363  0.1452 -0.0707  0.0678
  912loPI   C3B13923  13.881   2.230   6.744  0.0367 -0.1869  0.1741
  912loPI   C4B13924  13.906   2.277   7.220 -0.0845 -0.0120  0.0881
  913loPI    C113925   7.342  14.847   4.841 -0.0239  0.1373 -0.0161
  913loPI    C213926   7.689  14.798   5.034 -0.1148  0.0836  0.1352
  913loPI    C313927   7.629  15.124   4.811  0.0389  0.0850  0.0949
  913loPI   PO413928   7.206  14.667   5.001 -0.1087  0.0895  0.0774
  913loPI   GL113929   7.190  14.471   5.343 -0.0966  0.1378 -0.0102
  913loPI   GL213930   7.447  14.338   5.211 -0.2076  0.1259 -0.0091
  913loPI   C1A13931   7.212  14.392   5.786  0.0054  0.2541  0.1608
  913loPI   C2A13932   7.111  14.465   6.278  0.1340  0.0338 -0.1298
  913loPI   C3A13933   6.955  14.690   6.659 -0.1940  0.0121  0.2866
  913loPI   C4A13934   6.633  14.945   6.899  0.0715  0.2815  0.0323
  913loPI   C5A13935   6.431  15.128   7.246 -0.3047 -0.0454  0.1225
  913loPI   C6A13936   6.445  14.946   7.643  0.2872 -0.2400  0.3037
  913loPI   C1B13937   7.673  14.235   5.577 -0.3048 -0.1887  0.0285
  913loPI   C2B13938   7.590  14.327   6.100 -0.0599 -0.3795  0.1012
  913loPI   C3B13939   7.420  14.140   6.470 -0.1378  0.1139 -0.0991
  913loPI   C4B13940   7.213  14.132   6.915 -0.0556  0.1310  0.2175
  914loPI    C113941   3.908  11.042   4.445 -0.0267  0.1790 -0.2091
  914loPI    C213942   4.147  11.319   4.605 -0.1928  0.3923 -0.3252
  914loPI    C313943   4.206  11.197   4.229  0.2925 -0.2199 -0.0687
  914loPI   PO413944   3.841  10.837   4.577 -0.0455  0.2289  0.0113
  914loPI   GL113945   3.810  10.916   5.016 -0.3073 -0.0472  0.0781
  914loPI   GL213946   4.055  11.126   5.047 -0.3083  0.2022  0.1803
  914loPI   C1A13947   3.857  10.836   5.488  0.2243  0.0883  0.0544
  914loPI   C2A13948   3.911  10.819   5.909  0.0266 -0.3450  0.1390
  914loPI   C3A13949   3.916  10.669   6.396 -0.1263  0.0019  0.1468
  914loPI   C4A13950   3.709  10.647   6.756  0.0719 -0.0191 -0.0791
  914loPI   C5A13951   3.776  10.780   7.151  0.3934  0.2825 -0.2323
  914loPI   C6A13952   3.619  11.139   7.448  0.2172 -0.1674  0.0559
  914loPI   C1B13953   4.088  11.485   5.310  0.0546  0.2428 -0.0856
  914loPI   C2B13954   4.367  11.681   5.524 -0.0603 -0.1469 -0.0858
  914loPI   C3B13955   4.503  11.695   5.962 -0.1157 -0.2355 -0.1337
  914loPI   C4B13956   4.571  11.603   6.381 -0.3051  0.2515 -0.0904
  915loPI    C113957  16.941  10.677   5.022 -0.1772  0.0814 -0.1642
  915loPI    C213958  16.817  10.521   4.675  0.1254  0.0097 -0.2429
  915loPI    C313959  16.908  10.910   4.699 -0.3592  0.1214 -0.1177
  915loPI   PO413960  16.768  10.565   5.198  0.1871  0.3331  0.0137
  915loPI   GL113961  16.465  10.583   5.379 -0.1632  0.1525 -0.0590
  915loPI   GL213962  16.395  10.883   5.399 -0.0981 -0.1567  0.0413
  915loPI   C1A13963  16.378  10.314   5.761 -0.1085 -0.2448  0.2684
  915loPI   C2A13964  16.462  10.409   6.168 -0.1057  0.1782 -0.2660
  915loPI   C3A13965  16.597  10.334   6.593 -0.3886 -0.1682  0.4017
  915loPI   C4A13966  16.767  10.467   6.933 -0.2073  0.2857  0.2265
  915loPI   C5A13967  16.744  10.580   7.343 -0.2332 -0.3718  0.1342
  915loPI   C6A13968  17.148  10.786   7.513  0.1412 -0.1154 -0.0718
  915loPI   C1B13969  16.243  10.791   5.750  0.2694 -0.2779 -0.1016
  915loPI   C2B13970  16.261  10.902   6.195 -0.4906  0.1483  0.3682
  915loPI   C3B13971  16.316  10.748   6.525  0.0732 -0.0374 -0.0769
  915loPI   C4B13972  16.513  10.905   6.922  0.0981 -0.3072  0.1138
  916loPI    C113973   4.749   5.204   5.428 -0.1909  0.0416  0.0353
  916loPI    C213974   4.854   5.525   5.213 -0.3082 -0.0354 -0.1388
  916loPI    C313975   4.870   5.160   5.049  0.1304 -0.1567  0.1572
  916loPI   PO413976   4.864   5.237   5.620  0.1090 -0.2400  0.0072
  916loPI   GL113977   4.937   5.549   5.930 -0.1433 -0.1980  0.0014
  916loPI   GL213978   4.745   5.791   5.783 -0.0066  0.2146  0.2985
  916loPI   C1A13979   4.974   5.504   6.226 -0.1814 -0.0756  0.2907
  916loPI   C2A13980   4.950   5.417   6.647 -0.2841 -0.2336 -0.1834
  916loPI   C3A13981   5.178   5.499   7.011 -0.0857  0.2235  0.0345
  916loPI   C4A13982   5.378   5.386   7.364 -0.0298  0.0552 -0.0308
  916loPI   C5A13983   5.704   5.583   7.633  0.2420 -0.1567  0.0937
  916loPI   C6A13984   5.996   5.946   7.959  0.1866  0.0331 -0.5458
  916loPI   C1B13985   4.595   5.853   6.107  0.1325  0.0885 -0.1390
  916loPI   C2B13986   4.589   5.988   6.501 -0.2613 -0.1230  0.0846
  916loPI   C3B13987   4.474   6.131   6.939 -0.0302 -0.0173  0.4726
  916loPI   C4B13988   4.134   6.359   7.053  0.0003  0.2199  0.3109
  917loPI    C113989   3.132  10.307   4.455 -0.1323 -0.0713  0.1902
  917loPI    C213990   2.948  10.662   4.447 -0.0847 -0.0505 -0.1292
  917loPI    C313991   2.792  10.352   4.249  0.0631 -0.1135 -0.1488
  917loPI   PO413992   3.154  10.340   4.744 -0.2925  0.0544 -0.0391
  917loPI   GL113993   3.075  10.259   5.205  0.3385 -0.0200  0.0636
  917loPI   GL213994   2.729  10.320   5.281  0.0307  0.1365  0.1007
  917loPI   C1A13995   2.881  10.013   5.684 -0.3952 -0.1123  0.0892
  917loPI   C2A13996   2.944   9.984   6.081  0.0314 -0.4017  0.0179
  917loPI   C3A13997   2.893   9.856   6.424  0.1532 -0.1982 -0.0088
  917loPI   C4A13998   2.879  10.092   6.735  0.0736  0.0324  0.1166
  917loPI   C5A13999   2.642  10.360   6.973 -0.0488 -0.4349 -0.1022
  917loPI   C6A14000   2.172  10.343   6.972  0.0555 -0.1198  0.1084
  917loPI   C1B14001   2.603  10.420   5.620 -0.0072 -0.1045 -0.2402
  917loPI   C2B14002   2.554  10.663   5.993  0.1031  0.0118 -0.4890
  917loPI   C3B14003   2.457  11.065   6.371  0.1061 -0.1439 -0.3077
  917loPI   C4B14004   2.090  11.335   6.670  0.0884  0.0505  0.1935
  918loPI    C114005   7.501  11.135   4.923  0.1218  0.1066  0.0006
  918loPI    C214006   7.363  11.197   4.553  0.2484  0.3061 -0.0146
  918loPI    C314007   7.757  11.211   4.625  0.2457 -0.0082  0.0762
  918loPI   PO414008   7.335  11.295   5.038 -0.2494  0.1149 -0.4365
  918loPI   GL114009   7.265  11.386   5.437  0.0702 -0.0041  0.0008
  918loPI   GL214010   6.988  11.295   5.546 -0.1287  0.2795  0.0241
  918loPI   C1A14011   7.554  11.572   5.725  0.0640 -0.1100 -0.0624
  918loPI   C2A14012   7.602  11.650   6.125  0.1559 -0.2702 -0.2060
  918loPI   C3A14013   7.664  11.882   6.440  0.0502  0.2198 -0.3672
  918loPI   C4A14014   7.701  11.854   6.951  0.1049 -0.1917  0.0981
  918loPI   C5A14015   7.584  11.907   7.353 -0.1038 -0.0155 -0.1346
  918loPI   C6A14016   7.606  11.739   7.768 -0.1465 -0.2369  0.2087
  918loPI   C1B14017   7.120  11.416   6.006 -0.1170  0.0367  0.1645
  918loPI   C2B14018   7.216  11.506   6.368  0.2687  0.0270 -0.0436
  918loPI   C3B14019   7.315  11.591   6.756 -0.0755 -0.1375  0.0230
  918loPI   C4B14020   7.197  11.607   7.222  0.1534  0.0862 -0.0401
  919loPI    C114021  10.102  13.713   5.320  0.1508  0.0707  0.0866
  919loPI    C214022  10.108  13.385   5.091  0.2024  0.0759  0.0803
  919loPI    C314023  10.401  13.449   5.356  0.1306  0.0582  0.1645
  919loPI   PO414024   9.819  13.737   5.483  0.1569 -0.0964 -0.0338
  919loPI   GL114025   9.735  13.601   5.880  0.2199  0.2577 -0.1612
  919loPI   GL214026   9.279  13.437   5.809  0.2532  0.1041  0.0854
  919loPI   C1A14027   9.705  13.659   6.336  0.1258 -0.0737 -0.2042
  919loPI   C2A14028   9.719  13.832   6.783  0.2892 -0.0562 -0.4254
  919loPI   C3A14029   9.710  13.884   7.206 -0.0628 -0.3244 -0.3619
  919loPI   C4A14030   9.598  14.034   7.558 -0.2317  0.0134  0.1146
  919loPI   C5A14031   9.512  13.952   8.012  0.3401 -0.0524  0.1892
  919loPI   C6A14032   9.866  13.894   8.405 -0.0367  0.2302 -0.0540
  919loPI   C1B14033   9.205  13.473   6.298  0.0639 -0.0521  0.0401
  919loPI   C2B14034   9.234  13.562   6.723 -0.2238 -0.1647 -0.0885
  919loPI   C3B14035   9.178  13.771   7.072  0.0176  0.3017  0.1402
  919loPI   C4B14036   9.148  13.950   7.429 -0.0481 -0.1373 -0.2120
  920loPI    C114037  13.628   3.543   5.448  0.0521 -0.2281 -0.1783
  920loPI    C214038  13.427   3.555   5.102  0.0372  0.1683 -0.1602
  920loPI    C314039  13.640   3.872   5.222  0.4089 -0.1258 -0.0185
  920loPI   PO414040  13.532   3.427   5.685  0.0590 -0.0120  0.1409
  920loPI   GL114041  13.351   3.464   5.997  0.0083 -0.1562 -0.1118
  920loPI   GL214042  13.604   3.375   6.204 -0.1774 -0.2745 -0.0036
  920loPI   C1A14043  13.168   3.653   6.342  0.0271 -0.1199 -0.0178
  920loPI   C2A14044  13.029   3.899   6.852 -0.0397  0.0697  0.0038
  920loPI   C3A14045  13.154   3.773   7.278 -0.0071  0.1211  0.3813
  920loPI   C4A14046  13.560   3.653   7.479  0.2777 -0.0060  0.0089
  920loPI   C5A14047  13.769   3.298   7.486  0.1076  0.3130 -0.2135
  920loPI   C6A14048  13.907   3.002   7.908  0.1209  0.1026 -0.1985
  920loPI   C1B14049  13.811   3.536   6.552  0.1943  0.0777 -0.1735
  920loPI   C2B14050  13.570   3.882   6.731 -0.0789 -0.5668 -0.0991
  920loPI   C3B14051  13.643   4.076   7.154 -0.0887  0.2452 -0.2634
  920loPI   C4B14052  13.765   4.207   7.604 -0.3243 -0.0910  0.0158
  921loPI    C114053  12.269  12.808   4.858  0.2300 -0.1158  0.0730
  921loPI    C214054  12.328  12.600   4.521  0.1893  0.0137 -0.0147
  921loPI    C314055  12.488  12.965   4.562 -0.0085  0.0994  0.0072
  921loPI   PO414056  12.022  12.750   4.885  0.1660  0.1390 -0.0252
  921loPI   GL114057  12.073  12.562   5.303  0.1058 -0.0886 -0.0988
  921loPI   GL214058  12.309  12.696   5.441 -0.0074 -0.2553  0.2357
  921loPI   C1A14059  12.199  12.314   5.740  0.0991  0.1783  0.2011
  921loPI   C2A14060  12.174  12.476   6.198  0.1212  0.2142  0.1281
  921loPI   C3A14061  12.464  12.613   6.421 -0.0496  0.1557  0.2192
  921loPI   C4A14062  12.782  12.469   6.573  0.1729  0.0061  0.2168
  921loPI   C5A14063  13.160  12.663   6.765 -0.0759 -0.1300 -0.2160
  921loPI   C6A14064  13.140  13.132   6.930  0.1629 -0.0252 -0.1215
  921loPI   C1B14065  12.036  12.811   5.874 -0.2073  0.0706  0.1343
  921loPI   C2B14066  12.171  12.994   6.242 -0.2319  0.1965  0.0424
  921loPI   C3B14067  12.112  13.027   6.647 -0.2435 -0.0502 -0.1107
  921loPI   C4B14068  12.304  12.900   7.063 -0.0606 -0.0069 -0.1506
  922loPI    C114069  18.403   2.842   5.141 -0.0363  0.0494  0.0620
  922loPI    C214070  18.549   2.527   4.943 -0.0597  0.1908 -0.1847
  922loPI    C314071  18.795   2.763   5.152 -0.0461 -0.0052  0.0251
  922loPI   PO414072  18.174   2.972   4.997  0.0041 -0.0924 -0.1620
  922loPI   GL114073  17.924   3.286   5.188  0.2162  0.0149  0.1121
  922loPI   GL214074  18.124   3.395   5.338  0.4293 -0.1249  0.1999
  922loPI   C1A14075  18.014   3.042   5.625  0.0040  0.0280  0.3332
  922loPI   C2A14076  17.954   3.069   6.067  0.2540 -0.1153  0.0326
  922loPI   C3A14077  17.712   3.152   6.478 -0.0557  0.2396 -0.0417
  922loPI   C4A14078  17.807   3.209   6.931  0.0143 -0.1258  0.2489
  922loPI   C5A14079  17.986   3.028   7.298 -0.2635  0.2292  0.0703
  922loPI   C6A14080  17.785   2.828   7.796 -0.0596  0.0375 -0.2116
  922loPI   C1B14081  18.151   3.557   5.810 -0.0187  0.0875  0.0911
  922loPI   C2B14082  17.966   3.523   6.212  0.0032  0.0036  0.1279
  922loPI   C3B14083  17.824   3.659   6.654 -0.1133  0.2435 -0.2023
  922loPI   C4B14084  17.963   3.619   7.078 -0.1322  0.0688  0.0358
  923loPI    C114085   5.501  13.312   5.013  0.0669 -0.0282 -0.0519
  923loPI    C214086   5.132  13.282   5.165  0.0787 -0.0930 -0.0357
  923loPI    C314087   5.425  13.449   5.381  0.0977 -0.1933  0.0169
  923loPI   PO414088   5.495  13.097   4.928 -0.1281  0.0665 -0.4753
  923loPI   GL114089   5.291  12.791   5.238 -0.2942 -0.1236 -0.1323
  923loPI   GL214090   5.457  12.934   5.396  0.1832 -0.0749 -0.0817
  923loPI   C1A14091   5.125  12.552   5.654  0.0792 -0.0228 -0.0261
  923loPI   C2A14092   5.199  12.486   6.037 -0.3041 -0.0029  0.4822
  923loPI   C3A14093   5.027  12.486   6.502 -0.0994  0.2457  0.1798
  923loPI   C4A14094   5.097  12.591   6.937  0.1333  0.0554 -0.1959
  923loPI   C5A14095   5.389  12.503   7.185  0.1334  0.2674  0.2367
  923loPI   C6A14096   5.665  12.299   7.375 -0.3843  0.0222  0.0796
  923loPI   C1B14097   5.423  13.025   5.800  0.3816  0.1109  0.3922
  923loPI   C2B14098   5.351  12.971   6.114 -0.0443  0.1531  0.0517
  923loPI   C3B14099   5.432  12.845   6.454  0.0279  0.0470 -0.1469
  923loPI   C4B14100   5.665  12.700   6.796 -0.1866  0.1460  0.1029
  924loPI    C114101   3.689   6.575   5.121  0.1259 -0.2739 -0.0327
  924loPI    C214102   3.782   6.630   4.735  0.0223 -0.2081 -0.0486
  924loPI    C314103   3.777   6.261   4.890  0.0686 -0.2342 -0.1089
  924loPI   PO414104   3.561   6.952   5.179 -0.1913  0.0561  0.0854
  924loPI   GL114105   3.601   7.320   5.462 -0.1351  0.3609  0.2494
  924loPI   GL214106   3.877   7.467   5.503  0.3325 -0.1232 -0.2438
  924loPI   C1A14107   3.462   7.414   5.903 -0.0295 -0.0194 -0.2525
  924loPI   C2A14108   3.436   7.398   6.288  0.0592 -0.3093 -0.0889
  924loPI   C3A14109   3.498   7.547   6.748 -0.1076  0.1211  0.0295
  924loPI   C4A14110   3.653   7.708   7.152  0.2131 -0.0333  0.1283
  924loPI   C5A14111   3.748   8.012   7.364 -0.3792 -0.1072  0.1855
  924loPI   C6A14112   4.254   8.032   7.437  0.0370 -0.3267  0.0792
  924loPI   C1B14113   3.945   7.257   6.016  0.0108 -0.5046  0.0751
  924loPI   C2B14114   3.905   7.425   6.393 -0.2765 -0.2060  0.0119
  924loPI   C3B14115   3.982   7.607   6.775 -0.1021 -0.0119  0.2205
  924loPI   C4B14116   4.216   7.570   7.087 -0.1121 -0.0550 -0.0040
  925loPI    C114117  17.372  10.574   4.810 -0.2921 -0.0075  0.0694
  925loPI    C214118  17.251  10.363   4.493  0.0289  0.0251 -0.0780
  925loPI    C314119  17.352  10.747   4.450  0.2512 -0.0199  0.0252
  925loPI   PO414120  17.454  10.367   4.973  0.4523  0.1233  0.2662
  925loPI   GL114121  17.601  10.565   5.302 -0.1858 -0.1754 -0.0249
  925loPI   GL214122  17.325  10.719   5.364  0.0071  0.0010  0.3106
  925loPI   C1A14123  17.646  10.422   5.710 -0.0719  0.0809  0.0354
  925loPI   C2A14124  17.437  10.430   6.044 -0.1416 -0.0722  0.0701
  925loPI   C3A14125  17.638  10.456   6.450 -0.3370  0.0290  0.1250
  925loPI   C4A14126  17.767  10.426   6.900 -0.1540 -0.1034  0.1574
  925loPI   C5A14127  17.881  10.564   7.282 -0.2906  0.5355  0.1346
  925loPI   C6A14128  18.201  10.419   7.591  0.1274 -0.0282 -0.1928
  925loPI   C1B14129  17.253  10.793   5.833  0.3304  0.2351 -0.3888
  925loPI   C2B14130  17.299  10.844   6.341  0.0618 -0.1104  0.2554
  925loPI   C3B14131  17.518  10.957   6.696  0.3396  0.0932  0.1809
  925loPI   C4B14132  17.577  10.833   7.065  0.2298  0.1930 -0.2135
  926loPI    C114133   6.962  13.987   4.840 -0.0089  0.1140 -0.0808
  926loPI    C214134   7.074  13.605   4.794  0.0905  0.1711 -0.3262
  926loPI    C314135   6.695  13.712   4.722 -0.0031  0.0726  0.0016
  926loPI   PO414136   7.071  14.070   5.073 -0.1073  0.0402 -0.1252
  926loPI   GL114137   7.217  13.935   5.560  0.0055  0.0479 -0.1636
  926loPI   GL214138   6.883  14.003   5.575 -0.0934  0.1446  0.0843
  926loPI   C1A14139   7.271  13.910   6.003  0.2502  0.1960 -0.0696
  926loPI   C2A14140   7.317  13.674   6.376 -0.0377 -0.0403  0.1665
  926loPI   C3A14141   7.266  13.611   6.736 -0.0728  0.0798  0.2193
  926loPI   C4A14142   7.184  13.649   7.147 -0.1617  0.0798  0.2232
  926loPI   C5A14143   7.406  14.041   7.370 -0.1918  0.3990  0.0817
  926loPI   C6A14144   7.778  14.296   7.160  0.2587  0.3413  0.0658
  926loPI   C1B14145   6.828  14.146   5.999  0.0050 -0.2794 -0.0305
  926loPI   C2B14146   6.940  14.027   6.442  0.0378  0.2187 -0.0826
  926loPI   C3B14147   6.747  14.052   6.808  0.3236 -0.2083 -0.3211
  926loPI   C4B14148   6.724  14.315   7.126 -0.1044 -0.4709  0.2371
  927loPI    C114149  10.610   3.930   5.128  0.2888  0.0029  0.1931
  927loPI    C214150  10.728   3.862   4.752  0.1026  0.0433  0.1261
  927loPI    C314151  10.483   4.167   4.832  0.0185 -0.0577  0.2578
  927loPI   PO414152  10.814   3.882   5.313 -0.1120  0.0077 -0.1748
  927loPI   GL114153  11.005   3.856   5.772 -0.0010  0.0259 -0.0059
  927loPI   GL214154  11.357   3.683   5.727  0.1474 -0.0601  0.4540
  927loPI   C1A14155  10.788   3.913   6.202  0.0050 -0.1324  0.0696
  927loPI   C2A14156  10.726   4.061   6.575  0.2584  0.1829  0.2369
  927loPI   C3A14157  10.541   4.290   6.856  0.1641 -0.0935  0.1693
  927loPI   C4A14158  10.726   4.480   7.212 -0.1072  0.0506  0.0139
  927loPI   C5A14159  10.496   4.812   7.364 -0.0634  0.2516  0.0101
  927loPI   C6A14160  10.453   4.976   7.767 -0.1154 -0.1311 -0.2021
  927loPI   C1B14161  11.299   3.656   6.170  0.1405  0.0270 -0.1991
  927loPI   C2B14162  11.178   3.758   6.646 -0.0325 -0.0315 -0.1546
  927loPI   C3B14163  11.194   3.507   6.931 -0.2575 -0.3029 -0.1589
  927loPI   C4B14164  11.105   3.521   7.286 -0.0664  0.0686  0.1032
  928loPI    C114165   0.844  14.269   4.900  0.0973  0.1882 -0.0089
  928loPI    C214166   1.054  14.057   4.634 -0.1835 -0.0615 -0.0367
  928loPI    C314167   0.833  14.367   4.512  0.0160  0.0838 -0.0335
  928loPI   PO414168   0.750  14.072   5.031  0.0167 -0.0339 -0.1183
  928loPI   GL114169   0.847  13.929   5.411  0.1169  0.1906  0.1875
  928loPI   GL214170   0.575  13.756   5.446  0.0173  0.0663  0.2495
  928loPI   C1A14171   1.182  13.932   5.836  0.0896  0.0756  0.2086
  928loPI   C2A14172   1.070  13.819   6.256  0.0903 -0.1629  0.0193
  928loPI   C3A14173   1.220  13.615   6.675 -0.1626  0.2082  0.1609
  928loPI   C4A14174   1.340  13.463   6.980  0.1650 -0.1931  0.3527
  928loPI   C5A14175   1.169  13.624   7.407 -0.1309 -0.0118 -0.2103
  928loPI   C6A14176   0.896  14.014   7.468  0.0529  0.1986  0.0748
  928loPI   C1B14177   0.664  13.799   5.897 -0.0437  0.2979  0.1164
  928loPI   C2B14178   0.484  13.858   6.249  0.1956  0.3628 -0.1676
  928loPI   C3B14179   0.247  13.673   6.630 -0.0205 -0.6065  0.1087
  928loPI   C4B14180  -0.010  13.323   6.881 -0.0764 -0.4125 -0.1385
  929loPI    C114181   3.523  10.002   4.746 -0.1187  0.1625 -0.0379
  929loPI    C214182   3.689  10.349   4.637  0.3719 -0.0086  0.1337
  929loPI    C314183   3.530  10.108   4.360  0.0596  0.3300  0.0094
  929loPI   PO414184   3.469  10.031   4.964 -0.3128  0.0240  0.2799
  929loPI   GL114185   3.672  10.086   5.401 -0.1032  0.2528 -0.0163
  929loPI   GL214186   3.868   9.929   5.409 -0.0454  0.2550  0.0103
  929loPI   C1A14187   3.394  10.369   5.559 -0.2602  0.0617  0.0646
  929loPI   C2A14188   3.156  10.479   5.999  0.2981 -0.3270 -0.0817
  929loPI   C3A14189   2.808  10.446   6.329 -0.0376 -0.1846 -0.2028
  929loPI   C4A14190   2.792  10.788   6.602 -0.3476  0.1151 -0.4831
  929loPI   C5A14191   2.879  10.911   7.043  0.2347  0.1861  0.1017
  929loPI   C6A14192   3.224  10.780   7.279 -0.1000 -0.1209 -0.0898
  929loPI   C1B14193   3.907   9.795   5.868  0.0864  0.0636 -0.1883
  929loPI   C2B14194   4.016   9.905   6.204  0.3277  0.2539 -0.0180
  929loPI   C3B14195   4.318  10.029   6.578  0.1466 -0.0938  0.2834
  929loPI   C4B14196   4.426   9.919   7.016  0.1308 -0.1090  0.0067
  930loPI    C114197  14.800   0.657   4.892 -0.2972  0.0679 -0.1140
  930loPI    C214198  14.723   0.513   4.527 -0.0616  0.0254 -0.1485
  930loPI    C314199  14.835   0.894   4.572 -0.1330  0.0426 -0.1157
  930loPI   PO414200  15.002   0.479   5.045 -0.1848 -0.0635  0.0211
  930loPI   GL114201  15.012   0.216   5.500  0.2283  0.1127  0.2855
  930loPI   GL214202  14.931   0.056   5.710  0.1110  0.0395  0.2954
  930loPI   C1A14203  15.244   0.492   5.732 -0.0933  0.0768  0.3492
  930loPI   C2A14204  15.354   0.621   6.208  0.0836  0.7220 -0.0072
  930loPI   C3A14205  15.377   0.593   6.544 -0.0713 -0.2125  0.2192
  930loPI   C4A14206  15.285   0.576   6.968  0.1120 -0.1181  0.0102
  930loPI   C5A14207  14.868   0.424   7.178  0.0154  0.2325 -0.1560
  930loPI   C6A14208  14.530   0.591   7.317  0.0825 -0.0247 -0.0692
  930loPI   C1B14209  15.056   0.203   6.154 -0.2454 -0.1695  0.3895
  930loPI   C2B14210  15.357   0.062   6.487 -0.4430 -0.0072 -0.1634
  930loPI   C3B14211  15.625   0.024   6.762  0.2153 -0.0923  0.1219
  930loPI   C4B14212  15.900   0.063   7.155  0.0668 -0.0655  0.1938
  931loPI    C114213  12.797   1.720   4.953  0.0357  0.1603 -0.2376
  931loPI    C214214  13.035   2.024   4.851 -0.0357  0.1725 -0.3706
  931loPI    C314215  13.009   1.702   4.615  0.1498 -0.0013 -0.1591
  931loPI   PO414216  12.839   1.693   5.242 -0.4009  0.0380 -0.0402
  931loPI   GL114217  13.102   1.727   5.577  0.1004  0.5895 -0.0502
  931loPI   GL214218  13.017   1.980   5.785 -0.0841  0.1990  0.2292
  931loPI   C1A14219  13.224   1.547   6.022 -0.2954  0.1131  0.0429
  931loPI   C2A14220  13.164   1.516   6.372 -0.1630 -0.0729  0.1851
  931loPI   C3A14221  13.432   1.435   6.759 -0.1018  0.3718  0.1805
  931loPI   C4A14222  13.496   1.371   7.207 -0.3319  0.4126 -0.0249
  931loPI   C5A14223  13.626   1.600   7.479  0.0061  0.0988  0.0607
  931loPI   C6A14224  13.768   2.057   7.656 -0.0803  0.0151  0.3395
  931loPI   C1B14225  12.874   2.022   6.228 -0.1062  0.3882 -0.4386
  931loPI   C2B14226  13.078   2.142   6.525  0.0693  0.0652  0.1165
  931loPI   C3B14227  13.260   2.000   6.854 -0.1044  0.3457  0.0433
  931loPI   C4B14228  13.689   1.849   7.026 -0.2442  0.1427  0.1560
  932loPI    C114229  14.911   5.793   5.203 -0.0817  0.2600  0.0983
  932loPI    C214230  14.812   6.168   5.104 -0.3186  0.1716 -0.0070
  932loPI    C314231  14.583   5.863   4.984 -0.0782 -0.0149  0.0021
  932loPI   PO414232  15.160   5.818   5.340  0.0394 -0.1300 -0.0571
  932loPI   GL114233  15.407   5.979   5.664 -0.0621  0.0545 -0.0245
  932loPI   GL214234  15.386   5.765   5.988 -0.2209  0.1783  0.1857
  932loPI   C1A14235  15.101   6.191   6.023  0.1955  0.0640 -0.4140
  932loPI   C2A14236  15.035   6.261   6.401 -0.2193 -0.0102  0.0230
  932loPI   C3A14237  14.884   6.149   6.742  0.0913 -0.2416  0.0878
  932loPI   C4A14238  15.044   6.322   7.128  0.1085 -0.1908 -0.2376
  932loPI   C5A14239  15.045   6.364   7.502 -0.2044 -0.0431  0.1546
  932loPI   C6A14240  15.236   6.735   7.741 -0.3188 -0.0658  0.0311
  932loPI   C1B14241  15.729   5.797   6.252  0.1182 -0.0729 -0.0715
  932loPI   C2B14242  15.892   5.978   6.612  0.0109 -0.2552  0.1129
  932loPI   C3B14243  15.938   6.049   7.047 -0.1435  0.0254 -0.0623
  932loPI   C4B14244  16.073   6.008   7.486  0.0412 -0.2090 -0.0581
  933loPI    C114245   9.836   4.991   4.936 -0.1244 -0.0170 -0.1931
  933loPI    C214246   9.522   5.192   4.790 -0.1335 -0.1011 -0.2906
  933loPI    C314247   9.890   5.267   4.651 -0.0622  0.2436  0.0667
  933loPI   PO414248   9.861   5.021   5.197 -0.0655  0.1016 -0.2060
  933loPI   GL114249   9.725   5.015   5.658 -0.1499 -0.2833 -0.0545
  933loPI   GL214250   9.333   4.914   5.639 -0.0608 -0.0461  0.1021
  933loPI   C1A14251   9.796   5.071   6.108  0.1676  0.0465 -0.1531
  933loPI   C2A14252  10.004   5.157   6.507 -0.0467  0.0900  0.0713
  933loPI   C3A14253  10.177   5.426   6.812 -0.0644  0.0435  0.4660
  933loPI   C4A14254   9.977   5.654   7.219  0.1862  0.0041  0.0654
  933loPI   C5A14255   9.914   6.072   7.315  0.0966  0.2003  0.0723
  933loPI   C6A14256   9.867   6.340   7.711 -0.0020  0.0125  0.0838
  933loPI   C1B14257   9.028   4.894   5.881  0.1897 -0.0583 -0.1307
  933loPI   C2B14258   8.717   4.759   6.184 -0.3421 -0.2031 -0.0223
  933loPI   C3B14259   8.588   4.639   6.569  0.4006  0.4451  0.0353
  933loPI   C4B14260   8.429   4.778   6.933  0.1446 -0.0357  0.1234
  934loPI    C114261  16.613   3.214   4.833 -0.0429 -0.0375  0.1506
  934loPI    C214262  16.753   2.934   4.585  0.1022  0.0466  0.1360
  934loPI    C314263  16.453   2.848   4.835 -0.0085 -0.0547 -0.0287
  934loPI   PO414264  16.835   3.349   4.851  0.1228 -0.0307 -0.3473
  934loPI   GL114265  17.116   3.472   5.167  0.1790 -0.1791 -0.3244
  934loPI   GL214266  16.912   3.718   5.470  0.0876  0.0348  0.1300
  934loPI   C1A14267  17.123   3.219   5.547 -0.1973  0.1309  0.0555
  934loPI   C2A14268  17.035   3.064   6.025  0.0129  0.0059  0.2127
  934loPI   C3A14269  17.176   3.011   6.443  0.3359 -0.2473  0.1780
  934loPI   C4A14270  17.261   3.104   6.874 -0.1323  0.1168  0.0549
  934loPI   C5A14271  17.479   3.287   7.272  0.3073  0.0931 -0.3172
  934loPI   C6A14272  17.647   3.347   7.653 -0.1369  0.3374 -0.3171
  934loPI   C1B14273  17.086   3.714   5.901 -0.1550 -0.2428 -0.1009
  934loPI   C2B14274  16.957   3.916   6.268 -0.0778  0.1934 -0.1397
  934loPI   C3B14275  16.946   3.823   6.686 -0.0455  0.1835  0.1188
  934loPI   C4B14276  17.089   3.991   7.109  0.1411 -0.0479  0.0442
  935loPI    C114277  16.827   6.782   4.877 -0.2395 -0.1696  0.0318
  935loPI    C214278  16.500   6.901   4.681 -0.0718  0.0581 -0.1148
  935loPI    C314279  16.800   6.727   4.481 -0.0347 -0.0022 -0.0074
  935loPI   PO414280  16.842   6.965   5.080 -0.0365  0.0706 -0.1448
  935loPI   GL114281  17.075   6.975   5.426  0.1214 -0.1160  0.1498
  935loPI   GL214282  17.026   7.301   5.559 -0.1885 -0.1207  0.0977
  935loPI   C1A14283  17.222   6.703   5.800  0.0943 -0.2183  0.3084
  935loPI   C2A14284  16.961   6.605   6.078  0.0750 -0.2363  0.0898
  935loPI   C3A14285  16.742   6.519   6.467 -0.1101 -0.0245  0.2531
  935loPI   C4A14286  16.678   6.883   6.845 -0.1129  0.0217 -0.1281
  935loPI   C5A14287  16.489   7.034   7.262  0.0619 -0.0320 -0.1021
  935loPI   C6A14288  16.412   7.109   7.759  0.1473  0.3908 -0.1752
  935loPI   C1B14289  17.216   7.364   5.967 -0.1723  0.0318 -0.1103
  935loPI   C2B14290  17.357   6.975   6.237  0.2661  0.0754 -0.3099
  935loPI   C3B14291  17.386   6.878   6.555 -0.0538 -0.0499  0.0931
  935loPI   C4B14292  17.241   6.715   6.897 -0.1142 -0.0466  0.0627
  936loPI    C114293  11.912   0.157   5.021 -0.1594  0.2151  0.1645
  936loPI    C214294  12.122   0.329   4.728 -0.1265 -0.1624 -0.0396
  936loPI    C314295  11.732   0.406   4.766 -0.0974  0.0100 -0.0839
  936loPI   PO414296  11.904  -0.059   5.078 -0.2218 -0.1070 -0.0435
  936loPI   GL114297  11.883  -0.210   5.459 -0.0350 -0.0295 -0.0246
  936loPI   GL214298  12.107   0.119   5.542 -0.1110 -0.1263  0.3634
  936loPI   C1A14299  11.805  -0.403   5.880  0.0316 -0.0837 -0.2345
  936loPI   C2A14300  11.837  -0.620   6.250 -0.1804 -0.3383 -0.0252
  936loPI   C3A14301  11.816  -0.725   6.608 -0.2755  0.1195  0.0269
  936loPI   C4A14302  11.652  -0.995   6.953  0.0739  0.2937 -0.2305
  936loPI   C5A14303  11.522  -0.844   7.441 -0.1124  0.2175  0.0718
  936loPI   C6A14304  11.170  -0.643   7.519  0.2927 -0.0387  0.3257
  936loPI   C1B14305  12.094  -0.019   5.926  0.0909  0.0368 -0.0781
  936loPI   C2B14306  12.061  -0.197   6.421  0.1305  0.0015 -0.1412
  936loPI   C3B14307  12.078  -0.409   6.876  0.1398  0.1941  0.1835
  936loPI   C4B14308  11.882  -0.519   7.219  0.1251  0.1918 -0.0308
  937loPI    C114309  12.384  18.224   4.887  0.0368 -0.0279 -0.0580
  937loPI    C214310  12.105  18.276   5.169  0.0823  0.1144 -0.0384
  937loPI    C314311  12.045  18.418   4.800 -0.0196 -0.1570 -0.1281
  937loPI   PO414312  12.562  18.220   5.218 -0.1686  0.1486  0.2502
  937loPI   GL114313  12.623  18.496   5.526 -0.1784  0.1846 -0.5306
  937loPI   GL214314  12.339  18.510   5.606 -0.0290  0.2128  0.2554
  937loPI   C1A14315  12.758  18.566   5.937 -0.0375  0.0649  0.1503
  937loPI   C2A14316  12.514  18.806   6.296  0.1873  0.0806 -0.0543
  937loPI   C3A14317  12.637  19.124   6.570 -0.0688 -0.0546  0.0642
  937loPI   C4A14318  12.768  19.107   7.032  0.0005 -0.3776 -0.2538
  937loPI   C5A14319  13.055  18.813   7.247 -0.1308  0.1334 -0.1360
  937loPI   C6A14320  13.510  18.671   7.281 -0.1222  0.0497  0.1433
  937loPI   C1B14321  12.304  18.398   6.060  0.0618 -0.0232  0.1890
  937loPI   C2B14322  12.282  18.190   6.522 -0.0137 -0.2183 -0.0366
  937loPI   C3B14323  12.526  18.202   6.967 -0.2530  0.3937  0.2886
  937loPI   C4B14324  12.785  18.076   7.261 -0.0279 -0.0169  0.0997
  938loPI    C114325  17.807   2.935   4.635  0.1746 -0.0840 -0.2867
  938loPI    C214326  17.759   3.204   4.342  0.0272  0.1213 -0.0779
  938loPI    C314327  18.095   3.203   4.560  0.0038  0.1748 -0.0412
  938loPI   PO414328  17.474   2.875   4.636  0.2975  0.0760  0.0331
  938loPI   GL114329  17.157   2.992   4.952 -0.0893  0.1132  0.0427
  938loPI   GL214330  16.960   2.887   5.123  0.0551  0.0113  0.2268
  938loPI   C1A14331  17.546   3.020   5.257  0.2103  0.2552 -0.3263
  938loPI   C2A14332  17.456   2.855   5.789 -0.0619 -0.0894  0.0331
  938loPI   C3A14333  17.500   2.655   6.186 -0.1018 -0.1006  0.0896
  938loPI   C4A14334  17.566   2.669   6.674 -0.5571  0.2380 -0.1151
  938loPI   C5A14335  17.601   2.725   7.222 -0.1047 -0.0529 -0.2107
  938loPI   C6A14336  17.363   2.933   7.585 -0.0369  0.1658 -0.0801
  938loPI   C1B14337  17.058   2.761   5.525 -0.1858  0.2953  0.0070
  938loPI   C2B14338  17.033   2.478   5.909  0.0377 -0.1571 -0.1544
  938loPI   C3B14339  16.949   2.635   6.273 -0.0429  0.4011 -0.0013
  938loPI   C4B14340  16.465   2.455   6.390 -0.1255 -0.0493  0.0813
  939loPI    C114341   0.280   2.468   4.827 -0.1113  0.1106  0.1573
  939loPI    C214342   0.023   2.628   4.566  0.1207  0.1321 -0.0612
  939loPI    C314343   0.277   2.863   4.766  0.1188  0.0889 -0.0080
  939loPI   PO414344   0.164   2.328   4.953  0.2154  0.2373  0.0120
  939loPI   GL114345   0.049   2.339   5.322 -0.0961  0.0434 -0.1674
  939loPI   GL214346  -0.161   2.154   5.281  0.0170  0.0144 -0.0115
  939loPI   C1A14347  -0.065   2.264   5.756 -0.3123 -0.0338 -0.1128
  939loPI   C2A14348  -0.388   2.227   6.164  0.0091  0.1147  0.0053
  939loPI   C3A14349  -0.384   2.318   6.634 -0.1052  0.1003 -0.1464
  939loPI   C4A14350  -0.336   2.510   7.031  0.2093 -0.2567 -0.0839
  939loPI   C5A14351  -0.701   2.516   7.370  0.2382 -0.2408 -0.3698
  939loPI   C6A14352  -1.080   2.371   7.567 -0.1385  0.1340 -0.0896
  939loPI   C1B14353  -0.420   2.432   5.428  0.0124  0.1604 -0.2410
  939loPI   C2B14354  -0.276   2.723   5.697 -0.2206  0.3308 -0.0247
  939loPI   C3B14355  -0.305   2.699   6.181  0.4405 -0.1960  0.0165
  939loPI   C4B14356  -0.387   2.780   6.595  0.1382 -0.0247  0.2718
  940loPI    C114357   6.344   4.697   4.871 -0.0740  0.0718  0.1231
  940loPI    C214358   6.303   5.029   4.651 -0.0670 -0.1323 -0.1927
  940loPI    C314359   6.510   4.718   4.507 -0.0152 -0.2498  0.1283
  940loPI   PO414360   6.171   4.678   5.037 -0.0573  0.4763  0.0711
  940loPI   GL114361   6.099   4.655   5.481  0.1787  0.0673 -0.0100
  940loPI   GL214362   5.929   4.378   5.627  0.0207  0.2065  0.0340
  940loPI   C1A14363   6.151   4.808   5.804 -0.1373  0.0953  0.0557
  940loPI   C2A14364   6.150   4.832   6.314  0.0331 -0.0821 -0.1981
  940loPI   C3A14365   6.208   4.807   6.756  0.0924 -0.1725  0.0341
  940loPI   C4A14366   6.224   4.728   7.185  0.0281 -0.0404 -0.1319
  940loPI   C5A14367   6.159   4.982   7.576 -0.0386  0.0128 -0.3558
  940loPI   C6A14368   5.736   5.125   7.727 -0.0823  0.0138  0.2918
  940loPI   C1B14369   6.019   4.380   6.082 -0.0248  0.2978 -0.1178
  940loPI   C2B14370   6.088   4.338   6.442  0.1511 -0.1079  0.0035
  940loPI   C3B14371   6.190   4.227   6.897  0.1474 -0.1957  0.1004
  940loPI   C4B14372   6.173   4.255   7.345  0.0441  0.0854  0.1274
  941loPI    C114373   3.040   2.884   5.331  0.0590 -0.0035 -0.0633
  941loPI    C214374   3.234   3.130   5.580  0.1042  0.0903 -0.1904
  941loPI    C314375   3.392   2.775   5.486 -0.0311 -0.0529  0.1099
  941loPI   PO414376   2.800   2.870   5.346  0.0936  0.0078 -0.4658
  941loPI   GL114377   2.560   3.048   5.724 -0.2802  0.0711  0.2865
  941loPI   GL214378   2.140   3.029   5.680 -0.0889 -0.2092 -0.1193
  941loPI   C1A14379   2.706   2.919   6.190 -0.1999  0.0231  0.3488
  941loPI   C2A14380   2.781   2.936   6.563  0.3204  0.1267  0.3593
  941loPI   C3A14381   2.805   2.801   6.912  0.1053 -0.0291 -0.3222
  941loPI   C4A14382   2.810   2.789   7.427  0.0790  0.1574 -0.1903
  941loPI   C5A14383   2.568   2.918   7.759 -0.1722 -0.0840 -0.0943
  941loPI   C6A14384   2.431   3.226   7.810 -0.1632  0.1076  0.3347
  941loPI   C1B14385   2.277   3.063   6.108  0.2607 -0.0195  0.1896
  941loPI   C2B14386   2.273   3.077   6.560  0.0231  0.1883 -0.1523
  941loPI   C3B14387   2.412   3.138   6.925 -0.2451  0.2959  0.2655
  941loPI   C4B14388   2.345   2.940   7.258  0.0189 -0.2429  0.0909
  942loPI    C114389   6.680  17.851   5.075  0.1151  0.4636  0.1599
  942loPI    C214390   7.066  17.772   5.007  0.0209  0.2314 -0.1294
  942loPI    C314391   6.842  17.934   4.719 -0.1461  0.1808 -0.0292
  942loPI   PO414392   6.692  17.851   5.359 -0.3783  0.0476  0.2449
  942loPI   GL114393   7.045  17.823   5.602  0.1108  0.2239  0.0921
  942loPI   GL214394   6.954  17.413   5.593 -0.1025 -0.2054  0.1949
  942loPI   C1A14395   7.347  17.854   5.896 -0.0209  0.0850  0.1695
  942loPI   C2A14396   7.496  17.720   6.117  0.1064 -0.0902 -0.1283
  942loPI   C3A14397   7.491  17.407   6.341  0.1050  0.3195 -0.0442
  942loPI   C4A14398   7.396  17.367   6.793  0.0431 -0.0991  0.2318
  942loPI   C5A14399   7.416  17.130   7.135 -0.0969 -0.1324 -0.0848
  942loPI   C6A14400   7.500  16.723   7.387 -0.1075 -0.2350  0.2943
  942loPI   C1B14401   6.978  17.514   6.018 -0.4232  0.1325  0.3412
  942loPI   C2B14402   7.135  17.692   6.452  0.0245 -0.0612  0.2540
  942loPI   C3B14403   7.173  17.786   6.879  0.3110 -0.0270 -0.0239
  942loPI   C4B14404   7.281  17.631   7.309 -0.1387 -0.0181 -0.1339
  943loPI    C114405   5.538  18.686   5.032 -0.0806  0.0734 -0.2093
  943loPI    C214406   5.275  18.983   4.984 -0.0777  0.1135  0.0140
  943loPI    C314407   5.588  18.952   4.737 -0.3124  0.0402 -0.2804
  943loPI   PO414408   5.658  18.693   5.240  0.3167 -0.0624  0.1152
  943loPI   GL114409   5.607  18.878   5.679  0.0312  0.0683  0.1816
  943loPI   GL214410   5.884  18.931   5.604 -0.0211 -0.0767 -0.0283
  943loPI   C1A14411   5.573  18.791   6.037 -0.0273 -0.0650 -0.1149
  943loPI   C2A14412   5.702  18.645   6.434  0.2395 -0.0599 -0.1636
  943loPI   C3A14413   5.922  18.515   6.814 -0.0608 -0.1107 -0.0505
  943loPI   C4A14414   5.870  18.540   7.270  0.1523  0.1399 -0.0804
  943loPI   C5A14415   5.846  18.358   7.598 -0.1587 -0.0446  0.2478
  943loPI   C6A14416   5.905  18.102   7.974  0.2761  0.0274  0.2321
  943loPI   C1B14417   5.902  19.154   5.993 -0.0827  0.0908 -0.0150
  943loPI   C2B14418   6.074  19.003   6.360  0.1170  0.2215 -0.4291
  943loPI   C3B14419   6.232  18.940   6.783  0.1005 -0.1943  0.1793
  943loPI   C4B14420   6.155  18.921   7.265 -0.1239  0.0971  0.2713
  944loPI    C114421  16.544  11.617   5.009  0.1539  0.1885 -0.1051
  944loPI    C214422  16.612  11.955   4.805 -0.1606  0.0726 -0.4106
  944loPI    C314423  16.268  11.756   4.755 -0.1782 -0.0457  0.1193
  944loPI   PO414424  16.502  11.629   5.231 -0.2703 -0.2100  0.3362
  944loPI   GL114425  16.176  11.688   5.658  0.0027 -0.3601 -0.0105
  944loPI   GL214426  16.298  11.345   5.644 -0.1220  0.4298  0.4289
  944loPI   C1A14427  16.210  11.803   6.073 -0.2027 -0.2539  0.0444
  944loPI   C2A14428  16.090  11.910   6.476  0.0551  0.0258 -0.1553
  944loPI   C3A14429  15.947  11.954   6.883  0.1792  0.1164  0.0076
  944loPI   C4A14430  15.721  11.841   7.255  0.0700 -0.1946 -0.0305
  944loPI   C5A14431  15.341  11.760   7.559 -0.2959 -0.0835 -0.0018
  944loPI   C6A14432  15.245  11.494   7.915  0.1293 -0.0419  0.1003
  944loPI   C1B14433  16.386  11.356   6.020  0.0156 -0.0002 -0.2986
  944loPI   C2B14434  16.360  11.338   6.505  0.2376  0.1015  0.1838
  944loPI   C3B14435  16.445  11.398   6.943  0.1707  0.0583 -0.1592
  944loPI   C4B14436  16.645  11.629   7.318  0.4054 -0.2857 -0.1082
  945loPI    C114437  16.602   2.264   4.891  0.0235  0.4938  0.0423
  945loPI    C214438  16.558   2.453   4.541 -0.3600  0.1787 -0.0881
  945loPI    C314439  16.264   2.221   4.681 -0.0160 -0.0912  0.2074
  945loPI   PO414440  16.673   2.450   5.076  0.0479  0.2513  0.0378
  945loPI   GL114441  16.537   2.706   5.399  0.1782  0.0682 -0.0359
  945loPI   GL214442  16.475   2.429   5.499  0.0740  0.4324 -0.3170
  945loPI   C1A14443  16.653   2.823   5.813  0.0503 -0.0824  0.1085
  945loPI   C2A14444  16.558   3.005   6.128 -0.0082  0.2081 -0.0473
  945loPI   C3A14445  16.607   2.959   6.578 -0.1404  0.1362  0.0569
  945loPI   C4A14446  16.596   2.575   6.964  0.0032 -0.2905  0.0560
  945loPI   C5A14447  16.827   2.245   6.939  0.0495  0.3812  0.0975
  945loPI   C6A14448  16.895   1.970   6.696  0.2580 -0.0068 -0.0945
  945loPI   C1B14449  16.599   2.126   5.868  0.1660  0.2481 -0.0600
  945loPI   C2B14450  16.591   1.994   6.303  0.3134 -0.0222  0.0562
  945loPI   C3B14451  16.430   1.959   6.675  0.4536  0.2225  0.0313
  945loPI   C4B14452  16.321   1.940   7.083 -0.1182 -0.1623  0.3267
  946loPI    C114453   1.900   0.301   5.023 -0.0724  0.0015  0.0441
  946loPI    C214454   1.682   0.493   4.748  0.1253  0.0427 -0.0859
  946loPI    C314455   2.042   0.347   4.652  0.1025 -0.1355  0.0927
  946loPI   PO414456   1.820   0.397   5.290  0.0174  0.0804  0.1386
  946loPI   GL114457   1.815   0.352   5.766  0.2562  0.3381  0.2326
  946loPI   GL214458   1.513   0.477   5.599  0.2005  0.1628  0.0432
  946loPI   C1A14459   1.800   0.208   6.182  0.0027 -0.0280 -0.0203
  946loPI   C2A14460   1.833   0.152   6.705  0.1709  0.0099 -0.0114
  946loPI   C3A14461   1.973  -0.011   7.035  0.1758 -0.0532  0.2895
  946loPI   C4A14462   1.902  -0.150   7.481  0.0518  0.3098 -0.2740
  946loPI   C5A14463   1.749  -0.156   7.869 -0.1988 -0.0300 -0.2774
  946loPI   C6A14464   1.733  -0.426   8.242  0.1094  0.2051  0.0567
  946loPI   C1B14465   1.337   0.346   6.017  0.0449 -0.0001 -0.0289
  946loPI   C2B14466   1.326   0.254   6.411 -0.1181  0.0734 -0.2115
  946loPI   C3B14467   1.247   0.099   6.774  0.0370  0.1825  0.0537
  946loPI   C4B14468   1.090  -0.028   7.170  0.3464  0.0144  0.2767
  947loPI    C114469   5.396   2.293   5.025  0.1279  0.1522 -0.1436
  947loPI    C214470   5.089   2.094   5.187  0.2537  0.0493 -0.0299
  947loPI    C314471   5.145   2.087   4.791  0.1120  0.0651 -0.0506
  947loPI   PO414472   5.654   2.255   5.206  0.0203  0.4755  0.2528
  947loPI   GL114473   5.418   2.269   5.613  0.2528 -0.3158 -0.0075
  947loPI   GL214474   5.698   2.445   5.678  0.0992 -0.2641  0.1695
  947loPI   C1A14475   5.708   1.947   5.940 -0.1407  0.1200  0.2151
  947loPI   C2A14476   5.718   1.741   6.346  0.1387  0.0519  0.0663
  947loPI   C3A14477   5.842   1.505   6.729  0.0328 -0.0942 -0.2158
  947loPI   C4A14478   5.857   1.369   7.179  0.0622 -0.0713  0.2503
  947loPI   C5A14479   5.617   0.970   7.275  0.2595 -0.2548 -0.3729
  947loPI   C6A14480   5.352   0.647   7.022  0.1332  0.1226 -0.1115
  947loPI   C1B14481   5.867   2.385   6.047  0.4346  0.1279 -0.0789
  947loPI   C2B14482   5.852   2.236   6.506  0.2609 -0.0822 -0.2410
  947loPI   C3B14483   5.642   1.954   6.771 -0.1073 -0.0579 -0.0115
  947loPI   C4B14484   5.457   1.918   7.158  0.0742 -0.1598  0.2391
  948loPI    C114485   4.490   6.846   5.103  0.0472  0.0657 -0.1024
  948loPI    C214486   4.526   6.831   4.705 -0.0191  0.3630 -0.1215
  948loPI    C314487   4.166   6.882   4.871 -0.0244 -0.0018 -0.0134
  948loPI   PO414488   4.688   7.037   5.167 -0.1460 -0.1376 -0.3959
  948loPI   GL114489   4.608   7.226   5.564 -0.1824 -0.1447 -0.2014
  948loPI   GL214490   4.462   6.822   5.603  0.1649  0.2099  0.1608
  948loPI   C1A14491   4.399   7.262   5.947 -0.0989 -0.0110  0.1543
  948loPI   C2A14492   4.499   7.475   6.267 -0.1242 -0.1957  0.2660
  948loPI   C3A14493   4.500   7.594   6.600  0.1859  0.0745  0.0469
  948loPI   C4A14494   4.559   7.911   6.899  0.1810 -0.5235  0.3084
  948loPI   C5A14495   4.600   8.363   7.005  0.0551  0.0727 -0.2423
  948loPI   C6A14496   4.356   8.650   6.824 -0.1062 -0.1205  0.0456
  948loPI   C1B14497   4.665   6.735   5.929  0.1696  0.2766 -0.7721
  948loPI   C2B14498   4.725   6.778   6.357 -0.0711  0.0101 -0.3675
  948loPI   C3B14499   4.771   7.134   6.599  0.2406  0.0401  0.1803
  948loPI   C4B14500   4.587   7.293   6.962  0.1053  0.0551 -0.1468
  949loPI    C114501   8.863  10.694   4.914 -0.4894  0.0731  0.0052
  949loPI    C214502   9.033  11.056   4.925 -0.0404 -0.1349  0.1337
  949loPI    C314503   8.797  10.956   4.618  0.1207  0.1398 -0.0847
  949loPI   PO414504   9.054  10.553   5.012 -0.0425  0.0262 -0.2733
  949loPI   GL114505   9.135  10.755   5.336 -0.2580 -0.5757  0.2421
  949loPI   GL214506   9.232  11.006   5.463  0.1893 -0.1442  0.3668
  949loPI   C1A14507   8.980  10.542   5.708 -0.0502  0.0743 -0.1949
  949loPI   C2A14508   8.916  10.603   6.112  0.0883  0.1802 -0.2110
  949loPI   C3A14509   9.074  10.626   6.554 -0.1636  0.3793  0.0107
  949loPI   C4A14510   9.122  10.460   6.919  0.0044  0.1113 -0.0900
  949loPI   C5A14511   8.946  10.587   7.333  0.0246 -0.1050  0.3009
  949loPI   C6A14512   8.622  10.545   7.696  0.0827  0.0487 -0.0942
  949loPI   C1B14513   8.925  11.134   5.765  0.0084 -0.1473 -0.2347
  949loPI   C2B14514   9.049  11.151   6.187  0.2487 -0.1532  0.0888
  949loPI   C3B14515   9.134  11.126   6.631  0.1185 -0.2139  0.4516
  949loPI   C4B14516   9.046  11.017   7.081 -0.1672  0.0159 -0.1057
  950loPI    C114517   5.722  14.086   4.980  0.0818  0.0924  0.0196
  950loPI    C214518   6.069  14.119   5.176  0.2160  0.0409 -0.2059
  950loPI    C314519   5.963  14.397   4.908 -0.0546  0.2111  0.0713
  950loPI   PO414520   5.610  13.986   5.193  0.1461  0.0679  0.0135
  950loPI   GL114521   5.684  13.992   5.518 -0.2315 -0.0504  0.2079
  950loPI   GL214522   5.929  13.909   5.655 -0.2406 -0.0089 -0.2828
  950loPI   C1A14523   5.854  14.042   6.080  0.0224  0.2140 -0.0061
  950loPI   C2A14524   6.060  14.347   6.341  0.0106  0.0346  0.2477
  950loPI   C3A14525   5.972  14.444   6.733  0.2867 -0.1589 -0.0681
  950loPI   C4A14526   5.904  14.142   7.031 -0.0687  0.2831 -0.1301
  950loPI   C5A14527   5.406  14.013   7.316  0.0178 -0.0747 -0.1488
  950loPI   C6A14528   5.083  13.954   7.547 -0.1759 -0.0553  0.1629
  950loPI   C1B14529   6.020  14.314   5.652 -0.0418 -0.2508 -0.1515
  950loPI   C2B14530   6.337  14.566   5.866  0.2412 -0.1093 -0.0864
  950loPI   C3B14531   6.596  14.546   6.265 -0.0135 -0.1582 -0.0875
  950loPI   C4B14532   6.504  14.488   6.683 -0.2288  0.0077 -0.0557
  951loPI    C114533   4.119   3.435   5.612  0.0226  0.1136 -0.0496
  951loPI    C214534   4.115   3.459   5.213 -0.0771  0.2642 -0.0408
  951loPI    C314535   3.919   3.731   5.431 -0.1503  0.0950  0.1073
  951loPI   PO414536   4.290   3.330   5.693  0.2031  0.3428 -0.0458
  951loPI   GL114537   4.227   2.949   5.938  0.1375  0.2218  0.2546
  951loPI   GL214538   4.571   2.977   6.078 -0.0993  0.2280  0.0235
  951loPI   C1A14539   4.164   2.768   6.224 -0.0391  0.2418  0.1086
  951loPI   C2A14540   4.067   2.720   6.521 -0.0217 -0.1107 -0.1324
  951loPI   C3A14541   4.066   2.738   6.941 -0.0980  0.0217  0.2307
  951loPI   C4A14542   3.632   2.620   7.048  0.0237 -0.0295 -0.2197
  951loPI   C5A14543   3.601   2.211   7.152  0.0449 -0.1061  0.0133
  951loPI   C6A14544   3.577   1.914   7.596  0.0214 -0.1739  0.0372
  951loPI   C1B14545   4.455   3.167   6.403  0.0358 -0.3184  0.1268
  951loPI   C2B14546   4.487   3.279   6.753 -0.0181  0.4314  0.0221
  951loPI   C3B14547   4.127   3.293   7.066 -0.1048  0.0833 -0.3038
  951loPI   C4B14548   3.735   3.562   7.210 -0.0283  0.2059 -0.0764
  952loPI    C114549   2.285  10.236   4.901  0.0149 -0.1559  0.2099
  952loPI    C214550   2.656  10.272   4.755 -0.1143  0.2316 -0.0380
  952loPI    C314551   2.367  10.112   4.529 -0.1263  0.0350  0.1137
  952loPI   PO414552   2.273  10.431   5.009  0.1579 -0.3756 -0.2812
  952loPI   GL114553   2.309  10.765   5.277  0.1813  0.0025 -0.0967
  952loPI   GL214554   2.658  10.849   5.360 -0.0873  0.0267 -0.2038
  952loPI   C1A14555   2.229  10.901   5.650 -0.1561 -0.4571  0.4342
  952loPI   C2A14556   2.028  10.843   6.075  0.0510  0.0507 -0.2276
  952loPI   C3A14557   1.876  10.851   6.459  0.4317 -0.1398 -0.4600
  952loPI   C4A14558   1.721  10.793   6.926  0.2233 -0.0201  0.3068
  952loPI   C5A14559   1.626  10.397   7.095  0.3140  0.1468  0.0831
  952loPI   C6A14560   1.382  10.179   7.395  0.1085  0.0208 -0.1510
  952loPI   C1B14561   2.910  10.975   5.732  0.1164  0.1687  0.0960
  952loPI   C2B14562   2.921  11.075   6.224  0.0429 -0.2493  0.0620
  952loPI   C3B14563   2.834  11.367   6.586  0.2733 -0.0768 -0.0105
  952loPI   C4B14564   2.529  11.355   6.943 -0.1362  0.0925 -0.0683
  953loPI    C114565  16.117  17.973   5.410 -0.0396  0.0942  0.4144
  953loPI    C214566  15.861  17.674   5.478 -0.2009  0.2162  0.3509
  953loPI    C314567  16.100  17.663   5.158 -0.2632  0.1929  0.3048
  953loPI   PO414568  16.207  18.095   5.645  0.0016  0.1373  0.3046
  953loPI   GL114569  16.043  17.950   5.967 -0.2223  0.1163 -0.2619
  953loPI   GL214570  16.232  17.777   6.044 -0.0629 -0.0442 -0.0043
  953loPI   C1A14571  16.133  18.239   6.244  0.0526  0.1048 -0.3990
  953loPI   C2A14572  16.317  18.207   6.646  0.0923 -0.1929 -0.3794
  953loPI   C3A14573  16.200  18.027   7.070 -0.1200 -0.1146  0.1747
  953loPI   C4A14574  16.308  18.101   7.473  0.3050 -0.0849 -0.0387
  953loPI   C5A14575  16.312  18.500   7.639  0.7639  0.1542 -0.1790
  953loPI   C6A14576  16.031  18.789   7.635  0.0922 -0.3909  0.0609
  953loPI   C1B14577  16.399  17.733   6.474 -0.2486 -0.1851 -0.1342
  953loPI   C2B14578  16.612  17.683   6.863  0.5547 -0.2132 -0.2654
  953loPI   C3B14579  16.750  18.006   7.186  0.1434 -0.0345  0.0944
  953loPI   C4B14580  16.649  18.387   7.315 -0.0287  0.0335  0.0965
  954loPI    C114581  12.104   6.014   5.302 -0.0866  0.1557 -0.2930
  954loPI    C214582  12.420   5.860   5.111 -0.0022 -0.1052  0.0473
  954loPI    C314583  12.050   5.774   4.986  0.0538 -0.1282 -0.1057
  954loPI   PO414584  12.144   5.887   5.524  0.2397 -0.3214  0.0376
  954loPI   GL114585  11.984   5.631   5.786  0.0756  0.2462 -0.2203
  954loPI   GL214586  12.096   5.333   5.952 -0.1193  0.1970 -0.0434
  954loPI   C1A14587  12.118   5.918   6.159  0.0734  0.4803  0.0332
  954loPI   C2A14588  12.481   6.135   6.353  0.0124  0.0073  0.0656
  954loPI   C3A14589  12.473   6.431   6.652 -0.5223 -0.0094  0.2002
  954loPI   C4A14590  12.449   6.714   6.967  0.2916  0.0420 -0.1390
  954loPI   C5A14591  12.403   6.700   7.453  0.1614  0.0531  0.1020
  954loPI   C6A14592  12.099   6.809   7.780  0.1425  0.2466 -0.0965
  954loPI   C1B14593  12.198   5.263   6.445 -0.0285 -0.1423 -0.2426
  954loPI   C2B14594  12.317   5.264   6.944 -0.1581  0.2263  0.1786
  954loPI   C3B14595  12.321   5.408   7.272 -0.1056 -0.3584 -0.1911
  954loPI   C4B14596  12.276   5.332   7.729  0.1055  0.0322  0.0391
  955loPI    C114597   2.531   9.239   4.739 -0.1328  0.0020 -0.1307
  955loPI    C214598   2.716   9.066   4.429  0.1337 -0.0864  0.0738
  955loPI    C314599   2.913   9.326   4.659 -0.0387 -0.0790  0.2158
  955loPI   PO414600   2.323   9.058   4.829  0.0490 -0.1330 -0.1272
  955loPI   GL114601   2.392   9.044   5.247  0.0026  0.0946  0.1890
  955loPI   GL214602   2.357   9.368   5.238 -0.1421 -0.0603  0.5978
  955loPI   C1A14603   2.697   9.162   5.590 -0.0953 -0.3276 -0.0095
  955loPI   C2A14604   2.789   9.043   5.990  0.1569  0.1088 -0.2735
  955loPI   C3A14605   2.650   8.919   6.423 -0.0375  0.1245 -0.1189
  955loPI   C4A14606   2.431   8.789   6.763 -0.0291 -0.1707 -0.0955
  955loPI   C5A14607   2.127   8.981   6.916 -0.1266  0.0738  0.0261
  955loPI   C6A14608   1.770   9.423   7.111 -0.0462 -0.0687 -0.0224
  955loPI   C1B14609   2.192   9.284   5.675 -0.1800  0.2549  0.2388
  955loPI   C2B14610   2.193   9.269   6.078 -0.1279 -0.2724 -0.0525
  955loPI   C3B14611   2.179   9.202   6.453  0.0547  0.1867  0.0321
  955loPI   C4B14612   2.200   9.519   6.881  0.2981  0.0257  0.0174
  956loPI    C114613   3.253   2.288   4.927 -0.2763  0.0200 -0.3059
  956loPI    C214614   3.397   2.166   4.575  0.2184 -0.1102 -0.0679
  956loPI    C314615   3.211   1.907   4.815 -0.0063 -0.0509 -0.1754
  956loPI   PO414616   3.238   2.448   5.097 -0.0000 -0.0124 -0.0174
  956loPI   GL114617   3.177   2.358   5.564 -0.1808  0.0665 -0.2137
  956loPI   GL214618   2.897   2.606   5.756 -0.1516  0.2033 -0.2480
  956loPI   C1A14619   3.386   2.396   5.918  0.0871 -0.0449 -0.1655
  956loPI   C2A14620   3.304   2.260   6.324 -0.1524  0.4022  0.2917
  956loPI   C3A14621   3.322   2.024   6.784 -0.3507  0.1086  0.2739
  956loPI   C4A14622   3.358   1.802   7.141 -0.2411  0.1800  0.0023
  956loPI   C5A14623   3.662   1.519   7.212 -0.2670  0.0720 -0.1113
  956loPI   C6A14624   3.604   1.190   7.496  0.1006 -0.3367 -0.0548
  956loPI   C1B14625   3.177   2.841   5.968 -0.1801  0.0402 -0.0130
  956loPI   C2B14626   3.225   2.779   6.402 -0.1465 -0.1749 -0.1210
  956loPI   C3B14627   3.227   2.585   6.740  0.0444  0.1442  0.0122
  956loPI   C4B14628   3.075   2.293   7.089 -0.2289  0.0862  0.2238
  957loPI    C114629   9.438  12.862   5.075 -0.0573 -0.1399 -0.0828
  957loPI    C214630   9.197  12.645   4.842 -0.1420 -0.0958 -0.0371
  957loPI    C314631   9.233  13.038   4.780 -0.2316 -0.0689  0.0783
  957loPI   PO414632   9.394  12.865   5.326 -0.0860  0.1301 -0.0322
  957loPI   GL114633   9.605  13.019   5.686 -0.0139 -0.2992  0.0850
  957loPI   GL214634   9.834  12.789   5.734  0.1965  0.0090  0.1007
  957loPI   C1A14635   9.560  13.128   6.117 -0.0633 -0.0866  0.0517
  957loPI   C2A14636   9.561  13.244   6.613  0.3308  0.2036  0.0555
  957loPI   C3A14637   9.586  13.361   7.074 -0.0006  0.0061 -0.1163
  957loPI   C4A14638   9.639  13.424   7.422 -0.3517  0.0579  0.3790
  957loPI   C5A14639   9.418  13.430   7.733  0.1226 -0.1820  0.2154
  957loPI   C6A14640   9.111  13.702   7.899 -0.0894 -0.0725  0.1466
  957loPI   C1B14641  10.104  12.930   5.984 -0.1110 -0.1466  0.3081
  957loPI   C2B14642  10.205  12.919   6.376  0.0112  0.0310 -0.1051
  957loPI   C3B14643  10.257  12.993   6.795 -0.1774  0.1445 -0.1862
  957loPI   C4B14644  10.367  13.017   7.194  0.0680 -0.1749  0.0711
  958loPI    C114645   6.656   9.310   4.907  0.0430  0.0494  0.0734
  958loPI    C214646   6.662   9.642   5.129 -0.0120  0.0331  0.0994
  958loPI    C314647   6.666   9.668   4.730 -0.2098  0.0709  0.0988
  958loPI   PO414648   6.861   9.188   5.093 -0.2628 -0.1890 -0.0781
  958loPI   GL114649   7.116   9.448   5.391  0.2073  0.0540 -0.3314
  958loPI   GL214650   7.098   9.799   5.352  0.0558  0.0397  0.1427
  958loPI   C1A14651   6.871   9.512   5.640 -0.0101 -0.1147  0.0472
  958loPI   C2A14652   6.809   9.562   6.060  0.0816 -0.2306  0.0139
  958loPI   C3A14653   6.828   9.328   6.444 -0.0516 -0.0780 -0.4240
  958loPI   C4A14654   6.917   9.190   6.732  0.0986 -0.0495  0.0164
  958loPI   C5A14655   7.053   9.259   7.123 -0.1300 -0.1981  0.0746
  958loPI   C6A14656   7.156   9.694   7.229 -0.2876 -0.0735 -0.2756
  958loPI   C1B14657   6.900  10.031   5.753  0.1785  0.1234 -0.3307
  958loPI   C2B14658   6.911  10.036   6.222 -0.0638 -0.1908 -0.2152
  958loPI   C3B14659   6.898  10.200   6.675  0.2190  0.1003  0.1136
  958loPI   C4B14660   6.688  10.105   7.035 -0.3546 -0.3297 -0.2040
  959loPI    C114661   0.718   5.539   5.025 -0.0627 -0.1207  0.0787
  959loPI    C214662   1.041   5.437   5.238 -0.0147 -0.1154  0.0091
  959loPI    C314663   1.060   5.743   4.982 -0.0916 -0.0788  0.0468
  959loPI   PO414664   0.542   5.264   5.128  0.0574  0.1439  0.1310
  959loPI   GL114665   0.689   5.379   5.566 -0.0008 -0.3398  0.1831
  959loPI   GL214666   0.933   5.673   5.680 -0.0084  0.2330 -0.0026
  959loPI   C1A14667   0.268   5.420   6.037 -0.0181  0.0003 -0.0784
  959loPI   C2A14668   0.094   5.374   6.435  0.2893  0.1426  0.1264
  959loPI   C3A14669   0.167   5.215   6.808  0.1733 -0.0581 -0.0612
  959loPI   C4A14670   0.326   5.202   7.230 -0.0022 -0.1201  0.0924
  959loPI   C5A14671   0.523   5.112   7.567  0.3330 -0.1372  0.1503
  959loPI   C6A14672   0.820   4.879   7.872  0.1138  0.1227 -0.0887
  959loPI   C1B14673   1.191   5.651   5.969  0.0459 -0.0910 -0.2938
  959loPI   C2B14674   1.484   5.662   6.373 -0.2014 -0.2597 -0.1463
  959loPI   C3B14675   1.569   5.337   6.626 -0.1529 -0.3795 -0.0042
  959loPI   C4B14676   1.548   4.975   6.784  0.2094 -0.2383  0.0322
  960loPI    C114677   6.666   4.007   5.046 -0.1755 -0.0667 -0.1708
  960loPI    C214678   6.944   4.094   4.772  0.0574 -0.0425  0.0693
  960loPI    C314679   6.600   4.297   4.779  0.0264 -0.0804 -0.2375
  960loPI   PO414680   6.800   4.029   5.301 -0.2086  0.1854 -0.1430
  960loPI   GL114681   7.011   4.193   5.643 -0.0333  0.1514 -0.3649
  960loPI   GL214682   6.958   4.466   5.582  0.1931  0.1003  0.1059
  960loPI   C1A14683   7.182   3.865   5.925  0.0859  0.1164 -0.1887
  960loPI   C2A14684   7.402   3.834   6.323  0.1191 -0.0829  0.0502
  960loPI   C3A14685   7.495   3.496   6.639  0.1281  0.1330  0.0080
  960loPI   C4A14686   7.508   3.439   7.012  0.1536 -0.2734 -0.0042
  960loPI   C5A14687   7.712   3.552   7.331  0.3090 -0.1557  0.2728
  960loPI   C6A14688   7.807   3.580   7.729 -0.1080 -0.0716 -0.2087
  960loPI   C1B14689   7.115   4.745   5.889  0.1544  0.0696  0.0839
  960loPI   C2B14690   7.083   4.831   6.281 -0.0735  0.0336 -0.0835
  960loPI   C3B14691   7.063   4.810   6.684 -0.2042 -0.1746 -0.1712
  960loPI   C4B14692   7.094   4.740   7.132  0.1842 -0.1635  0.0127
  961loPI    C114693   0.578   9.603   4.791 -0.1724 -0.1813  0.0851
  961loPI    C214694   0.584   9.856   4.482  0.1999 -0.1473  0.1164
  961loPI    C314695   0.776   9.506   4.458 -0.0348 -0.2835  0.1952
  961loPI   PO414696   0.427   9.743   4.984  0.3456  0.1385  0.0136
  961loPI   GL114697   0.473  10.040   5.345 -0.1842  0.0305 -0.2958
  961loPI   GL214698   0.592  10.412   5.330  0.0233  0.0246 -0.2236
  961loPI   C1A14699   0.292   9.855   5.699 -0.0593  0.1331  0.1179
  961loPI   C2A14700   0.172  10.007   6.128 -0.2113  0.0672  0.0873
  961loPI   C3A14701   0.145  10.341   6.521 -0.2841  0.0011  0.0905
  961loPI   C4A14702   0.143  10.392   7.012 -0.0142 -0.0034  0.1573
  961loPI   C5A14703   0.377  10.449   7.463 -0.3640 -0.0694  0.0967
  961loPI   C6A14704   0.346  10.279   7.913 -0.1749 -0.0809 -0.2770
  961loPI   C1B14705   0.628  10.281   5.737 -0.1469 -0.0826  0.1297
  961loPI   C2B14706   0.650  10.278   6.275 -0.2835  0.2185 -0.0005
  961loPI   C3B14707   0.709  10.351   6.646  0.1956  0.0773  0.1820
  961loPI   C4B14708   0.668  10.466   7.085 -0.0978 -0.2860 -0.0464
  962loPI    C114709  12.163  10.790   5.060  0.0538  0.2263 -0.0513
  962loPI    C214710  12.488  10.822   4.830  0.1241  0.1622  0.0383
  962loPI    C314711  12.125  10.871   4.670  0.1734  0.1437 -0.0807
  962loPI   PO414712  12.130  10.601   5.193  0.0519  0.2074  0.1707
  962loPI   GL114713  12.029  10.602   5.616  0.1489  0.2229  0.0014
  962loPI   GL214714  12.410  10.523   5.602  0.1502  0.1337  0.2079
  962loPI   C1A14715  12.056  10.732   6.062 -0.2673  0.3871 -0.2229
  962loPI   C2A14716  11.947  10.813   6.515 -0.1175  0.1546  0.2596
  962loPI   C3A14717  12.020  11.033   6.880  0.3205  0.3238  0.0701
  962loPI   C4A14718  12.179  10.991   7.306 -0.2979  0.1083 -0.3476
  962loPI   C5A14719  12.311  10.902   7.775  0.1428  0.0795 -0.1501
  962loPI   C6A14720  12.195  10.764   8.212 -0.1906  0.0314  0.2065
  962loPI   C1B14721  12.282  10.338   6.024 -0.1016  0.2232 -0.3438
  962loPI   C2B14722  12.265  10.372   6.539 -0.0124  0.3122  0.0973
  962loPI   C3B14723  11.986  10.304   6.973  0.0908  0.0894 -0.1526
  962loPI   C4B14724  11.638  10.389   7.334 -0.0916 -0.2759 -0.3330
  963loPI    C114725  13.992  10.287   5.100  0.2971  0.1489  0.2884
  963loPI    C214726  14.178  10.086   4.808 -0.0444  0.0704  0.1193
  963loPI    C314727  14.019  10.446   4.734  0.0630  0.1500  0.2695
  963loPI   PO414728  14.167  10.309   5.338  0.1146  0.1083  0.1428
  963loPI   GL114729  14.379  10.230   5.601 -0.2181  0.1031 -0.1874
  963loPI   GL214730  14.166  10.258   5.832  0.0946 -0.1677 -0.0230
  963loPI   C1A14731  14.611  10.081   5.993 -0.0430 -0.2838 -0.2999
  963loPI   C2A14732  14.593   9.950   6.469  0.0197  0.0934  0.2239
  963loPI   C3A14733  14.745  10.027   6.962 -0.0581 -0.0043 -0.2205
  963loPI   C4A14734  14.857   9.932   7.340  0.2966  0.0128 -0.0639
  963loPI   C5A14735  15.156   9.650   7.524 -0.4150 -0.1202 -0.0241
  963loPI   C6A14736  15.329   9.306   7.463 -0.2546 -0.1321 -0.1783
  963loPI   C1B14737  14.158   9.967   6.088 -0.0974  0.1454  0.1328
  963loPI   C2B14738  14.115   9.903   6.572  0.0766  0.0897 -0.0633
  963loPI   C3B14739  14.205   9.875   7.021  0.3462 -0.1408 -0.1107
  963loPI   C4B14740  14.353   9.843   7.391 -0.0038  0.0815  0.1173
  964loPI    C114741  16.089  10.249   5.349  0.1722 -0.1012  0.2004
  964loPI    C214742  15.928  10.280   4.984  0.0015 -0.2182  0.2642
  964loPI    C314743  15.958  10.603   5.218  0.1460 -0.1358  0.1330
  964loPI   PO414744  15.918  10.015   5.412 -0.2126 -0.1939  0.1913
  964loPI   GL114745  15.931   9.869   5.725  0.1631  0.0463 -0.1003
  964loPI   GL214746  15.607   9.939   5.773  0.1589  0.0095  0.1320
  964loPI   C1A14747  16.178   9.924   6.063 -0.0037  0.0395  0.3240
  964loPI   C2A14748  16.330   9.887   6.488 -0.0610 -0.1728  0.1529
  964loPI   C3A14749  16.378   9.973   6.876  0.0641 -0.1413 -0.2748
  964loPI   C4A14750  16.476   9.767   7.292 -0.1642  0.0253  0.2137
  964loPI   C5A14751  16.257   9.487   7.528 -0.3524 -0.3352 -0.1413
  964loPI   C6A14752  16.089   9.459   7.935  0.1095  0.1961 -0.0602
  964loPI   C1B14753  15.643  10.031   6.188  0.1955  0.0789 -0.3820
  964loPI   C2B14754  15.694   9.846   6.551 -0.0821 -0.3691 -0.0863
  964loPI   C3B14755  15.960   9.649   6.830  0.0784  0.2308  0.0361
  964loPI   C4B14756  15.986   9.850   7.251 -0.4754 -0.1300  0.2104
  965loPI    C114757   9.481  16.812   5.268 -0.1380 -0.0329  0.0529
  965loPI    C214758   9.795  17.053   5.209 -0.1180 -0.0205  0.2062
  965loPI    C314759   9.671  16.973   5.581 -0.0757 -0.3092  0.1605
  965loPI   PO414760   9.510  16.640   5.228 -0.0807 -0.2355  0.1840
  965loPI   GL114761   9.559  16.253   5.527  0.0335  0.0447  0.3259
  965loPI   GL214762   9.471  16.512   5.682  0.3876 -0.0081 -0.2312
  965loPI   C1A14763   9.322  16.059   5.778 -0.1450  0.0674  0.0818
  965loPI   C2A14764   9.010  15.959   5.999 -0.0488 -0.1291  0.2120
  965loPI   C3A14765   9.000  15.921   6.450 -0.1571  0.4217  0.1716
  965loPI   C4A14766   8.869  15.907   6.903 -0.0047 -0.2446  0.0645
  965loPI   C5A14767   8.765  15.876   7.249 -0.0944 -0.0544  0.0274
  965loPI   C6A14768   8.612  16.174   7.555  0.3420  0.1764  0.2236
  965loPI   C1B14769   9.275  16.861   5.995 -0.0565 -0.2967 -0.0538
  965loPI   C2B14770   9.231  16.909   6.367 -0.1336 -0.0683  0.2357
  965loPI   C3B14771   9.180  16.817   6.832  0.1098  0.1463 -0.1965
  965loPI   C4B14772   9.208  16.997   7.299 -0.0985 -0.3698  0.0639
  966loPI    C114773   1.865   8.207   4.651  0.0599  0.0172  0.0797
  966loPI    C214774   2.185   8.183   4.413 -0.1114 -0.0835 -0.1447
  966loPI    C314775   2.017   7.850   4.557 -0.0105 -0.0234  0.1187
  966loPI   PO414776   1.936   8.348   4.890 -0.5750 -0.0354  0.2770
  966loPI   GL114777   1.858   8.275   5.353 -0.3979  0.0394  0.0739
  966loPI   GL214778   2.181   8.261   5.433 -0.1707 -0.0946  0.0563
  966loPI   C1A14779   1.466   8.412   5.617 -0.0370 -0.1178 -0.4582
  966loPI   C2A14780   1.514   8.386   6.083 -0.0192  0.0655 -0.0024
  966loPI   C3A14781   1.483   8.439   6.474  0.1947  0.1893  0.1167
  966loPI   C4A14782   1.720   8.465   6.877 -0.0880  0.1450  0.0369
  966loPI   C5A14783   1.821   8.261   7.274  0.0142 -0.0972 -0.0765
  966loPI   C6A14784   1.583   7.969   7.563 -0.1229 -0.0606  0.0186
  966loPI   C1B14785   1.977   8.341   5.827  0.0164  0.3626 -0.0515
  966loPI   C2B14786   1.805   7.991   5.920 -0.1764  0.0321  0.0965
  966loPI   C3B14787   1.616   7.895   6.267  0.0031 -0.1984  0.2358
  966loPI   C4B14788   1.535   7.927   6.716  0.0447  0.0700  0.2725
  967loPI    C114789  16.498   0.272   4.708 -0.1918 -0.0896  0.1870
  967loPI    C214790  16.741  -0.042   4.750 -0.0208  0.0455  0.2215
  967loPI    C314791  16.351  -0.099   4.680  0.1051 -0.1769 -0.3622
  967loPI   PO414792  16.576   0.365   4.975 -0.3651 -0.4249 -0.2385
  967loPI   GL114793  16.709   0.548   5.501  0.3566  0.0512  0.2438
  967loPI   GL214794  16.348   0.619   5.327 -0.1735 -0.0821 -0.2997
  967loPI   C1A14795  16.869   0.613   5.897  0.0304  0.2941  0.1600
  967loPI   C2A14796  17.027   0.630   6.311 -0.1814  0.1962 -0.1169
  967loPI   C3A14797  17.083   0.812   6.704 -0.2635 -0.1739 -0.1556
  967loPI   C4A14798  17.012   1.137   7.017 -0.0986  0.1395 -0.4046
  967loPI   C5A14799  16.610   1.084   7.312  0.2251 -0.2489  0.1564
  967loPI   C6A14800  16.297   1.077   7.546 -0.0662 -0.0014  0.1419
  967loPI   C1B14801  16.292   0.726   5.746  0.3172 -0.1648 -0.1749
  967loPI   C2B14802  16.495   0.603   6.173  0.1146 -0.0879  0.1416
  967loPI   C3B14803  16.415   0.551   6.569 -0.1370  0.3381  0.3454
  967loPI   C4B14804  16.317   0.234   6.782 -0.1756 -0.0321  0.1910
  968loPI    C114805  13.920   3.153   5.026  0.3233 -0.2236 -0.0013
  968loPI    C214806  14.169   3.159   4.713 -0.0059 -0.1950 -0.2695
  968loPI    C314807  13.781   3.240   4.661 -0.0067  0.1539  0.2052
  968loPI   PO414808  14.036   3.294   5.244  0.0135  0.3350  0.0031
  968loPI   GL114809  13.974   3.178   5.705 -0.2244  0.0466  0.1615
  968loPI   GL214810  13.718   3.012   5.948 -0.2992 -0.0683 -0.0778
  968loPI   C1A14811  14.349   3.102   5.955  0.2323 -0.1153  0.0563
  968loPI   C2A14812  14.587   3.089   6.426  0.1869 -0.0400 -0.0416
  968loPI   C3A14813  14.902   3.269   6.808  0.2821  0.2242  0.3082
  968loPI   C4A14814  15.352   3.301   7.000 -0.2660 -0.1882 -0.0271
  968loPI   C5A14815  15.698   3.195   7.222 -0.1749  0.0519 -0.3005
  968loPI   C6A14816  15.957   3.388   7.496 -0.2407 -0.0066 -0.0121
  968loPI   C1B14817  13.978   3.074   6.252 -0.3987  0.0382 -0.0564
  968loPI   C2B14818  14.067   3.150   6.756 -0.0182 -0.0086 -0.0656
  968loPI   C3B14819  14.124   3.376   7.133 -0.1503  0.0376  0.0114
  968loPI   C4B14820  14.556   3.467   7.247  0.1026 -0.2017 -0.2838
  969loPI    C114821   6.956  12.017   4.775  0.0225  0.0622 -0.0424
  969loPI    C214822   6.972  12.309   4.502 -0.1617 -0.0151 -0.1383
  969loPI    C314823   6.870  11.938   4.392  0.0747 -0.1183 -0.0180
  969loPI   PO414824   6.882  12.102   4.938 -0.0229 -0.0611  0.0203
  969loPI   GL114825   6.634  12.009   5.249 -0.1252 -0.0632  0.0587
  969loPI   GL214826   6.304  11.878   5.366 -0.1180 -0.4778  0.2790
  969loPI   C1A14827   6.735  12.093   5.637 -0.1695  0.0927 -0.1643
  969loPI   C2A14828   6.854  12.256   5.963 -0.2104 -0.2007  0.2021
  969loPI   C3A14829   6.878  12.335   6.499  0.2367  0.2016 -0.1703
  969loPI   C4A14830   6.745  12.347   6.894 -0.1903 -0.0610  0.2072
  969loPI   C5A14831   6.532  12.240   7.244 -0.1381  0.0178 -0.0594
  969loPI   C6A14832   6.264  12.321   7.609  0.1108 -0.0927  0.0480
  969loPI   C1B14833   6.612  11.614   5.659 -0.0361  0.0918 -0.1757
  969loPI   C2B14834   6.761  11.778   6.076  0.1363 -0.0602 -0.0922
  969loPI   C3B14835   6.748  11.785   6.535 -0.2471  0.0752  0.1195
  969loPI   C4B14836   6.752  11.799   7.043  0.1351 -0.2118 -0.3894
  970loPI    C114837  13.022  15.060   4.993  0.3594 -0.0457  0.1979
  970loPI    C214838  12.953  14.681   5.098  0.0386  0.0024  0.1716
  970loPI    C314839  13.120  14.763   4.744  0.1348 -0.1139  0.1891
  970loPI   PO414840  12.884  15.250   5.211  0.1029 -0.1556 -0.0985
  970loPI   GL114841  12.664  15.211   5.567  0.2439 -0.4928  0.3122
  970loPI   GL214842  12.851  15.014   5.657  0.1958 -0.1726 -0.2538
  970loPI   C1A14843  12.607  15.413   5.920 -0.2108 -0.1364 -0.0651
  970loPI   C2A14844  12.741  15.485   6.354 -0.0600  0.1075  0.1826
  970loPI   C3A14845  12.821  15.415   6.788  0.0918 -0.1289 -0.1215
  970loPI   C4A14846  12.768  15.534   7.190 -0.0377  0.1536 -0.1326
  970loPI   C5A14847  12.979  15.606   7.644 -0.1801 -0.0618 -0.2922
  970loPI   C6A14848  13.397  15.807   7.702 -0.0380 -0.0325  0.1721
  970loPI   C1B14849  12.640  14.988   6.150 -0.2957 -0.1428  0.2128
  970loPI   C2B14850  12.687  14.982   6.576 -0.1980  0.2303  0.2264
  970loPI   C3B14851  12.528  15.092   7.028  0.0395  0.2529  0.0261
  970loPI   C4B14852  12.410  14.917   7.319 -0.0805 -0.2149  0.2468
  971loPI    C114853   5.168   9.094   4.551 -0.1240  0.0573  0.1620
  971loPI    C214854   5.500   9.259   4.401  0.0979 -0.4084  0.1245
  971loPI    C314855   5.387   8.894   4.283 -0.2360 -0.3998  0.4015
  971loPI   PO414856   5.249   9.109   4.793  0.0925  0.2570 -0.2204
  971loPI   GL114857   5.478   9.110   5.147  0.2451  0.0002 -0.0241
  971loPI   GL214858   5.255   8.965   5.393 -0.1531  0.2495  0.0817
  971loPI   C1A14859   5.572   9.238   5.611 -0.0017  0.1906  0.2480
  971loPI   C2A14860   5.655   9.363   5.989  0.3954 -0.0542 -0.0270
  971loPI   C3A14861   5.561   9.466   6.369  0.1074  0.2923 -0.1157
  971loPI   C4A14862   5.642   9.511   6.746 -0.1052  0.2091 -0.0208
  971loPI   C5A14863   5.567   9.431   7.229 -0.0508  0.1810  0.1225
  971loPI   C6A14864   5.809   9.595   7.615 -0.0999 -0.3089 -0.1731
  971loPI   C1B14865   5.134   9.175   5.801  0.0201 -0.0222 -0.1577
  971loPI   C2B14866   5.231   9.058   6.185 -0.3366 -0.3131 -0.1372
  971loPI   C3B14867   5.293   8.983   6.627  0.0561  0.0628  0.3589
  971loPI   C4B14868   5.302   8.857   7.096  0.3084 -0.1404 -0.0731
  972loPI    C114869  11.858   2.140   5.180 -0.1641 -0.1631  0.0416
  972loPI    C214870  11.770   2.490   5.007  0.2669 -0.1272 -0.1174
  972loPI    C314871  11.738   2.150   4.798  0.1219 -0.1556 -0.0504
  972loPI   PO414872  12.057   2.192   5.278 -0.2141  0.3736 -0.1112
  972loPI   GL114873  12.106   2.229   5.630  0.2852  0.2219  0.2180
  972loPI   GL214874  12.121   1.934   5.728  0.2798  0.0523  0.2102
  972loPI   C1A14875  11.917   2.318   6.034 -0.2041 -0.1451  0.1421
  972loPI   C2A14876  11.716   1.927   6.364 -0.3008 -0.2806  0.0619
  972loPI   C3A14877  11.779   1.894   6.838  0.2331 -0.0981 -0.0263
  972loPI   C4A14878  11.882   1.843   7.276 -0.0369 -0.0005  0.1656
  972loPI   C5A14879  11.814   2.233   7.468  0.1982  0.0900  0.0483
  972loPI   C6A14880  11.614   2.440   7.747 -0.1823 -0.4223 -0.1723
  972loPI   C1B14881  12.078   1.771   6.073  0.0882  0.2253  0.0777
  972loPI   C2B14882  12.175   1.777   6.619  0.1216  0.2065 -0.1370
  972loPI   C3B14883  12.395   1.751   7.007  0.0160 -0.1466 -0.0217
  972loPI   C4B14884  12.652   1.687   7.293  0.3551 -0.4362  0.2503
  973loPI    C114885   0.827   7.716   4.773 -0.0781  0.0530 -0.2255
  973loPI    C214886   1.001   7.369   4.678  0.0647  0.0940 -0.1171
  973loPI    C314887   1.008   7.673   4.419  0.1557  0.0956 -0.1130
  973loPI   PO414888   0.889   7.759   5.053 -0.1698 -0.1787  0.2988
  973loPI   GL114889   0.672   7.832   5.500 -0.4292 -0.1353  0.0846
  973loPI   GL214890   0.926   7.634   5.595 -0.3963  0.2377  0.1092
  973loPI   C1A14891   0.596   8.115   5.850  0.1081 -0.0315  0.1265
  973loPI   C2A14892   0.531   8.433   5.999 -0.3440  0.0826 -0.1108
  973loPI   C3A14893   0.306   8.760   6.210  0.0672 -0.1027 -0.0162
  973loPI   C4A14894   0.335   9.015   6.537 -0.0538 -0.0231 -0.1176
  973loPI   C5A14895   0.308   8.992   7.004 -0.1379  0.2425 -0.0255
  973loPI   C6A14896   0.375   8.833   7.419 -0.0205  0.0978 -0.1847
  973loPI   C1B14897   1.006   7.459   5.997  0.0192 -0.0940 -0.0169
  973loPI   C2B14898   0.865   7.379   6.453 -0.1211  0.3345  0.1805
  973loPI   C3B14899   0.510   7.371   6.853 -0.0818 -0.0982  0.0545
  973loPI   C4B14900   0.369   7.667   7.159  0.0339 -0.1857  0.1605
  974loPI    C114901  12.426   1.891   5.324 -0.3163  0.1223  0.0268
  974loPI    C214902  12.584   2.150   5.063 -0.1760 -0.0904 -0.1028
  974loPI    C314903  12.284   1.910   4.950 -0.0885 -0.2106 -0.0812
  974loPI   PO414904  12.576   2.030   5.569 -0.0168  0.1633 -0.2156
  974loPI   GL114905  12.412   2.406   5.936  0.1187  0.4055 -0.0583
  974loPI   GL214906  12.762   2.402   5.894  0.1413 -0.1488 -0.1369
  974loPI   C1A14907  12.386   2.175   6.286  0.0859  0.2358 -0.0230
  974loPI   C2A14908  12.468   2.207   6.699  0.0404  0.3965 -0.0971
  974loPI   C3A14909  12.759   2.360   6.887  0.3513 -0.2968  0.0821
  974loPI   C4A14910  12.825   2.394   7.273  0.0517 -0.1492  0.1641
  974loPI   C5A14911  12.794   2.074   7.552  0.1276 -0.0441 -0.1945
  974loPI   C6A14912  13.208   1.759   7.745  0.1490  0.1490  0.2444
  974loPI   C1B14913  12.908   2.570   6.281  0.0907  0.0365 -0.0010
  974loPI   C2B14914  13.123   2.694   6.612  0.0753 -0.0052 -0.3232
  974loPI   C3B14915  13.077   2.877   7.020 -0.1240  0.2407 -0.1900
  974loPI   C4B14916  13.260   3.212   7.301 -0.1642  0.0790 -0.3494
  975loPI    C114917   5.324  13.637   4.681 -0.1421 -0.1887  0.0380
  975loPI    C214918   5.723  13.662   4.697 -0.1529  0.0796 -0.0556
  975loPI    C314919   5.549  13.374   4.481 -0.0113 -0.0447 -0.0059
  975loPI   PO414920   5.215  13.757   4.869 -0.1077 -0.1488 -0.3692
  975loPI   GL114921   5.068  13.802   5.284  0.1121  0.0251  0.2647
  975loPI   GL214922   5.141  13.981   5.469 -0.2503 -0.0774 -0.0445
  975loPI   C1A14923   5.019  13.546   5.648  0.2556  0.3484 -0.2429
  975loPI   C2A14924   5.088  13.491   6.020 -0.2612  0.1548  0.1032
  975loPI   C3A14925   5.170  13.364   6.362 -0.0857  0.1788  0.0546
  975loPI   C4A14926   5.130  13.590   6.716 -0.0845 -0.0974 -0.0016
  975loPI   C5A14927   5.456  13.838   6.861 -0.0469 -0.0700 -0.0304
  975loPI   C6A14928   5.778  13.698   7.201 -0.1128  0.0753 -0.2992
  975loPI   C1B14929   4.979  14.109   5.862 -0.0966  0.2054 -0.2190
  975loPI   C2B14930   4.753  14.170   6.322  0.1724 -0.2694  0.1277
  975loPI   C3B14931   4.581  14.404   6.641  0.2143  0.1060  0.1718
  975loPI   C4B14932   4.427  14.349   7.052 -0.0644 -0.0803 -0.0198
  976loPI    C114933  11.507   6.533   5.133  0.1927  0.0207  0.0159
  976loPI    C214934  11.619   6.520   4.749  0.2762  0.2313  0.0319
  976loPI    C314935  11.288   6.719   4.855  0.1793  0.0609  0.0533
  976loPI   PO414936  11.646   6.280   5.337  0.1814  0.1901  0.1187
  976loPI   GL114937  11.857   6.308   5.622 -0.0862 -0.0540 -0.2353
  976loPI   GL214938  11.802   6.091   5.854  0.2959 -0.0276  0.1482
  976loPI   C1A14939  11.715   6.613   5.948  0.2332  0.0110  0.2701
  976loPI   C2A14940  11.627   6.665   6.345  0.1457 -0.0577 -0.2289
  976loPI   C3A14941  11.523   6.484   6.800  0.1679  0.0737 -0.0936
  976loPI   C4A14942  11.684   6.250   7.110  0.2872  0.2838  0.0606
  976loPI   C5A14943  11.663   6.014   7.616  0.0221 -0.1219 -0.0555
  976loPI   C6A14944  11.541   5.940   8.082  0.0671  0.0275 -0.1993
  976loPI   C1B14945  11.686   6.169   6.300  0.2116  0.0635 -0.2715
  976loPI   C2B14946  11.463   6.026   6.705 -0.0827 -0.0094  0.0568
  976loPI   C3B14947  11.304   5.634   6.741  0.0428 -0.2636  0.3544
  976loPI   C4B14948  11.003   5.345   6.944  0.0353 -0.1159  0.0056
  977loPI    C114949  15.385  18.821   5.168 -0.2362 -0.0656 -0.0437
  977loPI    C214950  15.434  19.203   5.276  0.3597 -0.1399 -0.0191
  977loPI    C314951  15.538  19.084   4.909  0.2812 -0.3016  0.0103
  977loPI   PO414952  15.483  18.695   5.380  0.1574  0.2164 -0.2892
  977loPI   GL114953  15.505  18.808   5.761  0.0384 -0.3016 -0.1621
  977loPI   GL214954  15.321  18.586   5.851  0.0492 -0.1467  0.1781
  977loPI   C1A14955  15.607  19.046   6.012 -0.3457 -0.1082  0.0917
  977loPI   C2A14956  15.793  19.318   6.254  0.1604 -0.2536  0.2248
  977loPI   C3A14957  15.907  19.491   6.645 -0.0614  0.0397  0.0702
  977loPI   C4A14958  15.740  19.422   7.131  0.0375 -0.4014 -0.1131
  977loPI   C5A14959  15.824  19.300   7.585  0.0462  0.0862 -0.1584
  977loPI   C6A14960  15.677  19.063   7.925  0.4120 -0.0590  0.0062
  977loPI   C1B14961  15.566  18.519   6.231  0.2213 -0.0132  0.0497
  977loPI   C2B14962  15.678  18.333   6.620 -0.3728 -0.0359  0.1066
  977loPI   C3B14963  15.747  18.368   6.991  0.0404 -0.0034  0.2765
  977loPI   C4B14964  15.841  18.368   7.428 -0.2850 -0.2832 -0.1490
  978loPI    C114965   9.031   0.545   4.878 -0.1504 -0.1377  0.0558
  978loPI    C214966   8.813   0.739   4.604  0.0595 -0.0599 -0.0581
  978loPI    C314967   8.713   0.368   4.712 -0.0869 -0.0515 -0.1622
  978loPI   PO414968   9.011   0.723   5.056  0.1136  0.0775  0.2479
  978loPI   GL114969   9.201   0.846   5.470 -0.0482  0.0231  0.0682
  978loPI   GL214970   8.992   0.592   5.549 -0.0953 -0.0307 -0.1528
  978loPI   C1A14971   9.348   0.728   5.928  0.0786 -0.0780  0.4135
  978loPI   C2A14972   9.308   0.703   6.369  0.1564 -0.0875  0.2630
  978loPI   C3A14973   9.441   0.692   6.808  0.0982 -0.1277  0.1331
  978loPI   C4A14974   9.761   0.685   7.177 -0.1029  0.2838 -0.0690
  978loPI   C5A14975   9.661   0.667   7.626 -0.1199  0.0796  0.0524
  978loPI   C6A14976   9.842   1.039   7.792 -0.2434  0.0675  0.2947
  978loPI   C1B14977   8.842   0.428   5.897  0.1164 -0.0100  0.0677
  978loPI   C2B14978   8.856   0.437   6.336 -0.6697  0.0594  0.2897
  978loPI   C3B14979   8.986   0.446   6.762  0.1603 -0.1099  0.2488
  978loPI   C4B14980   9.220   0.340   7.099 -0.0834  0.1543  0.1239
  979loPI    C114981  15.321   1.097   4.832 -0.1335  0.0534 -0.0794
  979loPI    C214982  15.454   0.722   4.868 -0.4429 -0.0324  0.2218
  979loPI    C314983  15.320   0.853   4.515  0.3215  0.0255 -0.0653
  979loPI   PO414984  15.082   1.028   5.092 -0.0552 -0.1226  0.4287
  979loPI   GL114985  14.951   0.789   5.448  0.0284  0.0240  0.0470
  979loPI   GL214986  15.087   1.038   5.550  0.0057 -0.4086  0.2974
  979loPI   C1A14987  14.665   0.483   5.683 -0.0289  0.1140 -0.0223
  979loPI   C2A14988  14.420   0.593   6.031  0.1582 -0.1154 -0.1684
  979loPI   C3A14989  14.369   0.612   6.383 -0.0345  0.1194  0.0440
  979loPI   C4A14990  14.318   0.662   6.782 -0.5773  0.1767  0.0353
  979loPI   C5A14991  14.056   0.811   7.139 -0.1729 -0.1690  0.0123
  979loPI   C6A14992  13.728   0.494   7.220 -0.3348 -0.3136 -0.0617
  979loPI   C1B14993  14.910   0.739   6.000 -0.1869 -0.1632  0.0551
  979loPI   C2B14994  14.868   0.595   6.412  0.2741 -0.5618 -0.0830
  979loPI   C3B14995  14.811   0.776   6.750 -0.2254  0.2778 -0.3577
  979loPI   C4B14996  14.849   1.002   7.141 -0.1865  0.1073  0.3172
  980loPI    C114997   9.649   6.893   4.947 -0.0339 -0.0174  0.2080
  980loPI    C214998   9.352   7.112   4.793 -0.1189 -0.0673  0.2995
  980loPI    C314999   9.528   6.829   4.571  0.0634  0.1639  0.1451
  980loPI   PO415000   9.559   6.845   5.198 -0.1338  0.1490 -0.4586
  980loPI   GL115001   9.464   7.025   5.608  0.4654 -0.0708  0.1342
  980loPI   GL215002   9.708   6.758   5.666  0.3981 -0.0993 -0.2982
  980loPI   C1A15003   9.396   7.081   5.991  0.0645  0.0163 -0.1275
  980loPI   C2A15004   9.315   6.989   6.478  0.0809  0.2892 -0.2740
  980loPI   C3A15005   9.405   7.169   6.892  0.0898 -0.5128  0.0585
  980loPI   C4A15006   9.498   7.407   7.332 -0.5627  0.1641  0.2439
  980loPI   C5A15007   9.562   7.536   7.745 -0.2753 -0.1158 -0.0804
  980loPI   C6A15008   9.452   8.024   7.908 -0.3540 -0.1506 -0.0789
  980loPI   C1B15009   9.846   6.650   6.102  0.3545 -0.0481 -0.1721
  980loPI   C2B15010   9.704   6.699   6.546 -0.0181 -0.0366 -0.3056
  980loPI   C3B15011   9.448   6.676   6.942  0.2519 -0.2645 -0.0411
  980loPI   C4B15012   9.484   6.439   7.303 -0.1666 -0.1708  0.2077
  981loPI    C115013   9.833  11.625   4.892 -0.0255 -0.0807  0.2666
  981loPI    C215014   9.596  11.905   5.052 -0.1023  0.0606 -0.0834
  981loPI    C315015   9.489  11.723   4.713  0.0350 -0.2668  0.0444
  981loPI   PO415016   9.945  11.514   5.153 -0.2134  0.0270 -0.0049
  981loPI   GL115017   9.896  11.577   5.630  0.4178  0.1485 -0.2812
  981loPI   GL215018   9.667  11.324   5.555  0.0296 -0.4248  0.0891
  981loPI   C1A15019   9.913  11.614   6.106  0.1936  0.0102  0.3078
  981loPI   C2A15020   9.883  11.671   6.586  0.2312 -0.2656 -0.0981
  981loPI   C3A15021   9.664  11.732   7.039 -0.0773  0.2548 -0.2224
  981loPI   C4A15022   9.379  11.923   7.340 -0.1212  0.2887  0.0080
  981loPI   C5A15023   9.475  12.319   7.590 -0.0191 -0.1071 -0.1252
  981loPI   C6A15024   9.673  12.406   7.972 -0.0520  0.1587  0.2701
  981loPI   C1B15025   9.393  11.283   5.845  0.5626 -0.0622 -0.0157
  981loPI   C2B15026   9.462  11.383   6.243 -0.0176 -0.0895  0.3012
  981loPI   C3B15027   9.632  11.290   6.693  0.0212  0.1962 -0.0204
  981loPI   C4B15028   9.633  11.254   7.122 -0.0112 -0.0387 -0.1090
  982loPI    C115029   3.563   5.663   5.443 -0.0030  0.0187  0.0871
  982loPI    C215030   3.596   5.791   5.066  0.1131 -0.0118  0.0868
  982loPI    C315031   3.324   5.513   5.160 -0.0352  0.1227  0.0586
  982loPI   PO415032   3.847   5.641   5.514  0.3088  0.0459  0.3382
  982loPI   GL115033   3.881   5.298   5.871 -0.0757  0.1806  0.2392
  982loPI   GL215034   3.662   5.550   5.954 -0.0395 -0.0190 -0.1313
  982loPI   C1A15035   3.611   5.030   6.141  0.3159  0.2817 -0.0696
  982loPI   C2A15036   3.681   4.676   6.437 -0.0628 -0.0159 -0.0145
  982loPI   C3A15037   3.794   4.743   6.928  0.3300 -0.1698  0.2177
  982loPI   C4A15038   3.914   4.673   7.389 -0.1661 -0.2501  0.1611
  982loPI   C5A15039   3.605   4.408   7.719  0.0367 -0.0102 -0.0853
  982loPI   C6A15040   3.760   4.012   7.984 -0.1381 -0.1690 -0.2294
  982loPI   C1B15041   3.187   5.443   6.148 -0.1705  0.0721 -0.1991
  982loPI   C2B15042   3.117   5.467   6.583  0.0650 -0.0076  0.0184
  982loPI   C3B15043   2.823   5.364   6.873 -0.0917  0.2432 -0.2470
  982loPI   C4B15044   2.422   5.180   7.158  0.1990  0.1604 -0.1448
  983loPI    C115045   7.151   6.964   5.036 -0.3238  0.0256  0.0436
  983loPI    C215046   6.906   7.243   4.887 -0.2782 -0.0200 -0.1191
  983loPI    C315047   6.898   6.871   4.740 -0.2789 -0.0833  0.0389
  983loPI   PO415048   7.179   7.057   5.299 -0.2266  0.0946 -0.2017
  983loPI   GL115049   7.139   6.694   5.600 -0.0096  0.1554 -0.1135
  983loPI   GL215050   7.115   6.432   5.818  0.1060  0.3047  0.0767
  983loPI   C1A15051   6.990   6.838   6.057  0.0553  0.2559  0.1289
  983loPI   C2A15052   6.734   7.079   6.159 -0.1987  0.4338 -0.2606
  983loPI   C3A15053   6.396   7.142   6.393 -0.2188  0.0555 -0.1365
  983loPI   C4A15054   6.236   7.019   6.767  0.3299  0.0485 -0.0124
  983loPI   C5A15055   6.205   6.880   7.205  0.0275  0.2473  0.1075
  983loPI   C6A15056   5.922   6.882   7.577 -0.0765  0.2462 -0.0782
  983loPI   C1B15057   7.169   6.406   6.209 -0.2108 -0.3477  0.0025
  983loPI   C2B15058   7.145   6.531   6.640  0.0295  0.0486 -0.3069
  983loPI   C3B15059   7.140   6.636   7.025  0.0485 -0.2131 -0.0501
  983loPI   C4B15060   6.949   6.594   7.440 -0.0468 -0.2718  0.1127
  984loPI    C115061  15.332  10.463   4.564  0.0779 -0.0010  0.2702
  984loPI    C215062  15.657  10.611   4.385 -0.1696  0.0276 -0.1692
  984loPI    C315063  15.311  10.811   4.369 -0.2175 -0.0079  0.2849
  984loPI   PO415064  15.447  10.461   4.893 -0.3469  0.2359  0.2357
  984loPI   GL115065  15.474  10.426   5.315  0.2130 -0.2614  0.1442
  984loPI   GL215066  15.360  10.220   5.430 -0.1636  0.2306  0.0630
  984loPI   C1A15067  15.717  10.581   5.637  0.0981 -0.1708 -0.1381
  984loPI   C2A15068  15.946  10.452   6.012  0.2064  0.2121 -0.1793
  984loPI   C3A15069  16.015  10.343   6.473 -0.2993  0.2280 -0.2170
  984loPI   C4A15070  16.247  10.441   6.937  0.2364 -0.1539  0.2721
  984loPI   C5A15071  16.243  10.287   7.399 -0.2493 -0.2722  0.1013
  984loPI   C6A15072  16.372  10.480   7.779  0.0011 -0.1040  0.0287
  984loPI   C1B15073  15.386  10.335   5.876 -0.0401  0.3309  0.0723
  984loPI   C2B15074  15.293  10.370   6.256  0.2990 -0.3223 -0.0697
  984loPI   C3B15075  15.489  10.308   6.560 -0.1443 -0.1961 -0.1577
  984loPI   C4B15076  15.713  10.131   6.932  0.1260  0.1713  0.0243
  985loPI    C115077   8.186   7.188   4.898 -0.1365 -0.1781  0.0478
  985loPI    C215078   8.478   6.929   4.809 -0.1429 -0.1447 -0.0729
  985loPI    C315079   8.119   6.893   4.637 -0.0976  0.0356 -0.2085
  985loPI   PO415080   8.149   7.149   5.179 -0.0817 -0.0142  0.0017
  985loPI   GL115081   8.314   7.266   5.623 -0.2551  0.0408  0.4244
  985loPI   GL215082   7.979   7.340   5.658 -0.1893  0.2516  0.0772
  985loPI   C1A15083   8.609   7.356   5.993  0.0175  0.1406 -0.1128
  985loPI   C2A15084   8.539   7.639   6.264 -0.2899  0.0658  0.1820
  985loPI   C3A15085   8.519   7.892   6.644 -0.0452  0.2245  0.0770
  985loPI   C4A15086   8.475   7.873   7.060 -0.3151  0.0193  0.1328
  985loPI   C5A15087   8.492   8.066   7.518 -0.0788  0.4789  0.1788
  985loPI   C6A15088   8.521   8.274   7.825 -0.0238 -0.0768 -0.4415
  985loPI   C1B15089   7.958   7.190   6.131  0.0120 -0.2750 -0.1781
  985loPI   C2B15090   7.753   7.065   6.543 -0.2165  0.1052 -0.0544
  985loPI   C3B15091   7.863   7.045   6.921  0.0227  0.0473 -0.0063
  985loPI   C4B15092   7.805   7.268   7.420  0.3269 -0.0103 -0.3724
  986loPI    C115093  11.935   3.687   5.165  0.0405  0.2598  0.0184
  986loPI    C215094  11.672   3.468   4.958  0.0338  0.0950  0.1983
  986loPI    C315095  11.985   3.634   4.772 -0.1307  0.1917  0.0052
  986loPI   PO415096  11.740   3.713   5.416  0.0455  0.0891  0.0769
  986loPI   GL115097  11.854   3.569   5.850  0.0017 -0.1223  0.0166
  986loPI   GL215098  11.724   3.964   5.935  0.0805  0.0904 -0.1656
  986loPI   C1A15099  11.717   3.337   6.196 -0.2391  0.0632  0.2304
  986loPI   C2A15100  11.603   3.379   6.593 -0.1150  0.2178  0.0426
  986loPI   C3A15101  11.750   3.633   7.016 -0.1387 -0.1049 -0.1596
  986loPI   C4A15102  11.636   3.642   7.478  0.0725 -0.1848  0.0140
  986loPI   C5A15103  11.461   3.280   7.649 -0.0865  0.2493  0.0012
  986loPI   C6A15104  11.467   2.883   7.816  0.2075  0.1961 -0.0893
  986loPI   C1B15105  11.736   3.870   6.375  0.0592  0.0829  0.2672
  986loPI   C2B15106  11.598   4.046   6.779  0.2585 -0.3329  0.3519
  986loPI   C3B15107  11.732   4.105   7.155 -0.1499  0.0966 -0.2184
  986loPI   C4B15108  12.028   3.953   7.474 -0.0466 -0.1354 -0.0187
  987loPI    C115109   6.863   1.899   5.256 -0.2805 -0.0496 -0.0648
  987loPI    C215110   6.884   2.298   5.280 -0.0170 -0.0606 -0.0781
  987loPI    C315111   6.877   2.119   4.922  0.0032 -0.0739 -0.0718
  987loPI   PO415112   6.989   1.809   5.466 -0.0488 -0.0734 -0.3179
  987loPI   GL115113   7.135   2.205   5.737 -0.2218  0.4445  0.0663
  987loPI   GL215114   7.304   2.495   5.792 -0.0782  0.0731  0.0676
  987loPI   C1A15115   6.944   2.162   6.148 -0.0859 -0.2743  0.5268
  987loPI   C2A15116   6.661   2.298   6.441 -0.3844  0.0146  0.2550
  987loPI   C3A15117   6.605   2.376   6.861  0.1544  0.0452 -0.1501
  987loPI   C4A15118   6.386   2.495   7.197 -0.2183 -0.1661  0.0052
  987loPI   C5A15119   6.091   2.767   7.365 -0.2592 -0.0437  0.1027
  987loPI   C6A15120   6.026   2.873   7.804  0.4382  0.0425 -0.1732
  987loPI   C1B15121   7.147   2.581   6.213 -0.0606 -0.0472 -0.1264
  987loPI   C2B15122   7.104   2.482   6.636 -0.1343 -0.1110 -0.0643
  987loPI   C3B15123   6.984   2.561   7.092  0.0214 -0.3694  0.0142
  987loPI   C4B15124   6.784   2.340   7.453  0.1230 -0.2740 -0.0479
  988loPI    C115125  16.849   7.449   5.096 -0.0165  0.0336 -0.0186
  988loPI    C215126  16.859   7.706   4.789  0.0515  0.0963  0.0357
  988loPI    C315127  16.828   7.313   4.721  0.2888  0.0924 -0.0596
  988loPI   PO415128  16.629   7.652   5.269 -0.0940  0.0986 -0.1998
  988loPI   GL115129  16.490   7.431   5.628 -0.1585 -0.0214 -0.1424
  988loPI   GL215130  16.585   7.140   5.609 -0.1870  0.2724 -0.1155
  988loPI   C1A15131  16.425   7.639   5.965 -0.2133 -0.0830 -0.3470
  988loPI   C2A15132  16.383   7.791   6.424  0.2572 -0.0336 -0.1598
  988loPI   C3A15133  16.506   8.020   6.684 -0.0956  0.1535 -0.0786
  988loPI   C4A15134  16.579   8.266   7.077 -0.1852  0.0735 -0.4098
  988loPI   C5A15135  16.960   8.471   7.347 -0.4200  0.0942  0.0241
  988loPI   C6A15136  17.184   8.870   7.421 -0.1413 -0.0811  0.0313
  988loPI   C1B15137  16.781   7.074   5.960 -0.1547  0.0962 -0.3718
  988loPI   C2B15138  16.895   6.968   6.428  0.0469  0.3064  0.2960
  988loPI   C3B15139  17.094   7.265   6.758  0.1192 -0.2216  0.0084
  988loPI   C4B15140  16.891   7.714   6.784  0.0702  0.2462 -0.1735
  989loPI    C115141   8.282  17.236   4.914 -0.1226 -0.3516 -0.1295
  989loPI    C215142   8.018  17.517   4.808  0.0622 -0.1233  0.0076
  989loPI    C315143   8.159  17.263   4.534 -0.2161 -0.1778 -0.0881
  989loPI   PO415144   8.158  17.125   5.183 -0.1233 -0.0729  0.0212
  989loPI   GL115145   7.994  17.075   5.523 -0.0064 -0.0302  0.3673
  989loPI   GL215146   7.673  17.153   5.531 -0.2045  0.1290  0.1052
  989loPI   C1A15147   8.264  16.939   5.944  0.1169  0.1647  0.0625
  989loPI   C2A15148   8.192  16.755   6.313  0.1742  0.0557  0.1847
  989loPI   C3A15149   7.883  16.488   6.629 -0.0129 -0.1100 -0.1405
  989loPI   C4A15150   7.658  16.081   6.774 -0.0865 -0.3314 -0.2471
  989loPI   C5A15151   7.898  15.717   6.887 -0.1536 -0.0634  0.0386
  989loPI   C6A15152   7.690  15.454   7.203 -0.1000  0.0417  0.2152
  989loPI   C1B15153   7.824  17.277   6.010  0.0567  0.3629  0.0513
  989loPI   C2B15154   8.070  17.266   6.370 -0.1052  0.2658 -0.4511
  989loPI   C3B15155   7.932  17.374   6.717 -0.2980 -0.3856  0.0249
  989loPI   C4B15156   7.941  17.568   7.035  0.2652  0.1809  0.2562
  990loPI    C115157  13.272   6.231   5.390 -0.1697  0.0407 -0.1245
  990loPI    C215158  13.513   5.985   5.187  0.1399  0.1802  0.0667
  990loPI    C315159  13.363   6.311   5.009  0.0012  0.0357 -0.0852
  990loPI   PO415160  13.076   6.164   5.469 -0.0888  0.0329  0.0401
  990loPI   GL115161  13.117   6.027   5.834  0.2787 -0.1169  0.0263
  990loPI   GL215162  12.824   6.147   5.996  0.0877  0.0164 -0.0626
  990loPI   C1A15163  13.385   6.021   6.172  0.1519 -0.1572 -0.2599
  990loPI   C2A15164  13.459   5.925   6.595  0.1637 -0.1602  0.2442
  990loPI   C3A15165  13.444   5.737   6.953  0.0632 -0.2797 -0.2604
  990loPI   C4A15166  13.374   5.673   7.361  0.3677  0.0550 -0.1666
  990loPI   C5A15167  13.227   5.352   7.594 -0.3443  0.0623 -0.1035
  990loPI   C6A15168  13.276   5.017   7.822  0.1301 -0.0997 -0.2937
  990loPI   C1B15169  12.892   5.891   6.377 -0.0141 -0.2440  0.1041
  990loPI   C2B15170  12.920   5.838   6.871 -0.0403  0.0421 -0.1386
  990loPI   C3B15171  12.888   5.635   7.295  0.1001 -0.0416  0.1054
  990loPI   C4B15172  12.685   5.687   7.664 -0.0714  0.2531 -0.0984
  991loPI    C115173  13.717  15.583   5.381  0.0688 -0.1131  0.1490
  991loPI    C215174  13.336  15.494   5.301 -0.0071  0.2503  0.0877
  991loPI    C315175  13.482  15.438   5.669 -0.0349 -0.1620  0.0407
  991loPI   PO415176  13.729  15.810   5.309  0.0277  0.0861 -0.2334
  991loPI   GL115177  13.452  16.012   5.571  0.0463  0.1228 -0.2433
  991loPI   GL215178  13.792  16.165   5.697 -0.1203  0.1560  0.0717
  991loPI   C1A15179  13.535  15.916   6.040 -0.0824 -0.5719 -0.2976
  991loPI   C2A15180  13.522  15.998   6.492  0.3990  0.1151  0.2150
  991loPI   C3A15181  13.543  15.824   6.833 -0.1026 -0.1495 -0.0392
  991loPI   C4A15182  13.298  15.682   7.177  0.1487 -0.4302 -0.1823
  991loPI   C5A15183  13.183  15.302   7.239  0.0332 -0.3180  0.2169
  991loPI   C6A15184  13.039  15.009   7.128 -0.2891 -0.1423 -0.2281
  991loPI   C1B15185  13.695  16.348   6.119  0.1094  0.3138 -0.0351
  991loPI   C2B15186  13.675  16.476   6.546  0.3098  0.1536 -0.1715
  991loPI   C3B15187  14.030  16.674   6.883 -0.0306 -0.0161 -0.1849
  991loPI   C4B15188  14.278  16.825   7.195  0.0115 -0.2169  0.1280
  992loPI    C115189  12.605   0.191   4.794 -0.2392  0.0947  0.0083
  992loPI    C215190  12.894  -0.011   4.604 -0.2164 -0.0344  0.1782
  992loPI    C315191  12.705   0.289   4.419 -0.0025  0.0235  0.0510
  992loPI   PO415192  12.732   0.250   4.991 -0.0959  0.2506  0.2425
  992loPI   GL115193  12.904   0.067   5.433 -0.1923  0.0579  0.1187
  992loPI   GL215194  12.586   0.261   5.517 -0.0484  0.1337 -0.0036
  992loPI   C1A15195  13.019   0.198   5.824 -0.3971 -0.1788  0.2195
  992loPI   C2A15196  13.042   0.112   6.323 -0.2981 -0.2929  0.1961
  992loPI   C3A15197  13.015  -0.108   6.709 -0.0012  0.0210  0.3111
  992loPI   C4A15198  12.995  -0.468   6.989 -0.3345  0.0542 -0.2231
  992loPI   C5A15199  13.224  -0.597   7.335 -0.0687 -0.1757  0.0688
  992loPI   C6A15200  13.307  -0.512   7.770 -0.1115 -0.0398  0.2990
  992loPI   C1B15201  12.568   0.337   6.004  0.3154 -0.1294  0.1737
  992loPI   C2B15202  12.529   0.726   6.251  0.3625  0.0538  0.1804
  992loPI   C3B15203  12.535   0.728   6.679  0.0230 -0.0454 -0.0966
  992loPI   C4B15204  12.536   0.769   7.021  0.0329 -0.1019 -0.0669
  993loPI    C115205  11.034  16.916   4.964 -0.0609 -0.0913  0.0722
  993loPI    C215206  10.869  16.917   4.600 -0.2499 -0.0368  0.1569
  993loPI    C315207  11.129  17.203   4.702 -0.1828 -0.0621  0.0595
  993loPI   PO415208  10.805  16.926   5.176  0.0020  0.2003 -0.2020
  993loPI   GL115209  11.019  17.054   5.551  0.0075  0.1396 -0.1445
  993loPI   GL215210  11.023  17.323   5.590  0.0512 -0.0811  0.0597
  993loPI   C1A15211  11.161  16.917   5.875  0.1576  0.1103  0.1632
  993loPI   C2A15212  11.096  16.796   6.342 -0.0526  0.0696 -0.1427
  993loPI   C3A15213  11.068  16.400   6.479  0.2023  0.1630  0.0517
  993loPI   C4A15214  11.018  16.194   6.855  0.3176  0.3855 -0.1631
  993loPI   C5A15215  11.253  16.098   7.164  0.1177 -0.2026  0.0784
  993loPI   C6A15216  11.438  16.341   7.500  0.0646  0.1014  0.1598
  993loPI   C1B15217  11.131  17.457   5.911 -0.0254 -0.2992  0.0292
  993loPI   C2B15218  11.024  17.283   6.313  0.2566 -0.1486  0.0695
  993loPI   C3B15219  10.914  17.114   6.748  0.0049  0.0296  0.2154
  993loPI   C4B15220  10.924  16.764   7.013  0.0163 -0.0670 -0.0622
  994loPI    C115221   5.918  11.666   4.888  0.0730  0.2887 -0.0184
  994loPI    C215222   6.007  11.406   4.598 -0.3704 -0.0948  0.1765
  994loPI    C315223   5.768  11.717   4.521  0.1082  0.2312 -0.0409
  994loPI   PO415224   6.091  11.537   5.043 -0.0628 -0.1709 -0.3151
  994loPI   GL115225   5.998  11.147   5.454 -0.1101  0.0863  0.0125
  994loPI   GL215226   6.088  11.445   5.513 -0.1217  0.4007 -0.1248
  994loPI   C1A15227   6.081  11.097   5.920  0.2351  0.0045 -0.1193
  994loPI   C2A15228   6.044  11.342   6.299 -0.2153  0.1956  0.2463
  994loPI   C3A15229   6.285  11.539   6.630  0.1589 -0.1716 -0.2430
  994loPI   C4A15230   6.239  11.698   7.041 -0.1700  0.4159 -0.2928
  994loPI   C5A15231   5.976  11.828   7.445  0.3641  0.1491 -0.2031
  994loPI   C6A15232   5.828  11.839   7.890  0.0397  0.2079 -0.1116
  994loPI   C1B15233   6.157  11.568   5.893  0.0178 -0.1353 -0.1440
  994loPI   C2B15234   5.914  11.872   6.207 -0.2019 -0.0692  0.1686
  994loPI   C3B15235   5.802  11.895   6.531 -0.0519 -0.0781  0.0852
  994loPI   C4B15236   5.780  11.857   6.974 -0.1611  0.2383  0.1974
  995loPI    C115237   8.043   8.055   5.200  0.1679  0.0502 -0.0034
  995loPI    C215238   8.079   7.789   5.496 -0.2145  0.0209  0.0223
  995loPI    C315239   7.968   7.668   5.131 -0.1308  0.1111 -0.0337
  995loPI   PO415240   7.885   8.222   5.294 -0.0053 -0.0767  0.1748
  995loPI   GL115241   7.649   8.373   5.637 -0.4392  0.0464 -0.3200
  995loPI   GL215242   7.361   8.475   5.401 -0.0979 -0.1067 -0.2330
  995loPI   C1A15243   7.698   8.100   5.961 -0.0722 -0.1839 -0.1497
  995loPI   C2A15244   7.596   7.842   6.303 -0.3669  0.2234  0.0461
  995loPI   C3A15245   7.451   7.494   6.570  0.0583 -0.0055  0.1373
  995loPI   C4A15246   7.577   7.505   6.970  0.0545  0.0878 -0.1197
  995loPI   C5A15247   7.585   7.746   7.356 -0.1450 -0.1498 -0.1042
  995loPI   C6A15248   7.693   7.750   7.755 -0.1491 -0.4153 -0.1286
  995loPI   C1B15249   7.186   8.171   5.675  0.4203 -0.1351 -0.2478
  995loPI   C2B15250   7.187   7.999   5.968 -0.0470 -0.1320  0.0221
  995loPI   C3B15251   7.124   7.974   6.428  0.1427  0.3009  0.1815
  995loPI   C4B15252   6.888   8.102   6.767 -0.2594 -0.0347 -0.0447
  996loPI    C115253  16.305   5.269   4.753 -0.1911 -0.0972 -0.1663
  996loPI    C215254  16.345   5.659   4.674  0.0191 -0.1115 -0.1357
  996loPI    C315255  16.287   5.399   4.375  0.1315 -0.0855 -0.1808
  996loPI   PO415256  16.532   5.256   4.907  0.0736  0.1984 -0.1423
  996loPI   GL115257  16.466   5.149   5.301 -0.1148 -0.1272 -0.0217
  996loPI   GL215258  16.759   5.282   5.358 -0.0091  0.1141 -0.0531
  996loPI   C1A15259  16.331   5.031   5.739  0.0289  0.0676 -0.0818
  996loPI   C2A15260  16.543   5.004   6.209  0.1684  0.1371 -0.0472
  996loPI   C3A15261  16.554   5.269   6.583  0.2119 -0.0991 -0.1602
  996loPI   C4A15262  16.589   5.435   6.956  0.4041  0.2517 -0.1064
  996loPI   C5A15263  16.841   5.478   7.320  0.0711  0.2670  0.2018
  996loPI   C6A15264  16.919   5.182   7.553 -0.0523 -0.0680 -0.3640
  996loPI   C1B15265  16.604   5.468   5.721 -0.0083  0.1192 -0.0444
  996loPI   C2B15266  16.838   5.542   6.125 -0.2146  0.0229  0.0628
  996loPI   C3B15267  17.028   5.394   6.579  0.2251  0.0507 -0.0815
  996loPI   C4B15268  17.255   5.420   7.013  0.4120 -0.0043 -0.2284
  997loPI    C115269  17.806   9.072   4.596 -0.0212  0.0224 -0.1492
  997loPI    C215270  17.560   9.090   4.281 -0.0550  0.2022 -0.1135
  997loPI    C315271  17.887   8.859   4.267 -0.1599  0.0576 -0.2070
  997loPI   PO415272  17.658   9.043   4.832 -0.0153 -0.1442 -0.0348
  997loPI   GL115273  17.891   9.132   5.151  0.1216 -0.0835 -0.2159
  997loPI   GL215274  17.575   9.161   5.306  0.1464 -0.0762 -0.1969
  997loPI   C1A15275  18.069   9.224   5.539 -0.0919 -0.0041  0.2738
  997loPI   C2A15276  17.776   9.166   5.825  0.3276 -0.1260  0.0308
  997loPI   C3A15277  17.804   8.913   6.104  0.2014  0.0508 -0.0508
  997loPI   C4A15278  17.769   8.636   6.465 -0.0080 -0.0111  0.0908
  997loPI   C5A15279  17.612   8.338   6.704 -0.0881 -0.1268  0.2604
  997loPI   C6A15280  17.671   7.951   7.001  0.0997 -0.0591  0.2958
  997loPI   C1B15281  17.508   8.821   5.531  0.2373 -0.1321 -0.1069
  997loPI   C2B15282  17.543   8.385   5.733 -0.1739 -0.0543 -0.0407
  997loPI   C3B15283  17.458   8.300   6.192 -0.0362 -0.0190  0.1303
  997loPI   C4B15284  17.456   7.953   6.445 -0.2525 -0.0953  0.1548
  998loPI    C115285   1.030  10.296   4.467 -0.2985  0.0869  0.1965
  998loPI    C215286   1.083  10.489   4.120  0.2025  0.0107  0.2238
  998loPI    C315287   0.793  10.216   4.155 -0.0479  0.2369 -0.0373
  998loPI   PO415288   1.046  10.487   4.668  0.0849  0.3604 -0.0314
  998loPI   GL115289   1.059  10.512   5.117  0.1626 -0.1224  0.3127
  998loPI   GL215290   1.381  10.607   5.281 -0.1140 -0.0272  0.2174
  998loPI   C1A15291   1.025  10.575   5.557  0.1189 -0.2113 -0.2613
  998loPI   C2A15292   0.957  10.650   6.049 -0.0718  0.0404 -0.0385
  998loPI   C3A15293   0.846  10.834   6.463  0.0645  0.0638  0.4058
  998loPI   C4A15294   0.932  10.906   6.876 -0.2149  0.1380 -0.1586
  998loPI   C5A15295   0.871  10.922   7.345 -0.0083 -0.0028 -0.4289
  998loPI   C6A15296   0.784  10.672   7.739 -0.2940 -0.0862 -0.0337
  998loPI   C1B15297   1.483  10.362   5.530  0.2994  0.2808  0.1863
  998loPI   C2B15298   1.640  10.098   5.911 -0.0022  0.1500  0.1111
  998loPI   C3B15299   1.688  10.030   6.227  0.3060  0.0230 -0.0711
  998loPI   C4B15300   1.762  10.330   6.614 -0.2355  0.0662  0.0865
  999loPI    C115301  12.091   2.727   5.199 -0.0259  0.1686 -0.0414
  999loPI    C215302  12.134   3.099   5.058  0.0887  0.1538 -0.0462
  999loPI    C315303  12.442   2.844   5.047  0.0241  0.0734  0.0003
  999loPI   PO415304  11.969   2.677   5.445 -0.1402 -0.2829 -0.1101
  999loPI   GL115305  12.115   2.744   5.796  0.1516 -0.0212  0.1343
  999loPI   GL215306  12.111   3.113   5.877  0.1467 -0.0886 -0.0179
  999loPI   C1A15307  12.132   2.604   6.354 -0.2998 -0.0403  0.0324
  999loPI   C2A15308  12.144   2.706   6.763  0.1125 -0.0891 -0.2133
  999loPI   C3A15309  11.899   2.744   7.228  0.0435  0.1480  0.2103
  999loPI   C4A15310  11.853   3.001   7.543  0.2414 -0.0039  0.4152
  999loPI   C5A15311  11.842   3.100   8.028 -0.2622 -0.0060  0.0026
  999loPI   C6A15312  11.910   3.336   8.361 -0.2966 -0.1394 -0.2488
  999loPI   C1B15313  12.187   3.144   6.248 -0.1869  0.0415 -0.2470
  999loPI   C2B15314  12.143   3.192   6.665  0.5250 -0.0747 -0.3631
  999loPI   C3B15315  11.845   3.150   6.961  0.0317 -0.0887 -0.1140
  999loPI   C4B15316  11.485   3.127   7.192 -0.0715 -0.0281  0.3017
 1000loPI    C115317  16.764  15.848   5.339 -0.0408  0.0997  0.2342
 1000loPI    C215318  16.550  16.061   5.077 -0.0146  0.1423  0.2477
 1000loPI    C315319  16.891  16.210   5.225  0.0817  0.0284  0.1420
 1000loPI   PO415320  16.676  15.775   5.540 -0.0239 -0.0734  0.2250
 1000loPI   GL115321  16.562  15.964   5.883  0.0049  0.1865  0.1992
 1000loPI   GL215322  16.350  15.735   5.915 -0.0925  0.1437 -0.0602
 1000loPI   C1A15323  16.853  16.256   6.153 -0.1782 -0.0216  0.0367
 1000loPI   C2A15324  16.948  16.309   6.477  0.2038 -0.4157 -0.2165
 1000loPI   C3A15325  17.069  16.360   6.799 -0.3187 -0.0733  0.3394
 1000loPI   C4A15326  17.269  16.407   7.213 -0.1422 -0.0215  0.0084
 1000loPI   C5A15327  17.202  16.310   7.586 -0.2366  0.2975 -0.0360
 1000loPI   C6A15328  16.930  16.196   7.922 -0.0963  0.2731  0.1082
 1000loPI   C1B15329  16.387  15.504   6.264 -0.3926 -0.0044  0.1788
 1000loPI   C2B15330  16.456  15.411   6.670 -0.2221  0.0402  0.4246
 1000loPI   C3B15331  16.504  15.289   7.128 -0.0145 -0.0717 -0.2045
 1000loPI   C4B15332  16.532  15.057   7.544 -0.0340 -0.0286 -0.0258
 1001loPI    C115333   6.924   0.139   5.202 -0.0204 -0.1597 -0.2886
 1001loPI    C215334   6.809   0.012   4.841 -0.3101  0.1328 -0.3037
 1001loPI    C315335   6.673   0.360   4.983  0.0154  0.1506 -0.0235
 1001loPI   PO415336   6.861  -0.046   5.350 -0.3030  0.0464  0.2139
 1001loPI   GL115337   7.017  -0.321   5.649 -0.3056  0.2048 -0.1068
 1001loPI   GL215338   6.696  -0.519   5.655 -0.2118 -0.0058  0.1425
 1001loPI   C1A15339   7.109  -0.196   6.044 -0.1313 -0.2299 -0.2342
 1001loPI   C2A15340   7.051   0.009   6.408 -0.2522 -0.0512  0.0331
 1001loPI   C3A15341   7.196   0.239   6.668 -0.0313 -0.0639 -0.0705
 1001loPI   C4A15342   7.342   0.619   6.879 -0.0466 -0.2996 -0.1797
 1001loPI   C5A15343   7.567   1.030   6.980  0.1681 -0.0517 -0.0304
 1001loPI   C6A15344   7.696   1.308   7.283 -0.2752  0.1453 -0.1491
 1001loPI   C1B15345   6.924  -0.746   5.946  0.1320 -0.1069  0.0777
 1001loPI   C2B15346   7.182  -0.709   6.244 -0.2701 -0.0165 -0.1091
 1001loPI   C3B15347   7.424  -0.736   6.607 -0.0583  0.0548 -0.1586
 1001loPI   C4B15348   7.639  -1.021   6.764  0.0737 -0.0987  0.1411
 1002loPI    C115349  18.809  17.143   4.833 -0.2255 -0.0244 -0.1887
 1002loPI    C215350  19.083  16.863   4.756 -0.0621  0.0521  0.0994
 1002loPI    C315351  18.704  16.807   4.644  0.0010 -0.2103  0.0084
 1002loPI   PO415352  18.817  17.156   5.110 -0.0414  0.1161  0.0353
 1002loPI   GL115353  18.949  17.320   5.498 -0.2535 -0.0479 -0.0630
 1002loPI   GL215354  18.853  17.623   5.618 -0.1484  0.2663 -0.1814
 1002loPI   C1A15355  18.599  17.130   5.807  0.2422  0.0561 -0.0536
 1002loPI   C2A15356  18.510  17.004   6.205 -0.0743  0.1272 -0.0315
 1002loPI   C3A15357  18.440  16.928   6.594  0.2570 -0.0703 -0.0886
 1002loPI   C4A15358  18.334  16.914   6.993  0.0292  0.0781 -0.1579
 1002loPI   C5A15359  18.229  16.985   7.449 -0.2912  0.0122  0.2172
 1002loPI   C6A15360  18.147  16.906   7.947  0.0442  0.1124  0.0140
 1002loPI   C1B15361  18.748  17.561   6.006  0.0271  0.0024 -0.1609
 1002loPI   C2B15362  18.506  17.477   6.357 -0.1540  0.2086 -0.0639
 1002loPI   C3B15363  18.452  17.480   6.747  0.1359  0.0307  0.0936
 1002loPI   C4B15364  18.340  17.495   7.194 -0.1794  0.0596 -0.1271
 1003loPI    C115365   1.041   4.754   4.922  0.0930  0.2859 -0.0949
 1003loPI    C215366   0.783   4.709   4.619  0.1917 -0.3438 -0.0992
 1003loPI    C315367   1.170   4.782   4.544  0.1264  0.0131 -0.1059
 1003loPI   PO415368   0.938   4.912   5.171 -0.3789 -0.2324 -0.2408
 1003loPI   GL115369   0.971   4.994   5.597  0.2998  0.1558  0.2297
 1003loPI   GL215370   1.287   5.209   5.697 -0.0135 -0.0181 -0.2086
 1003loPI   C1A15371   0.886   5.254   5.992  0.2224 -0.1704  0.3381
 1003loPI   C2A15372   0.665   5.540   6.289 -0.2104 -0.3756 -0.4884
 1003loPI   C3A15373   0.699   5.404   6.750  0.4923  0.1574 -0.2161
 1003loPI   C4A15374   0.784   5.553   7.216  0.1366 -0.4080 -0.0291
 1003loPI   C5A15375   0.857   5.645   7.622 -0.1220 -0.0862  0.0006
 1003loPI   C6A15376   0.620   5.655   7.990 -0.1688 -0.1677 -0.2220
 1003loPI   C1B15377   1.329   5.189   6.152  0.1604  0.0339 -0.0425
 1003loPI   C2B15378   1.114   5.138   6.542  0.2818  0.0776 -0.1129
 1003loPI   C3B15379   1.042   5.169   6.987  0.1201  0.1904 -0.1850
 1003loPI   C4B15380   0.994   5.180   7.427  0.1729 -0.0482 -0.2467
 1004loPI    C115381  17.422  13.485   5.039  0.1668 -0.1327 -0.2778
 1004loPI    C215382  17.242  13.136   4.964  0.0051 -0.1319  0.0837
 1004loPI    C315383  17.069  13.401   5.207  0.3115  0.0370  0.1228
 1004loPI   PO415384  17.592  13.406   5.233  0.2554 -0.2524 -0.2403
 1004loPI   GL115385  17.515  13.217   5.612 -0.1723 -0.0634  0.1659
 1004loPI   GL215386  17.438  12.842   5.755  0.0027  0.0269  0.2260
 1004loPI   C1A15387  17.338  13.296   6.010  0.0589  0.0731 -0.0007
 1004loPI   C2A15388  17.220  13.090   6.369  0.0844 -0.2853 -0.0900
 1004loPI   C3A15389  17.133  13.142   6.849  0.0721 -0.0767  0.4363
 1004loPI   C4A15390  17.155  13.212   7.225 -0.2574  0.0960  0.2549
 1004loPI   C5A15391  17.081  12.933   7.587  0.3071 -0.0793 -0.0792
 1004loPI   C6A15392  17.084  12.746   7.981 -0.4887  0.1328 -0.1113
 1004loPI   C1B15393  17.658  12.876   6.172 -0.1382 -0.1461 -0.2284
 1004loPI   C2B15394  17.650  13.063   6.620 -0.3523 -0.3330  0.1989
 1004loPI   C3B15395  17.551  12.927   7.020  0.1578  0.1012 -0.4372
 1004loPI   C4B15396  17.580  13.077   7.456 -0.2793 -0.2249 -0.2837
 1005loPI    C115397   7.432  13.422   5.243  0.0715 -0.2632 -0.1081
 1005loPI    C215398   7.632  13.386   4.898  0.1365 -0.0309 -0.0965
 1005loPI    C315399   7.562  13.748   5.051  0.2111 -0.1366  0.1952
 1005loPI   PO415400   7.491  13.225   5.376 -0.0814 -0.0727 -0.3641
 1005loPI   GL115401   7.932  13.235   5.607  0.0577 -0.1152  0.2998
 1005loPI   GL215402   7.967  12.864   5.712  0.1446 -0.0487 -0.0402
 1005loPI   C1A15403   7.770  13.295   5.961  0.1548 -0.0166  0.0115
 1005loPI   C2A15404   7.688  13.415   6.322  0.1695 -0.0367 -0.1797
 1005loPI   C3A15405   7.723  13.383   6.745 -0.0234 -0.2937  0.0922
 1005loPI   C4A15406   7.746  13.318   7.087 -0.0627  0.0210  0.1792
 1005loPI   C5A15407   8.142  13.372   7.353 -0.3409 -0.0235 -0.0129
 1005loPI   C6A15408   8.377  13.126   7.675  0.1598  0.0635 -0.4140
 1005loPI   C1B15409   8.054  12.952   6.116  0.1001  0.0966 -0.1314
 1005loPI   C2B15410   8.064  12.621   6.588  0.0173 -0.3804 -0.0345
 1005loPI   C3B15411   8.046  12.468   7.041 -0.2756 -0.1268 -0.0440
 1005loPI   C4B15412   7.700  12.394   7.185 -0.0091 -0.0442 -0.0983
 1006loPI    C115413  10.760  17.531   5.185  0.1057 -0.0389  0.1049
 1006loPI    C215414  10.489  17.672   4.926  0.3121  0.2236  0.0267
 1006loPI    C315415  10.644  17.307   4.875 -0.1188  0.0175  0.1466
 1006loPI   PO415416  10.742  17.706   5.383 -0.4234 -0.0023  0.4333
 1006loPI   GL115417  10.590  17.639   5.787  0.2540  0.0415  0.1823
 1006loPI   GL215418  10.307  17.694   5.671 -0.2109 -0.1501  0.1975
 1006loPI   C1A15419  10.670  17.574   6.095  0.2825 -0.0558 -0.2488
 1006loPI   C2A15420  10.535  17.419   6.502  0.0400 -0.0399  0.1590
 1006loPI   C3A15421  10.119  17.433   6.724  0.2602 -0.4174 -0.0939
 1006loPI   C4A15422   9.951  17.337   7.044  0.1800  0.1004  0.0428
 1006loPI   C5A15423   9.758  17.152   7.321 -0.2368 -0.0756  0.0384
 1006loPI   C6A15424   9.464  17.303   7.624 -0.1391 -0.2487  0.1939
 1006loPI   C1B15425  10.176  17.465   6.033  0.0020 -0.0945  0.2412
 1006loPI   C2B15426  10.145  17.095   6.289 -0.2221 -0.0231 -0.1084
 1006loPI   C3B15427  10.233  16.892   6.662 -0.1067 -0.2166 -0.0043
 1006loPI   C4B15428  10.442  17.124   6.936  0.3098  0.0218  0.0782
 1007loPI    C115429   0.810  13.613   4.704 -0.1159 -0.0153  0.0798
 1007loPI    C215430   0.465  13.498   4.537 -0.0804 -0.0281  0.0150
 1007loPI    C315431   0.569  13.885   4.536 -0.1435 -0.0104  0.1271
 1007loPI   PO415432   0.748  13.533   5.015 -0.3300  0.2864 -0.1716
 1007loPI   GL115433   1.175  13.384   5.378  0.1872  0.0062 -0.0891
 1007loPI   GL215434   0.941  13.406   5.656 -0.0909 -0.2673  0.0221
 1007loPI   C1A15435   1.427  13.552   5.639 -0.4070 -0.1540 -0.1429
 1007loPI   C2A15436   1.519  13.629   6.104  0.0364 -0.0780 -0.2591
 1007loPI   C3A15437   1.590  13.354   6.383  0.1060 -0.1744 -0.1173
 1007loPI   C4A15438   1.550  13.065   6.720 -0.0340 -0.1748  0.1864
 1007loPI   C5A15439   1.772  12.938   7.161  0.4655 -0.0163 -0.0534
 1007loPI   C6A15440   1.676  12.473   7.305  0.0283 -0.1502  0.3640
 1007loPI   C1B15441   1.158  13.210   6.087  0.2684  0.2789 -0.0870
 1007loPI   C2B15442   1.132  13.136   6.504 -0.1064 -0.2156  0.0191
 1007loPI   C3B15443   0.946  13.158   6.836  0.1573 -0.0599  0.0162
 1007loPI   C4B15444   0.848  12.772   7.138  0.0957 -0.4315 -0.1806
 1008loPI    C115445   3.037  11.367   4.402 -0.2931 -0.0937  0.0299
 1008loPI    C215446   2.654  11.408   4.292 -0.2626 -0.2389 -0.1358
 1008loPI    C315447   2.928  11.290   4.025 -0.1276 -0.2774  0.0176
 1008loPI   PO415448   3.101  11.260   4.719  0.1717  0.1826  0.0558
 1008loPI   GL115449   3.150  11.099   5.102 -0.0063 -0.2753  0.2756
 1008loPI   GL215450   3.214  10.809   5.243 -0.2001 -0.1809 -0.0771
 1008loPI   C1A15451   3.077  11.358   5.422 -0.0756  0.0058  0.0247
 1008loPI   C2A15452   3.060  11.478   5.826  0.0252  0.1609 -0.1047
 1008loPI   C3A15453   3.169  11.571   6.267  0.0472 -0.0515  0.1017
 1008loPI   C4A15454   3.379  11.434   6.664  0.0290  0.0040  0.0078
 1008loPI   C5A15455   3.577  11.489   7.086 -0.2085  0.1800  0.0239
 1008loPI   C6A15456   3.808  11.785   7.348  0.0673  0.0776  0.0635
 1008loPI   C1B15457   3.396  10.977   5.479  0.0924 -0.0034  0.0451
 1008loPI   C2B15458   3.356  10.942   5.902  0.2091  0.1535  0.1326
 1008loPI   C3B15459   3.403  10.958   6.326  0.1408 -0.0268  0.2306
 1008loPI   C4B15460   3.329  10.961   6.762 -0.0458  0.1640  0.1516
 1009loPI    C115461  15.003  13.919   4.994  0.1275  0.0323  0.1338
 1009loPI    C215462  15.307  13.727   4.820  0.0489  0.0980 -0.0794
 1009loPI    C315463  14.948  13.734   4.643 -0.0797  0.0152  0.1739
 1009loPI   PO415464  14.913  13.813   5.154  0.0978 -0.2857 -0.3604
 1009loPI   GL115465  14.754  13.556   5.486 -0.2912  0.1112  0.0604
 1009loPI   GL215466  14.573  13.591   5.654 -0.0335  0.0556 -0.0279
 1009loPI   C1A15467  14.984  13.642   5.947  0.1046 -0.2329  0.3671
 1009loPI   C2A15468  15.044  13.556   6.358 -0.0637  0.2028  0.1929
 1009loPI   C3A15469  15.411  13.242   6.585 -0.3320 -0.0275 -0.3182
 1009loPI   C4A15470  15.433  13.307   6.942 -0.0485 -0.0779  0.0757
 1009loPI   C5A15471  15.255  13.091   7.319 -0.2858  0.0813 -0.1693
 1009loPI   C6A15472  15.100  12.679   7.447  0.3594 -0.2076  0.3368
 1009loPI   C1B15473  14.507  13.512   6.067  0.5217  0.0635  0.3073
 1009loPI   C2B15474  14.528  13.387   6.440  0.0466  0.0485  0.2483
 1009loPI   C3B15475  14.426  13.423   6.855 -0.0343 -0.1718  0.0628
 1009loPI   C4B15476  14.479  13.472   7.289  0.1918 -0.3740  0.0456
 1010loPI    C115477   4.564   1.358   5.334 -0.0498  0.1743 -0.0480
 1010loPI    C215478   4.755   1.286   4.991 -0.1793  0.0104 -0.0868
 1010loPI    C315479   4.405   1.479   4.988 -0.1020  0.1528 -0.0316
 1010loPI   PO415480   4.515   1.125   5.387 -0.0851  0.0208  0.1537
 1010loPI   GL115481   4.672   0.965   5.800  0.4669  0.3640 -0.0394
 1010loPI   GL215482   4.872   1.185   5.895  0.0895 -0.3881 -0.1446
 1010loPI   C1A15483   4.657   0.819   6.171 -0.3360  0.1746 -0.0389
 1010loPI   C2A15484   4.900   0.804   6.615  0.0593 -0.2896  0.2747
 1010loPI   C3A15485   4.981   1.042   7.005  0.2883 -0.0490  0.1833
 1010loPI   C4A15486   5.038   1.165   7.421  0.1697 -0.0425 -0.1595
 1010loPI   C5A15487   4.690   1.178   7.733 -0.0245 -0.4835 -0.2153
 1010loPI   C6A15488   4.254   1.096   7.693  0.0932  0.1151 -0.2041
 1010loPI   C1B15489   5.124   0.967   6.182  0.1995  0.0479  0.0888
 1010loPI   C2B15490   5.375   0.765   6.485 -0.0416  0.1017  0.0423
 1010loPI   C3B15491   5.526   1.040   6.807  0.0786  0.2242  0.1098
 1010loPI   C4B15492   5.379   1.425   6.950 -0.0770  0.1522  0.1206
 1011loPI    C115493   4.618   2.215   5.112  0.1443 -0.2668  0.0715
 1011loPI    C215494   4.305   2.053   4.923  0.1895 -0.2997  0.0242
 1011loPI    C315495   4.666   1.884   4.891  0.3009 -0.0140 -0.2834
 1011loPI   PO415496   4.506   2.297   5.392 -0.1479  0.1470  0.0283
 1011loPI   GL115497   4.380   2.073   5.769  0.1060 -0.0390  0.0188
 1011loPI   GL215498   4.103   2.180   5.810  0.1234  0.0421  0.0014
 1011loPI   C1A15499   4.402   2.163   6.188  0.0609 -0.0663  0.1544
 1011loPI   C2A15500   4.294   2.276   6.517  0.0413 -0.2542 -0.0169
 1011loPI   C3A15501   4.458   2.387   6.912 -0.0598 -0.1827  0.4541
 1011loPI   C4A15502   4.518   2.327   7.279 -0.1772  0.1445 -0.2543
 1011loPI   C5A15503   4.619   2.077   7.637  0.1836 -0.0272 -0.0458
 1011loPI   C6A15504   4.482   2.041   8.113  0.1444 -0.0133  0.0511
 1011loPI   C1B15505   3.829   2.276   6.119  0.0355  0.5008 -0.2269
 1011loPI   C2B15506   3.731   1.982   6.440 -0.2272 -0.1176  0.0842
 1011loPI   C3B15507   3.797   1.733   6.784 -0.0318 -0.1441 -0.2265
 1011loPI   C4B15508   4.149   1.561   6.998 -0.1880  0.1428 -0.1381
 1012loPI    C115509  16.331   1.811   5.036  0.1043 -0.0242  0.0699
 1012loPI    C215510  16.111   1.515   4.882  0.0196 -0.0984  0.3273
 1012loPI    C315511  16.321   1.755   4.640 -0.1931 -0.1446  0.0918
 1012loPI   PO415512  16.174   2.047   5.195  0.1059  0.0297  0.1508
 1012loPI   GL115513  16.158   1.995   5.661 -0.1107  0.3331 -0.1828
 1012loPI   GL215514  15.865   2.148   5.529 -0.0481  0.1483  0.0136
 1012loPI   C1A15515  16.148   2.444   5.900  0.0146  0.1087 -0.1448
 1012loPI   C2A15516  16.098   2.817   6.194 -0.0758  0.1852  0.0518
 1012loPI   C3A15517  16.133   2.961   6.673  0.2775  0.2749 -0.0385
 1012loPI   C4A15518  16.419   3.083   7.011  0.1503  0.2654 -0.0470
 1012loPI   C5A15519  16.437   3.343   7.332 -0.0845 -0.0238 -0.1152
 1012loPI   C6A15520  16.660   3.387   7.759  0.2862 -0.2156  0.2914
 1012loPI   C1B15521  15.736   1.674   5.772  0.0217  0.2352  0.0004
 1012loPI   C2B15522  15.852   1.400   6.168  0.1728 -0.1855 -0.1497
 1012loPI   C3B15523  15.732   1.119   6.483 -0.0366  0.1833 -0.0397
 1012loPI   C4B15524  15.622   1.021   6.802  0.0031  0.0009 -0.0996
 1013loPI    C115525  12.065   7.253   5.046 -0.0856 -0.1517  0.0851
 1013loPI    C215526  11.788   6.973   4.976 -0.1863 -0.0481  0.0663
 1013loPI    C315527  11.968   7.157   4.670 -0.1750 -0.0386  0.0786
 1013loPI   PO415528  12.204   7.127   5.242  0.0619  0.2788 -0.1027
 1013loPI   GL115529  12.230   7.068   5.746 -0.0777  0.0375 -0.0847
 1013loPI   GL215530  12.168   6.730   5.789 -0.0302  0.1407 -0.0523
 1013loPI   C1A15531  12.589   7.134   5.985 -0.0450  0.1947  0.0257
 1013loPI   C2A15532  12.954   7.207   6.268 -0.0651 -0.0032  0.2144
 1013loPI   C3A15533  12.994   7.213   6.746  0.5555 -0.0349 -0.2102
 1013loPI   C4A15534  12.826   7.075   7.124  0.3647 -0.1185  0.0166
 1013loPI   C5A15535  12.917   6.623   7.342 -0.1082 -0.2347  0.0296
 1013loPI   C6A15536  12.767   6.256   7.597  0.1257  0.1952 -0.1065
 1013loPI   C1B15537  12.201   6.911   6.288  0.0680 -0.2541  0.2799
 1013loPI   C2B15538  12.329   7.115   6.650 -0.0973 -0.1242 -0.0584
 1013loPI   C3B15539  12.385   7.231   7.150 -0.2138  0.1129  0.1803
 1013loPI   C4B15540  12.055   7.211   7.438 -0.0863  0.0278  0.1339
 1014loPI    C115541  18.477   4.547   4.801  0.2955  0.0156 -0.2160
 1014loPI    C215542  18.328   4.446   4.444 -0.1615  0.0451 -0.0397
 1014loPI    C315543  18.356   4.832   4.547 -0.4293  0.0255  0.1163
 1014loPI   PO415544  18.410   4.450   4.962 -0.1248 -0.0634  0.1978
 1014loPI   GL115545  18.385   4.558   5.324 -0.5447 -0.1154  0.0111
 1014loPI   GL215546  18.660   4.257   5.389  0.0304 -0.0626  0.1903
 1014loPI   C1A15547  18.408   4.942   5.529  0.2881 -0.0538 -0.0770
 1014loPI   C2A15548  18.313   5.380   5.695  0.3334  0.0798  0.0029
 1014loPI   C3A15549  18.116   5.421   6.100 -0.1235  0.3292 -0.1250
 1014loPI   C4A15550  17.920   5.195   6.419 -0.2670  0.1048  0.4443
 1014loPI   C5A15551  18.038   5.079   6.898 -0.0283 -0.0614 -0.1174
 1014loPI   C6A15552  17.884   5.010   7.297 -0.0051  0.1012  0.1249
 1014loPI   C1B15553  18.846   4.173   5.784 -0.1873  0.0461 -0.3048
 1014loPI   C2B15554  18.757   4.189   6.223  0.2192  0.0734  0.1673
 1014loPI   C3B15555  18.546   4.285   6.557  0.3593  0.1649  0.1016
 1014loPI   C4B15556  18.607   4.230   7.030 -0.0220  0.1358 -0.0210
 1015loPI    C115557  17.571  14.405   4.848 -0.2346 -0.0758 -0.1177
 1015loPI    C215558  17.173  14.434   4.883 -0.2071  0.0843  0.0832
 1015loPI    C315559  17.388  14.752   4.772 -0.1622 -0.0822 -0.3270
 1015loPI   PO415560  17.694  14.275   5.080  0.2474 -0.1001  0.0852
 1015loPI   GL115561  17.830  14.368   5.314  0.2177 -0.2783 -0.0450
 1015loPI   GL215562  17.924  14.228   5.533  0.0970 -0.0889 -0.0342
 1015loPI   C1A15563  17.834  14.685   5.710  0.1299  0.3274  0.0179
 1015loPI   C2A15564  17.930  14.675   6.228  0.2690  0.2079  0.0827
 1015loPI   C3A15565  17.796  14.666   6.721 -0.0787  0.1375 -0.1109
 1015loPI   C4A15566  17.954  14.689   7.142  0.0223 -0.1641  0.0166
 1015loPI   C5A15567  17.994  14.973   7.449  0.0323 -0.0146  0.3302
 1015loPI   C6A15568  18.292  14.937   7.692 -0.1257  0.2289 -0.0720
 1015loPI   C1B15569  17.950  14.228   5.982 -0.3417 -0.0425 -0.0680
 1015loPI   C2B15570  17.781  14.149   6.370 -0.0528 -0.0143 -0.0359
 1015loPI   C3B15571  17.734  13.955   6.730 -0.4916  0.2578  0.2292
 1015loPI   C4B15572  17.921  13.898   7.168 -0.0235 -0.2404 -0.0009
 1016loPI    C115573  13.027   6.999   5.152 -0.0093  0.0919 -0.0981
 1016loPI    C215574  12.992   6.604   5.199  0.3158  0.0794  0.0688
 1016loPI    C315575  12.745   6.799   4.952  0.0602 -0.2044  0.0948
 1016loPI   PO415576  13.051   7.074   5.441 -0.1319 -0.0209  0.1089
 1016loPI   GL115577  13.364   7.407   5.610  0.2321  0.0470  0.0756
 1016loPI   GL215578  13.593   7.539   5.761 -0.2434  0.0266 -0.0164
 1016loPI   C1A15579  13.376   7.176   6.003  0.1223  0.0956 -0.0563
 1016loPI   C2A15580  13.396   6.875   6.408 -0.2142  0.1004  0.1037
 1016loPI   C3A15581  13.312   6.839   6.920  0.0140 -0.1342 -0.4135
 1016loPI   C4A15582  13.405   6.638   7.346 -0.4083  0.0147 -0.1497
 1016loPI   C5A15583  13.242   6.606   7.806  0.1298  0.2319  0.1612
 1016loPI   C6A15584  12.761   6.775   7.796  0.0738 -0.0166  0.1661
 1016loPI   C1B15585  13.467   7.584   6.196 -0.0204  0.1517 -0.1940
 1016loPI   C2B15586  13.401   7.458   6.572 -0.0607  0.0126  0.0790
 1016loPI   C3B15587  13.445   7.419   7.013 -0.0658  0.0486  0.1440
 1016loPI   C4B15588  13.510   7.566   7.480  0.0197  0.0666  0.0791
 1017loPI    C115589  15.435  16.897   5.023  0.1669 -0.1107 -0.0150
 1017loPI    C215590  15.593  17.149   4.755 -0.2480  0.0073 -0.1563
 1017loPI    C315591  15.680  16.759   4.739  0.0210  0.0681 -0.2315
 1017loPI   PO415592  15.432  16.936   5.332 -0.1186 -0.0005 -0.1231
 1017loPI   GL115593  15.611  16.929   5.786 -0.2993 -0.3413  0.0211
 1017loPI   GL215594  15.776  16.576   5.714 -0.1260 -0.2057  0.0952
 1017loPI   C1A15595  15.779  16.770   6.126 -0.0067  0.1134 -0.1299
 1017loPI   C2A15596  15.864  16.509   6.361 -0.0975 -0.1612 -0.1408
 1017loPI   C3A15597  15.875  16.385   6.740  0.0419  0.1837 -0.1011
 1017loPI   C4A15598  15.718  16.324   7.167  0.3708  0.2139  0.3469
 1017loPI   C5A15599  15.486  16.172   7.443 -0.0062 -0.1849 -0.0710
 1017loPI   C6A15600  15.278  15.835   7.628  0.0275 -0.1813 -0.4948
 1017loPI   C1B15601  15.337  16.588   5.908  0.1083  0.2523  0.0364
 1017loPI   C2B15602  15.362  16.664   6.386  0.0503 -0.0232  0.3403
 1017loPI   C3B15603  15.646  16.999   6.546 -0.3916 -0.0699 -0.2466
 1017loPI   C4B15604  15.899  16.878   6.853 -0.0246  0.0243  0.1616
 1018loPI    C115605  18.217  10.804   4.945  0.3084 -0.0320  0.3005
 1018loPI    C215606  18.581  10.682   5.058  0.4330 -0.0542 -0.1082
 1018loPI    C315607  18.537  10.903   4.728  0.0769 -0.0237 -0.0451
 1018loPI   PO415608  18.052  10.560   5.087  0.0787  0.0268 -0.3040
 1018loPI   GL115609  18.144  10.420   5.540 -0.1206  0.0577  0.2209
 1018loPI   GL215610  18.459  10.571   5.545  0.0534 -0.0370  0.0023
 1018loPI   C1A15611  18.093  10.530   6.066 -0.0895  0.0560 -0.0564
 1018loPI   C2A15612  18.173  10.463   6.487  0.1675  0.4457 -0.1211
 1018loPI   C3A15613  18.518  10.215   6.601  0.1155 -0.1154  0.4696
 1018loPI   C4A15614  18.696   9.938   6.846 -0.2712  0.2475  0.1736
 1018loPI   C5A15615  19.031   9.932   7.163  0.1438  0.4242  0.1832
 1018loPI   C6A15616  19.294   9.974   7.378 -0.3476  0.0020  0.1853
 1018loPI   C1B15617  18.552  10.717   5.966  0.0384 -0.0240  0.0993
 1018loPI   C2B15618  18.614  10.569   6.321  0.0223  0.1810 -0.2864
 1018loPI   C3B15619  18.529  10.661   6.752  0.2430 -0.1350  0.2539
 1018loPI   C4B15620  18.261  10.418   7.069 -0.2953  0.1022  0.0451
 1019loPI    C115621   5.186   3.003   5.351 -0.0321 -0.0564  0.1716
 1019loPI    C215622   5.348   2.830   5.673  0.0427 -0.0367  0.1448
 1019loPI    C315623   5.518   2.784   5.315  0.1435  0.2067  0.1595
 1019loPI   PO415624   5.202   3.260   5.416  0.1811  0.0339  0.1589
 1019loPI   GL115625   5.276   3.499   5.708  0.3149  0.1332 -0.1529
 1019loPI   GL215626   5.409   3.300   5.864 -0.0705  0.1818  0.2710
 1019loPI   C1A15627   5.260   3.813   6.139 -0.0237  0.0268  0.1672
 1019loPI   C2A15628   5.201   3.915   6.607 -0.1192  0.1067  0.2968
 1019loPI   C3A15629   5.134   3.899   6.975  0.3138 -0.0600 -0.1452
 1019loPI   C4A15630   5.277   3.885   7.439 -0.3528 -0.0640  0.0609
 1019loPI   C5A15631   5.212   3.671   7.879  0.2353  0.0047  0.0501
 1019loPI   C6A15632   4.998   3.420   8.079  0.0266  0.0714  0.2463
 1019loPI   C1B15633   5.443   3.315   6.284 -0.0555 -0.1702  0.2031
 1019loPI   C2B15634   5.483   3.437   6.763 -0.1157 -0.0939 -0.0401
 1019loPI   C3B15635   5.512   3.621   7.070 -0.0750 -0.1343  0.1389
 1019loPI   C4B15636   5.682   4.034   7.093 -0.1708  0.2771  0.0670
 1020loPI    C115637   4.315  13.318   4.682 -0.1585 -0.0561  0.0296
 1020loPI    C215638   4.308  13.679   4.511 -0.1454  0.1010  0.3525
 1020loPI    C315639   4.567  13.403   4.384 -0.0945  0.2341  0.1625
 1020loPI   PO415640   4.270  13.265   4.814 -0.2626  0.0519  0.0369
 1020loPI   GL115641   4.308  13.149   5.192 -0.1297  0.3197  0.2859
 1020loPI   GL215642   4.602  13.381   5.299 -0.2441 -0.1784 -0.1203
 1020loPI   C1A15643   4.119  12.955   5.488 -0.1248 -0.3296  0.1044
 1020loPI   C2A15644   4.165  12.850   5.905  0.0322  0.0409 -0.0287
 1020loPI   C3A15645   4.135  12.635   6.343 -0.0133  0.2488  0.0637
 1020loPI   C4A15646   4.110  12.795   6.729  0.0802  0.0138 -0.0747
 1020loPI   C5A15647   3.631  12.848   6.948 -0.1710  0.2244 -0.0434
 1020loPI   C6A15648   3.487  12.972   7.345  0.0747 -0.3909 -0.2517
 1020loPI   C1B15649   4.494  13.222   5.685  0.0544 -0.1105  0.0518
 1020loPI   C2B15650   4.496  13.238   6.096  0.2831  0.3390  0.0984
 1020loPI   C3B15651   4.491  13.012   6.466 -0.0586 -0.0256  0.2546
 1020loPI   C4B15652   4.563  12.954   7.016 -0.0256  0.0188  0.0063
 1021loPI    C115653   1.371  16.696   4.771  0.1020 -0.1902 -0.2150
 1021loPI    C215654   1.764  16.739   4.711  0.0888  0.0526 -0.1386
 1021loPI    C315655   1.507  16.831   4.419  0.0746  0.2045 -0.0791
 1021loPI   PO415656   1.320  16.897   5.031  0.2315 -0.1650  0.1389
 1021loPI   GL115657   1.517  17.151   5.375 -0.2465 -0.3875  0.3032
 1021loPI   GL215658   1.222  17.106   5.471  0.1903 -0.1770 -0.1644
 1021loPI   C1A15659   1.681  16.757   5.584  0.4727  0.2881 -0.1433
 1021loPI   C2A15660   1.594  16.560   6.005  0.0911 -0.2972  0.0452
 1021loPI   C3A15661   1.596  16.330   6.400 -0.2455  0.3853  0.0536
 1021loPI   C4A15662   1.444  16.088   6.757  0.2799 -0.0046  0.1197
 1021loPI   C5A15663   1.582  15.731   6.974 -0.2715  0.1988  0.0930
 1021loPI   C6A15664   1.768  15.667   7.375  0.0733 -0.1024 -0.0337
 1021loPI   C1B15665   1.070  17.296   5.837  0.2398 -0.0979  0.0039
 1021loPI   C2B15666   0.807  17.451   6.277  0.1717 -0.0026 -0.0842
 1021loPI   C3B15667   1.157  17.566   6.473 -0.0178  0.1758  0.1913
 1021loPI   C4B15668   1.548  17.434   6.620  0.1045  0.1770  0.3830
 1022loPI    C115669   6.336  13.416   4.884  0.1868 -0.0278 -0.1526
 1022loPI    C215670   6.185  13.785   4.857 -0.1200 -0.1216  0.2077
 1022loPI    C315671   6.235  13.566   4.527 -0.2217  0.1287  0.0223
 1022loPI   PO415672   6.383  13.382   5.114 -0.1145  0.0298  0.3120
 1022loPI   GL115673   6.649  13.196   5.454  0.2136  0.1995  0.0299
 1022loPI   GL215674   6.456  12.944   5.463 -0.1230  0.0006 -0.1708
 1022loPI   C1A15675   6.582  13.200   5.899 -0.1350 -0.1491 -0.4892
 1022loPI   C2A15676   6.428  13.123   6.289  0.2033  0.2049  0.0707
 1022loPI   C3A15677   6.294  13.123   6.720 -0.4248 -0.1799  0.1307
 1022loPI   C4A15678   5.961  12.997   7.004  0.0972 -0.0234  0.0676
 1022loPI   C5A15679   5.852  12.735   7.282 -0.0278 -0.0518  0.1207
 1022loPI   C6A15680   5.739  12.797   7.711  0.0050  0.1443 -0.4752
 1022loPI   C1B15681   6.195  12.932   5.911 -0.0633 -0.1647  0.2062
 1022loPI   C2B15682   5.884  13.101   6.094  0.5377 -0.1275 -0.1547
 1022loPI   C3B15683   5.629  13.283   6.366 -0.0725 -0.1096  0.3047
 1022loPI   C4B15684   5.613  13.658   6.362  0.2388  0.0524 -0.2297
 1023loPI    C115685   9.398   9.878   4.734 -0.2409  0.0838 -0.1681
 1023loPI    C215686   9.182   9.583   4.572 -0.2529  0.0620 -0.1125
 1023loPI    C315687   9.526   9.695   4.401 -0.0451 -0.2548  0.0860
 1023loPI   PO415688   9.425   9.739   4.988 -0.2542 -0.2561  0.0665
 1023loPI   GL115689   9.278   9.822   5.405  0.2649  0.1067 -0.2875
 1023loPI   GL215690   9.130   9.538   5.553 -0.0590  0.3968 -0.1788
 1023loPI   C1A15691   9.198  10.012   5.772  0.0859 -0.0424  0.4989
 1023loPI   C2A15692   9.147   9.948   6.200  0.3402  0.2079 -0.0906
 1023loPI   C3A15693   9.076  10.059   6.628 -0.0684  0.2611  0.0459
 1023loPI   C4A15694   9.167   9.929   7.016 -0.0794  0.2729  0.1061
 1023loPI   C5A15695   9.341   9.892   7.379 -0.0008  0.0761  0.2735
 1023loPI   C6A15696   9.606   9.869   7.698  0.0336  0.2651  0.2736
 1023loPI   C1B15697   9.138   9.488   5.967  0.0414  0.1033 -0.1182
 1023loPI   C2B15698   9.237   9.402   6.348  0.2783  0.1143  0.2419
 1023loPI   C3B15699   9.145   9.460   6.728 -0.2647  0.1330  0.2657
 1023loPI   C4B15700   9.043   9.464   7.192 -0.0946 -0.0138  0.1759
 1024loPI    C115701   2.279  18.088   5.077  0.0324  0.3607  0.1187
 1024loPI    C215702   2.421  17.871   4.772 -0.0188  0.0967  0.2796
 1024loPI    C315703   2.379  18.266   4.733  0.0526  0.0768 -0.0261
 1024loPI   PO415704   2.115  17.903   5.217  0.3243 -0.1756 -0.2543
 1024loPI   GL115705   1.925  17.556   5.432  0.1352 -0.1306  0.0489
 1024loPI   GL215706   1.875  17.866   5.680 -0.2238 -0.3294 -0.2052
 1024loPI   C1A15707   1.944  17.199   5.727  0.0775 -0.1904 -0.0485
 1024loPI   C2A15708   1.940  16.968   6.141  0.0848 -0.2024  0.1513
 1024loPI   C3A15709   1.847  16.755   6.427 -0.2044 -0.0768 -0.1480
 1024loPI   C4A15710   1.940  16.634   6.836 -0.4429 -0.1810  0.2678
 1024loPI   C5A15711   2.196  16.537   7.116  0.0299 -0.0699 -0.1610
 1024loPI   C6A15712   2.526  16.511   7.526  0.1980 -0.0644 -0.1754
 1024loPI   C1B15713   2.172  17.907   6.026  0.2575 -0.0090  0.1439
 1024loPI   C2B15714   2.337  18.005   6.432  0.0615 -0.1029 -0.0035
 1024loPI   C3B15715   2.280  18.126   6.749 -0.0369 -0.0523  0.2004
 1024loPI   C4B15716   1.976  18.292   7.092 -0.1214 -0.3923 -0.1104
 1025loPI    C115717   2.301   7.502   4.827 -0.0042  0.0234 -0.0078
 1025loPI    C215718   2.061   7.257   4.621  0.1478 -0.0985 -0.0419
 1025loPI    C315719   2.326   7.486   4.428 -0.0763  0.1860 -0.0198
 1025loPI   PO415720   2.507   7.269   4.945  0.4560  0.0233  0.0988
 1025loPI   GL115721   2.709   7.502   5.227 -0.1285  0.2004 -0.2396
 1025loPI   GL215722   2.365   7.613   5.298 -0.1548  0.1427 -0.1042
 1025loPI   C1A15723   2.624   7.317   5.643  0.0874  0.0812  0.0935
 1025loPI   C2A15724   2.393   7.385   6.111  0.1330 -0.0585  0.1613
 1025loPI   C3A15725   2.431   7.456   6.535 -0.1087  0.2251  0.0284
 1025loPI   C4A15726   2.360   7.422   6.939  0.0503 -0.0781 -0.3472
 1025loPI   C5A15727   2.416   7.242   7.411  0.0071  0.1866  0.0725
 1025loPI   C6A15728   2.611   7.199   7.781 -0.1786 -0.1583 -0.1050
 1025loPI   C1B15729   2.354   7.887   5.721 -0.2173  0.1943  0.0940
 1025loPI   C2B15730   2.211   7.866   6.239 -0.1089  0.1354 -0.0741
 1025loPI   C3B15731   2.299   7.882   6.746  0.0973  0.3448  0.0038
 1025loPI   C4B15732   2.076   7.835   7.183 -0.1815  0.0254 -0.1346
 1026loPI    C115733  15.771  13.636   4.863  0.2344  0.0658 -0.0327
 1026loPI    C215734  15.931  13.288   4.748 -0.0108 -0.0366 -0.0703
 1026loPI    C315735  15.691  13.489   4.499  0.1197  0.1544 -0.0439
 1026loPI   PO415736  15.706  13.500   5.128 -0.0065  0.4085 -0.0124
 1026loPI   GL115737  15.876  13.607   5.521  0.0595  0.1481  0.0715
 1026loPI   GL215738  16.004  13.551   5.809  0.0768 -0.1203  0.1213
 1026loPI   C1A15739  15.492  13.638   5.875  0.3227  0.0202 -0.2301
 1026loPI   C2A15740  15.430  13.897   6.201 -0.1547  0.0751  0.0258
 1026loPI   C3A15741  15.513  13.807   6.645 -0.0158 -0.1242  0.1039
 1026loPI   C4A15742  15.496  14.084   7.020  0.1055  0.2627  0.0339
 1026loPI   C5A15743  15.645  14.146   7.537 -0.0637  0.0583 -0.0702
 1026loPI   C6A15744  15.840  14.461   7.705 -0.0053  0.1172 -0.1605
 1026loPI   C1B15745  15.869  13.530   6.257 -0.0705 -0.1166  0.2087
 1026loPI   C2B15746  15.967  13.580   6.635  0.0380 -0.0014 -0.1450
 1026loPI   C3B15747  15.910  13.615   7.070 -0.0149 -0.0381  0.0092
 1026loPI   C4B15748  15.523  13.687   7.320 -0.0586 -0.2079  0.3832
 1027loPI    C115749   0.241   5.955   5.015 -0.0256 -0.0515 -0.0086
 1027loPI    C215750   0.207   5.577   4.888  0.0719 -0.0557 -0.0227
 1027loPI    C315751   0.395   5.849   4.662 -0.2445  0.0686 -0.1427
 1027loPI   PO415752  -0.026   5.969   5.174  0.1285  0.0537  0.1252
 1027loPI   GL115753   0.093   6.161   5.470 -0.2152 -0.1107  0.2315
 1027loPI   GL215754   0.331   6.449   5.490  0.0023  0.2691  0.3524
 1027loPI   C1A15755   0.254   6.030   5.842 -0.2481 -0.3720  0.0967
 1027loPI   C2A15756   0.195   5.902   6.258 -0.0853 -0.2765 -0.2213
 1027loPI   C3A15757   0.292   5.717   6.679  0.0940  0.0223  0.2713
 1027loPI   C4A15758   0.344   5.737   7.178  0.0565 -0.3846 -0.0432
 1027loPI   C5A15759   0.512   5.978   7.545 -0.0661 -0.0426 -0.1851
 1027loPI   C6A15760   0.534   6.252   7.934 -0.0102 -0.0526 -0.1306
 1027loPI   C1B15761   0.459   6.497   5.902 -0.3859 -0.0663  0.0045
 1027loPI   C2B15762   0.413   6.432   6.231  0.0461 -0.0569 -0.1857
 1027loPI   C3B15763   0.354   6.371   6.687 -0.0382  0.0391 -0.1138
 1027loPI   C4B15764   0.015   6.504   6.954 -0.0666 -0.3383  0.1386
 1028loPI    C115765  15.762   2.898   4.862  0.0601  0.1281 -0.0197
 1028loPI    C215766  15.729   3.128   4.536 -0.2645 -0.0094 -0.0879
 1028loPI    C315767  15.405   3.040   4.752 -0.0429  0.1373  0.3166
 1028loPI   PO415768  15.980   2.993   5.067  0.0438  0.1557 -0.0206
 1028loPI   GL115769  16.287   3.171   5.328 -0.0540 -0.3107  0.1776
 1028loPI   GL215770  16.629   3.171   5.443 -0.1942 -0.0064  0.0188
 1028loPI   C1A15771  16.211   3.165   5.821  0.1905  0.0466  0.4580
 1028loPI   C2A15772  16.201   3.339   6.282 -0.0673  0.1514 -0.0439
 1028loPI   C3A15773  16.422   3.492   6.642 -0.0767 -0.0528 -0.0052
 1028loPI   C4A15774  16.562   3.718   6.958 -0.1810 -0.2297  0.1814
 1028loPI   C5A15775  16.466   3.936   7.237  0.0198 -0.1396  0.1674
 1028loPI   C6A15776  16.808   3.906   7.633 -0.1066  0.0254  0.0438
 1028loPI   C1B15777  16.649   3.414   5.895  0.0470  0.2974 -0.2132
 1028loPI   C2B15778  16.852   3.428   6.316  0.3494 -0.1306 -0.0661
 1028loPI   C3B15779  16.850   3.325   6.761  0.0597 -0.0472  0.1069
 1028loPI   C4B15780  16.919   3.460   7.154 -0.2310  0.0942  0.1372
 1029loPI    C115781   7.969  15.451   4.838  0.1613 -0.0417 -0.1234
 1029loPI    C215782   7.886  15.547   4.459  0.2374  0.0021 -0.1290
 1029loPI    C315783   8.057  15.196   4.542  0.0712 -0.0773 -0.1198
 1029loPI   PO415784   8.100  15.554   4.915 -0.1172 -0.0245  0.0991
 1029loPI   GL115785   8.171  15.602   5.298 -0.1324  0.0151  0.1996
 1029loPI   GL215786   8.504  15.496   5.328 -0.1409  0.1238  0.0537
 1029loPI   C1A15787   8.191  15.302   5.672 -0.1223  0.3561  0.1146
 1029loPI   C2A15788   8.313  15.215   6.167  0.0536 -0.1987 -0.1801
 1029loPI   C3A15789   8.300  15.275   6.587  0.1624  0.2170  0.4158
 1029loPI   C4A15790   8.210  15.258   7.001 -0.0025 -0.2692 -0.1657
 1029loPI   C5A15791   8.078  15.306   7.456  0.0667  0.0778 -0.2531
 1029loPI   C6A15792   8.060  15.370   7.921  0.1498 -0.2924  0.3886
 1029loPI   C1B15793   8.599  15.592   5.786  0.1721  0.2075  0.1776
 1029loPI   C2B15794   8.638  15.563   6.245  0.1215 -0.1138 -0.2363
 1029loPI   C3B15795   8.500  15.854   6.526 -0.2819  0.0326  0.0124
 1029loPI   C4B15796   8.410  15.696   6.909 -0.1732  0.0176  0.1328
 1030loPI    C115797  14.088  18.355   4.764 -0.2386 -0.1977 -0.0699
 1030loPI    C215798  13.776  18.391   4.516 -0.2330 -0.1608 -0.0718
 1030loPI    C315799  14.093  18.631   4.474 -0.3369  0.0161  0.1279
 1030loPI   PO415800  14.002  18.258   5.086 -0.1432  0.2135 -0.1264
 1030loPI   GL115801  13.804  18.372   5.346  0.0942  0.2412 -0.1374
 1030loPI   GL215802  13.887  18.722   5.349  0.0486 -0.0116  0.0211
 1030loPI   C1A15803  13.719  18.413   5.758  0.0338  0.2039  0.1651
 1030loPI   C2A15804  13.812  18.556   6.110  0.0983 -0.0910  0.0361
 1030loPI   C3A15805  13.892  18.471   6.465 -0.2788  0.3675  0.0357
 1030loPI   C4A15806  13.998  18.526   6.790  0.3239 -0.1356  0.1453
 1030loPI   C5A15807  13.864  18.324   7.174  0.0789  0.0294  0.0174
 1030loPI   C6A15808  13.767  18.149   7.599 -0.0984 -0.1978 -0.0986
 1030loPI   C1B15809  13.864  18.915   5.787  0.4742 -0.3765  0.1217
 1030loPI   C2B15810  13.979  19.030   6.197 -0.0831  0.1670  0.2200
 1030loPI   C3B15811  14.208  19.006   6.639  0.0149  0.2465 -0.1273
 1030loPI   C4B15812  14.512  19.040   6.934 -0.4285  0.1251 -0.2454
 1031loPI    C115813  13.821   5.642   5.359  0.1478 -0.0124  0.0090
 1031loPI    C215814  14.084   5.831   5.125  0.1705 -0.3054 -0.2069
 1031loPI    C315815  13.797   5.606   4.962 -0.2280  0.0208  0.0249
 1031loPI   PO415816  13.926   5.555   5.530  0.0082  0.0519 -0.1046
 1031loPI   GL115817  14.137   5.770   5.817  0.0402 -0.0372  0.1773
 1031loPI   GL215818  14.412   5.808   5.939  0.0012  0.0105 -0.0523
 1031loPI   C1A15819  14.023   5.973   6.142 -0.1113  0.1389 -0.0714
 1031loPI   C2A15820  14.056   6.172   6.549  0.0700 -0.1236  0.2352
 1031loPI   C3A15821  13.951   5.978   6.916  0.3665 -0.1311  0.0141
 1031loPI   C4A15822  14.101   6.134   7.267  0.2318 -0.1251 -0.1720
 1031loPI   C5A15823  14.238   6.340   7.669  0.0397 -0.0549  0.1355
 1031loPI   C6A15824  14.349   6.146   8.018 -0.0090 -0.1201  0.1183
 1031loPI   C1B15825  14.566   6.112   6.270 -0.0645 -0.1905  0.0697
 1031loPI   C2B15826  14.500   6.461   6.651 -0.1312  0.4658 -0.0406
 1031loPI   C3B15827  14.502   6.324   7.000  0.2546  0.0386 -0.0980
 1031loPI   C4B15828  14.607   6.128   7.358  0.3242 -0.1622 -0.2153
 1032loPI    C115829   2.665   6.760   4.908  0.1526  0.0572  0.1052
 1032loPI    C215830   2.576   6.438   4.689  0.3605  0.0041  0.0961
 1032loPI    C315831   2.472   6.802   4.560  0.1183 -0.0584  0.1101
 1032loPI   PO415832   2.437   6.720   5.116 -0.1086  0.1457 -0.1490
 1032loPI   GL115833   2.336   6.793   5.556  0.3361 -0.0634 -0.1360
 1032loPI   GL215834   2.310   6.429   5.497  0.1248 -0.1746 -0.1916
 1032loPI   C1A15835   2.214   6.844   5.824 -0.2614  0.2506 -0.0070
 1032loPI   C2A15836   2.177   6.904   6.331  0.0380 -0.0045  0.2791
 1032loPI   C3A15837   2.078   7.063   6.724 -0.2609  0.1594  0.1238
 1032loPI   C4A15838   2.000   7.095   7.156 -0.0373  0.0227  0.3429
 1032loPI   C5A15839   1.712   7.091   7.467 -0.0988  0.0602 -0.3564
 1032loPI   C6A15840   1.343   7.229   7.454 -0.1181  0.1031  0.2007
 1032loPI   C1B15841   2.438   6.373   5.944  0.4503  0.0720  0.1448
 1032loPI   C2B15842   2.479   6.523   6.300  0.0059 -0.0809  0.0259
 1032loPI   C3B15843   2.406   6.656   6.758  0.0162  0.1766  0.0336
 1032loPI   C4B15844   2.424   6.759   7.151  0.0696 -0.2406  0.0495
 1033loPI    C115845  10.469   0.876   5.092 -0.0439 -0.1636  0.0836
 1033loPI    C215846  10.656   0.692   4.789  0.0683  0.0111  0.0448
 1033loPI    C315847  10.286   0.837   4.739  0.0542 -0.0343  0.0174
 1033loPI   PO415848  10.486   0.727   5.341  0.0353  0.0747 -0.0365
 1033loPI   GL115849  10.594   0.753   5.713 -0.1209  0.1143  0.2783
 1033loPI   GL215850  10.470   1.009   5.988  0.1439 -0.3819 -0.0412
 1033loPI   C1A15851  10.892   0.671   6.043  0.1134  0.0536 -0.3432
 1033loPI   C2A15852  11.141   0.664   6.483  0.1474 -0.0175 -0.0294
 1033loPI   C3A15853  11.217   0.581   6.842 -0.1273 -0.2132  0.0482
 1033loPI   C4A15854  11.267   0.715   7.242  0.0947  0.1640  0.0813
 1033loPI   C5A15855  11.196   1.001   7.633  0.1679  0.0025  0.4426
 1033loPI   C6A15856  11.468   1.229   7.908 -0.1419 -0.0271 -0.0229
 1033loPI   C1B15857  10.664   0.914   6.425 -0.1395 -0.2514 -0.1183
 1033loPI   C2B15858  10.754   0.799   6.836  0.0310 -0.0533 -0.1149
 1033loPI   C3B15859  10.772   0.863   7.194 -0.1342  0.0347  0.3162
 1033loPI   C4B15860  10.796   0.644   7.604  0.2852 -0.1039  0.1095
 1034loPI    C115861  15.626  14.167   4.889  0.0776  0.2430 -0.0999
 1034loPI    C215862  15.287  14.218   4.683  0.0053  0.0357 -0.0343
 1034loPI    C315863  15.621  14.103   4.494 -0.0445 -0.0888 -0.0479
 1034loPI   PO415864  15.501  14.061   5.170  0.2266  0.3522  0.0668
 1034loPI   GL115865  15.705  14.122   5.556 -0.0981 -0.3541 -0.0258
 1034loPI   GL215866  15.553  14.381   5.622  0.0859  0.0759  0.0722
 1034loPI   C1A15867  15.856  13.993   5.938  0.1452  0.3035 -0.0152
 1034loPI   C2A15868  15.945  14.066   6.419  0.2495  0.0304 -0.1292
 1034loPI   C3A15869  15.939  14.072   6.771 -0.2596 -0.0360 -0.0358
 1034loPI   C4A15870  16.007  14.097   7.214 -0.0513 -0.2137 -0.0192
 1034loPI   C5A15871  16.078  13.958   7.745  0.3780 -0.1999 -0.0308
 1034loPI   C6A15872  15.882  13.839   8.111  0.0293  0.1308  0.1451
 1034loPI   C1B15873  15.435  14.436   6.069  0.0299 -0.1286  0.2106
 1034loPI   C2B15874  15.511  14.418   6.471 -0.1955  0.3093  0.0706
 1034loPI   C3B15875  15.653  14.495   6.845  0.2067 -0.1829  0.1283
 1034loPI   C4B15876  15.637  14.540   7.272  0.4172 -0.0285 -0.2242
 1035loPI    C115877   3.562   3.968   5.088  0.2112  0.2238 -0.0027
 1035loPI    C215878   3.540   3.832   4.712  0.0580  0.3287 -0.0328
 1035loPI    C315879   3.426   4.206   4.796 -0.1826  0.2137  0.1666
 1035loPI   PO415880   3.419   3.757   5.238  0.1770 -0.2295 -0.0711
 1035loPI   GL115881   3.435   3.663   5.718  0.0079  0.1952  0.2253
 1035loPI   GL215882   3.687   3.693   5.896  0.1420  0.0992  0.1382
 1035loPI   C1A15883   3.271   3.896   6.053 -0.4948 -0.1961 -0.0222
 1035loPI   C2A15884   3.127   3.781   6.512  0.0666 -0.1084 -0.2243
 1035loPI   C3A15885   2.955   4.065   6.872 -0.3801  0.0216 -0.1040
 1035loPI   C4A15886   2.977   4.368   7.141  0.1856  0.0350  0.0736
 1035loPI   C5A15887   3.131   4.457   7.556  0.5576  0.2731  0.0813
 1035loPI   C6A15888   3.175   4.165   7.896 -0.2518 -0.2774 -0.0795
 1035loPI   C1B15889   3.638   3.743   6.353  0.1217  0.2120 -0.0903
 1035loPI   C2B15890   3.509   3.629   6.786 -0.1905  0.0702  0.2693
 1035loPI   C3B15891   3.242   3.565   7.080 -0.1560 -0.1957 -0.1529
 1035loPI   C4B15892   3.300   3.373   7.487  0.0394  0.0387  0.1559
 1036loPI    C115893   8.713  12.943   4.666  0.0214  0.3141 -0.0440
 1036loPI    C215894   8.719  12.896   4.268  0.0155  0.1339 -0.0238
 1036loPI    C315895   8.878  13.224   4.434 -0.2858  0.3724 -0.1972
 1036loPI   PO415896   8.536  12.728   4.756 -0.0198 -0.1250  0.2387
 1036loPI   GL115897   8.566  12.532   5.211 -0.4275  0.2870 -0.1558
 1036loPI   GL215898   8.238  12.508   5.468  0.0961 -0.1805  0.0528
 1036loPI   C1A15899   8.706  12.251   5.551  0.1953  0.0507  0.0842
 1036loPI   C2A15900   8.705  12.039   6.008  0.1315  0.0037  0.0669
 1036loPI   C3A15901   8.539  11.949   6.379 -0.1090  0.2165 -0.0182
 1036loPI   C4A15902   8.777  11.772   6.745  0.0219 -0.0618 -0.1557
 1036loPI   C5A15903   8.782  11.882   7.167  0.1144 -0.0147  0.4679
 1036loPI   C6A15904   8.504  11.760   7.538  0.1001  0.1072  0.0351
 1036loPI   C1B15905   8.348  12.594   5.929 -0.0797  0.1291  0.0254
 1036loPI   C2B15906   8.461  12.412   6.358  0.1372 -0.0752  0.0791
 1036loPI   C3B15907   8.562  12.270   6.788 -0.1442  0.1692 -0.2263
 1036loPI   C4B15908   8.536  12.446   7.228 -0.0721  0.0285  0.1170
 1037loPI    C115909  18.542   6.219   4.841  0.0092  0.4399  0.0715
 1037loPI    C215910  18.487   6.168   4.449 -0.2713  0.2153  0.1369
 1037loPI    C315911  18.857   6.211   4.595 -0.1637  0.2795 -0.1476
 1037loPI   PO415912  18.393   6.482   4.875 -0.0447 -0.1470  0.0453
 1037loPI   GL115913  18.165   6.372   5.310  0.1816 -0.1286  0.0275
 1037loPI   GL215914  18.463   6.314   5.334  0.2800  0.0851  0.2201
 1037loPI   C1A15915  18.124   6.301   5.680  0.0356 -0.1000 -0.2286
 1037loPI   C2A15916  18.071   6.275   6.119 -0.1131  0.0360  0.1761
 1037loPI   C3A15917  17.810   6.137   6.253 -0.2017  0.4094 -0.0652
 1037loPI   C4A15918  17.888   6.181   6.644  0.1484  0.1047 -0.1112
 1037loPI   C5A15919  17.879   5.991   7.046 -0.0542 -0.0977  0.0386
 1037loPI   C6A15920  17.918   5.904   7.439 -0.2546  0.0459 -0.1603
 1037loPI   C1B15921  18.600   6.377   5.786  0.1655 -0.0785 -0.1618
 1037loPI   C2B15922  18.731   6.300   6.179  0.1111  0.1543 -0.0631
 1037loPI   C3B15923  18.733   6.223   6.569 -0.1588 -0.1077 -0.2663
 1037loPI   C4B15924  18.729   5.890   6.881  0.1945 -0.2866 -0.1860
 1038loPI    C115925   5.976   8.323   5.134 -0.1160  0.1458 -0.0418
 1038loPI    C215926   6.121   8.482   4.797  0.0423  0.2521  0.0749
 1038loPI    C315927   5.799   8.245   4.784  0.0104  0.3052 -0.1427
 1038loPI   PO415928   6.210   8.238   5.357  0.2786  0.2857  0.2231
 1038loPI   GL115929   6.128   8.039   5.707  0.1482  0.3038 -0.1415
 1038loPI   GL215930   5.760   8.251   5.588  0.1211 -0.1573 -0.1788
 1038loPI   C1A15931   6.351   8.276   6.162  0.0523  0.1333  0.0245
 1038loPI   C2A15932   6.445   8.328   6.605  0.2388 -0.4498  0.2628
 1038loPI   C3A15933   6.465   8.445   6.999 -0.0374 -0.0428 -0.3023
 1038loPI   C4A15934   6.706   8.259   7.293  0.0421  0.1916 -0.1970
 1038loPI   C5A15935   6.841   7.995   7.581 -0.0972  0.0922  0.1417
 1038loPI   C6A15936   7.223   7.887   7.664 -0.0337 -0.2752  0.0739
 1038loPI   C1B15937   5.889   8.455   5.988  0.0045  0.0197  0.1482
 1038loPI   C2B15938   6.013   8.551   6.439  0.1314  0.0111  0.1935
 1038loPI   C3B15939   6.080   8.682   6.895  0.3020 -0.1561  0.0203
 1038loPI   C4B15940   5.883   8.698   7.290 -0.0598  0.0843  0.0975
 1039loPI    C115941   1.706  15.602   4.971 -0.1815  0.0707  0.1794
 1039loPI    C215942   1.393  15.505   4.742 -0.0344 -0.0479  0.0267
 1039loPI    C315943   1.625  15.815   4.642 -0.1897  0.1341  0.2222
 1039loPI   PO415944   1.688  15.480   5.154  0.0589  0.0625  0.0888
 1039loPI   GL115945   1.304  15.344   5.389 -0.0818 -0.0367 -0.1834
 1039loPI   GL215946   1.066  15.382   5.422  0.1684 -0.3174 -0.1617
 1039loPI   C1A15947   1.562  15.271   5.816  0.0752  0.1672  0.1062
 1039loPI   C2A15948   1.650  15.289   6.204 -0.0898 -0.0608  0.3056
 1039loPI   C3A15949   1.830  15.267   6.568 -0.3366 -0.0150 -0.3137
 1039loPI   C4A15950   1.859  15.315   6.914  0.0917  0.3302 -0.0134
 1039loPI   C5A15951   1.848  15.139   7.279  0.2183 -0.1755  0.2322
 1039loPI   C6A15952   2.028  14.825   7.650  0.0825  0.1554  0.1005
 1039loPI   C1B15953   1.034  15.206   5.842 -0.3026  0.0406  0.4236
 1039loPI   C2B15954   1.196  15.467   6.185 -0.0495 -0.2661 -0.1224
 1039loPI   C3B15955   1.372  15.472   6.575 -0.0703 -0.1000 -0.0675
 1039loPI   C4B15956   1.289  15.357   6.976  0.1680  0.3820 -0.2531
 1040loPI    C115957   8.141   5.677   5.048 -0.3456 -0.0722  0.0658
 1040loPI    C215958   8.076   5.384   5.312 -0.1692 -0.1260  0.0506
 1040loPI    C315959   8.016   5.319   4.921 -0.2942 -0.0893  0.0633
 1040loPI   PO415960   8.190   5.870   5.303 -0.1202  0.2231 -0.0919
 1040loPI   GL115961   8.111   5.798   5.647  0.3909  0.3175  0.2103
 1040loPI   GL215962   8.312   5.567   5.742  0.1089 -0.1999  0.1177
 1040loPI   C1A15963   8.059   6.055   5.929  0.1144 -0.2885 -0.0001
 1040loPI   C2A15964   8.129   6.443   6.209  0.0045 -0.1459 -0.2363
 1040loPI   C3A15965   8.196   6.782   6.511  0.0453  0.0042  0.1793
 1040loPI   C4A15966   8.361   7.004   6.827 -0.2047 -0.1212 -0.1462
 1040loPI   C5A15967   8.270   6.936   7.164  0.0073  0.1159 -0.5639
 1040loPI   C6A15968   8.269   7.083   7.632  0.0486 -0.0817 -0.2523
 1040loPI   C1B15969   8.193   5.589   6.114 -0.1798 -0.1489  0.1699
 1040loPI   C2B15970   8.069   5.633   6.602 -0.1661 -0.3231  0.2777
 1040loPI   C3B15971   7.893   5.489   6.981  0.1255  0.2903  0.1334
 1040loPI   C4B15972   7.766   5.396   7.348  0.0885 -0.0480  0.0709
 1041loPI    C115973   4.357  12.303   4.241 -0.0557 -0.1861  0.0836
 1041loPI    C215974   4.536  11.976   4.095 -0.0849 -0.1015 -0.1467
 1041loPI    C315975   4.241  12.150   3.890  0.0936  0.2107 -0.1452
 1041loPI   PO415976   4.404  12.267   4.571  0.0326 -0.0413 -0.2243
 1041loPI   GL115977   4.337  12.147   5.013  0.1045  0.2073  0.0390
 1041loPI   GL215978   4.071  12.001   5.216 -0.1722 -0.5287  0.0233
 1041loPI   C1A15979   4.624  12.249   5.394  0.1864  0.1589  0.1164
 1041loPI   C2A15980   4.723  12.118   5.788 -0.1928  0.1809 -0.2587
 1041loPI   C3A15981   4.828  12.037   6.197  0.0296 -0.0420  0.2097
 1041loPI   C4A15982   5.083  11.816   6.546  0.0051  0.1261  0.0515
 1041loPI   C5A15983   4.901  11.631   6.985  0.1148 -0.0602 -0.0322
 1041loPI   C6A15984   4.542  11.410   7.124 -0.2842  0.1851  0.0365
 1041loPI   C1B15985   3.951  11.941   5.650 -0.1783 -0.4202 -0.0197
 1041loPI   C2B15986   4.012  11.707   6.042 -0.1911 -0.0532 -0.0646
 1041loPI   C3B15987   3.871  11.660   6.461 -0.0393 -0.1928 -0.1979
 1041loPI   C4B15988   4.185  11.736   6.748  0.0475  0.1350 -0.1615
 1042loPI    C115989  12.331  16.643   5.249  0.1589  0.2725  0.1655
 1042loPI    C215990  12.655  16.609   5.017  0.1908  0.0247  0.2429
 1042loPI    C315991  12.568  16.322   5.280 -0.1963 -0.0033  0.0905
 1042loPI   PO415992  12.301  16.862   5.324  0.2278  0.0862  0.0130
 1042loPI   GL115993  12.575  17.003   5.615 -0.0357 -0.1930  0.0074
 1042loPI   GL215994  12.797  16.765   5.554 -0.1077  0.2218 -0.1133
 1042loPI   C1A15995  12.361  17.103   5.986 -0.2562 -0.0671  0.2032
 1042loPI   C2A15996  12.350  17.261   6.371 -0.3020  0.0347 -0.1559
 1042loPI   C3A15997  12.314  17.312   6.803  0.0740 -0.1875  0.4101
 1042loPI   C4A15998  12.265  17.321   7.260  0.3884  0.2121 -0.0249
 1042loPI   C5A15999  12.558  17.234   7.531 -0.2370  0.1701  0.0584
 1042loPI   C6A16000  12.638  16.963   7.854  0.4913  0.0109  0.0104
 1042loPI   C1B16001  12.777  16.602   5.900 -0.0280 -0.2298 -0.1366
 1042loPI   C2B16002  12.532  16.767   6.345 -0.2464  0.2264  0.1382
 1042loPI   C3B16003  12.548  16.893   6.687 -0.2590 -0.1048  0.1135
 1042loPI   C4B16004  12.575  16.976   7.078  0.1880  0.0203 -0.1331
 1043loPI    C116005   8.104   9.264   5.023 -0.1058  0.0059 -0.0208
 1043loPI    C216006   7.919   9.190   4.676  0.0334 -0.1292 -0.0674
 1043loPI    C316007   8.286   9.045   4.742  0.1607  0.2092 -0.0111
 1043loPI   PO416008   7.963   9.218   5.204  0.0312  0.1713  0.2353
 1043loPI   GL116009   7.735   9.321   5.517 -0.0243  0.0126 -0.2295
 1043loPI   GL216010   7.794   9.093   5.730  0.4230 -0.1138 -0.0191
 1043loPI   C1A16011   7.815   9.498   5.935  0.2553 -0.2216  0.1481
 1043loPI   C2A16012   7.814   9.701   6.413  0.0537  0.0837 -0.1599
 1043loPI   C3A16013   7.821   9.777   6.838  0.4556  0.0964 -0.0743
 1043loPI   C4A16014   7.688   9.830   7.225  0.3010 -0.1788 -0.0205
 1043loPI   C5A16015   7.518   9.988   7.594  0.0436 -0.1906  0.0433
 1043loPI   C6A16016   7.587  10.356   7.863  0.0446 -0.1140 -0.0796
 1043loPI   C1B16017   7.888   9.055   6.159 -0.3058  0.2714  0.1551
 1043loPI   C2B16018   7.835   9.168   6.590 -0.1127 -0.3551  0.1479
 1043loPI   C3B16019   7.867   8.992   7.000 -0.1114  0.0321  0.2322
 1043loPI   C4B16020   8.007   9.053   7.513 -0.1829 -0.1636 -0.0585
 1044loPI    C116021   7.059   8.571   4.880  0.0146  0.0919  0.0913
 1044loPI    C216022   6.985   8.911   4.684  0.2554  0.1918  0.1712
 1044loPI    C316023   7.110   8.589   4.484 -0.3025  0.0436  0.0455
 1044loPI   PO416024   7.011   8.629   5.102 -0.3224  0.1067  0.3609
 1044loPI   GL116025   6.952   8.693   5.533 -0.1545 -0.1522  0.1731
 1044loPI   GL216026   6.821   8.977   5.508  0.3008 -0.2837 -0.0500
 1044loPI   C1A16027   6.899   8.462   5.924  0.1594  0.1202  0.2844
 1044loPI   C2A16028   6.918   8.429   6.365  0.0320 -0.0608 -0.0750
 1044loPI   C3A16029   6.919   8.631   6.715  0.3744  0.0081 -0.2019
 1044loPI   C4A16030   6.906   8.730   7.199 -0.0189  0.1086  0.1973
 1044loPI   C5A16031   6.706   9.075   7.392  0.1870 -0.0345 -0.0602
 1044loPI   C6A16032   6.478   9.464   7.461 -0.2409  0.0079 -0.1948
 1044loPI   C1B16033   6.805   8.977   5.982 -0.2729 -0.0234  0.0358
 1044loPI   C2B16034   7.055   8.902   6.330  0.2272 -0.1335  0.2787
 1044loPI   C3B16035   7.401   8.812   6.566  0.1999 -0.5134 -0.0091
 1044loPI   C4B16036   7.409   8.850   6.982  0.0883  0.0297  0.0875
 1045loPI    C116037   3.963   1.218   5.139 -0.0334 -0.0006 -0.2306
 1045loPI    C216038   3.615   1.051   5.245 -0.0151  0.0598 -0.0717
 1045loPI    C316039   3.795   0.941   4.905 -0.0646 -0.1539 -0.0301
 1045loPI   PO416040   4.011   1.230   5.467 -0.0086  0.1647 -0.0066
 1045loPI   GL116041   4.073   0.967   5.871  0.1934  0.0059  0.0723
 1045loPI   GL216042   3.964   1.309   5.982 -0.0198  0.4310  0.2313
 1045loPI   C1A16043   3.708   0.956   6.182 -0.2146  0.0314  0.0644
 1045loPI   C2A16044   3.477   1.024   6.615 -0.0741 -0.1050 -0.2886
 1045loPI   C3A16045   3.591   0.865   7.088 -0.0538 -0.0699  0.1224
 1045loPI   C4A16046   3.286   0.752   7.387  0.1748  0.1569  0.0244
 1045loPI   C5A16047   2.819   0.715   7.502 -0.2575 -0.1411  0.0908
 1045loPI   C6A16048   2.518   0.960   7.580  0.0515  0.0535 -0.0177
 1045loPI   C1B16049   3.835   1.413   6.438 -0.1083  0.0883 -0.3619
 1045loPI   C2B16050   3.938   1.144   6.837  0.2428 -0.0012 -0.1167
 1045loPI   C3B16051   4.113   1.136   7.206 -0.1387  0.0279 -0.2488
 1045loPI   C4B16052   4.533   0.861   7.323 -0.0836  0.2039 -0.0109
 1046loPI    C116053   8.442   1.540   5.627 -0.0685 -0.2096  0.1412
 1046loPI    C216054   8.345   1.410   5.261  0.1197 -0.0009  0.0148
 1046loPI    C316055   8.122   1.305   5.576  0.1264 -0.4255 -0.1162
 1046loPI   PO416056   8.591   1.501   5.682  0.0408 -0.0465 -0.2618
 1046loPI   GL116057   8.887   1.361   5.968  0.1438  0.3988 -0.1946
 1046loPI   GL216058   9.106   1.205   5.793  0.1253  0.1167 -0.2348
 1046loPI   C1A16059   8.602   1.479   6.348  0.1199 -0.0020 -0.1160
 1046loPI   C2A16060   8.585   1.233   6.788 -0.1340 -0.1715 -0.1387
 1046loPI   C3A16061   8.728   1.246   7.226 -0.0884  0.2686  0.2502
 1046loPI   C4A16062   8.874   1.098   7.606 -0.1837 -0.1399  0.0830
 1046loPI   C5A16063   9.066   0.671   7.707  0.1180 -0.4263 -0.1969
 1046loPI   C6A16064   9.320   0.244   7.617  0.3017 -0.3461 -0.1983
 1046loPI   C1B16065   8.884   0.867   6.103 -0.3445 -0.1306  0.0675
 1046loPI   C2B16066   8.786   0.950   6.504 -0.5028  0.1910  0.1369
 1046loPI   C3B16067   9.051   0.952   6.848  0.3140 -0.2577  0.2135
 1046loPI   C4B16068   9.201   0.800   7.258 -0.8105  0.0229 -0.2024
 1047loPI    C116069  10.461   3.281   5.216 -0.2228  0.0302  0.1397
 1047loPI    C216070  10.416   3.471   4.867  0.2898 -0.0520  0.0210
 1047loPI    C316071  10.258   3.107   4.919  0.0345  0.0469 -0.0498
 1047loPI   PO416072  10.439   3.543   5.400 -0.1726 -0.1964  0.3081
 1047loPI   GL116073  10.490   3.613   5.898 -0.0136  0.0010  0.2712
 1047loPI   GL216074  10.248   3.750   5.898 -0.0243  0.1506  0.0300
 1047loPI   C1A16075  10.635   3.384   6.243 -0.1450  0.1058  0.0935
 1047loPI   C2A16076  10.766   3.492   6.638 -0.2336 -0.0349 -0.0675
 1047loPI   C3A16077  10.684   3.841   6.993 -0.0534  0.1779  0.0865
 1047loPI   C4A16078  10.811   3.988   7.366 -0.1886 -0.1675 -0.3928
 1047loPI   C5A16079  10.990   4.350   7.630 -0.0436  0.2736  0.0869
 1047loPI   C6A16080  10.935   4.711   7.663  0.2710  0.0564 -0.0081
 1047loPI   C1B16081  10.309   3.770   6.338 -0.0078 -0.0910  0.2045
 1047loPI   C2B16082  10.263   3.835   6.793 -0.1298 -0.3304  0.1113
 1047loPI   C3B16083  10.201   4.008   7.224  0.0020  0.0577  0.0019
 1047loPI   C4B16084  10.137   4.127   7.688  0.0198 -0.1377 -0.0722
 1048loPI    C116085  13.198   5.685   5.450  0.0629 -0.0911 -0.0150
 1048loPI    C216086  12.919   5.591   5.179  0.0507 -0.1439  0.0159
 1048loPI    C316087  13.299   5.482   5.121  0.0543 -0.1248  0.0032
 1048loPI   PO416088  13.096   5.595   5.673  0.1649  0.1945 -0.1282
 1048loPI   GL116089  13.231   5.574   6.117  0.1259  0.2777 -0.0754
 1048loPI   GL216090  13.106   5.257   6.089  0.0997  0.0377  0.0507
 1048loPI   C1A16091  13.211   5.500   6.518  0.2215  0.1047  0.1272
 1048loPI   C2A16092  13.251   5.232   6.968  0.0175 -0.0915  0.1135
 1048loPI   C3A16093  13.620   5.156   7.246 -0.1136 -0.1851 -0.1700
 1048loPI   C4A16094  13.762   5.239   7.667 -0.0493 -0.1387 -0.0809
 1048loPI   C5A16095  13.804   5.036   8.041  0.0740 -0.0475  0.0411
 1048loPI   C6A16096  13.529   5.130   8.373 -0.2937 -0.1656 -0.3682
 1048loPI   C1B16097  13.465   5.095   6.470  0.3303 -0.2275  0.1492
 1048loPI   C2B16098  13.563   4.845   6.833  0.3288  0.3482  0.1921
 1048loPI   C3B16099  13.635   4.600   7.189 -0.2536 -0.2201  0.0531
 1048loPI   C4B16100  13.609   4.708   7.639  0.0057  0.5515  0.1448
 1049loPI    C116101   9.019   1.701   5.582  0.0220  0.2194  0.0058
 1049loPI    C216102   9.115   1.895   5.246 -0.2029 -0.0128 -0.1970
 1049loPI    C316103   8.788   1.664   5.257 -0.1774 -0.0368  0.1719
 1049loPI   PO416104   9.151   1.800   5.728  0.1353 -0.0015  0.0014
 1049loPI   GL116105   9.224   1.861   6.090  0.0501  0.1618  0.1449
 1049loPI   GL216106   8.869   1.999   6.082 -0.0279  0.0033 -0.1171
 1049loPI   C1A16107   9.132   1.598   6.368  0.0200  0.0347 -0.1227
 1049loPI   C2A16108   9.035   1.492   6.739  0.1549 -0.2053  0.0135
 1049loPI   C3A16109   9.151   1.792   7.167 -0.0167  0.4606 -0.3678
 1049loPI   C4A16110   8.927   2.038   7.465 -0.0581 -0.0891 -0.1125
 1049loPI   C5A16111   8.462   2.105   7.583 -0.0066  0.2008 -0.2838
 1049loPI   C6A16112   7.985   2.106   7.634  0.2506  0.1144  0.3434
 1049loPI   C1B16113   8.743   1.931   6.583  0.0237  0.0450  0.2860
 1049loPI   C2B16114   8.609   1.694   6.911 -0.0124  0.1786 -0.1050
 1049loPI   C3B16115   8.627   1.669   7.424  0.0066 -0.0683 -0.0794
 1049loPI   C4B16116   8.759   1.544   7.760 -0.4145  0.0075 -0.1114
 1050loPI    C116117   4.388   3.957   5.126  0.0300 -0.0481  0.0838
 1050loPI    C216118   4.034   3.892   4.952 -0.0030  0.1739  0.0653
 1050loPI    C316119   4.361   3.941   4.727  0.0786 -0.2402  0.0875
 1050loPI   PO416120   4.472   3.753   5.269  0.0643 -0.2825  0.0166
 1050loPI   GL116121   4.572   3.817   5.833  0.2501 -0.3091  0.1745
 1050loPI   GL216122   4.834   3.953   5.922  0.0015  0.0278 -0.2505
 1050loPI   C1A16123   4.300   3.887   6.190  0.0259  0.0744  0.2617
 1050loPI   C2A16124   4.106   3.684   6.572 -0.3371 -0.0116  0.3003
 1050loPI   C3A16125   4.293   3.723   7.002 -0.0086 -0.3612  0.0811
 1050loPI   C4A16126   4.301   3.723   7.419  0.2529 -0.1885 -0.0721
 1050loPI   C5A16127   4.238   3.763   7.848 -0.1520  0.0135 -0.0043
 1050loPI   C6A16128   4.038   3.434   8.104  0.0049 -0.0726  0.1533
 1050loPI   C1B16129   4.749   4.197   6.279  0.0490 -0.1367 -0.2811
 1050loPI   C2B16130   4.447   4.067   6.628  0.2161 -0.0175 -0.0643
 1050loPI   C3B16131   4.661   4.037   6.987 -0.1132  0.1795  0.1884
 1050loPI   C4B16132   5.002   4.283   7.265 -0.0704  0.0353 -0.2701
 1051loPI    C116133   0.898  16.066   4.922 -0.0886 -0.1245 -0.1816
 1051loPI    C216134   1.006  15.919   4.566  0.0359  0.0724 -0.2264
 1051loPI    C316135   1.263  16.142   4.777 -0.1131  0.1376 -0.1118
 1051loPI   PO416136   0.873  15.677   4.976  0.0648  0.2153 -0.2408
 1051loPI   GL116137   0.517  15.426   5.121  0.1121  0.2536  0.2441
 1051loPI   GL216138   0.708  15.110   5.284  0.1339  0.0140 -0.0472
 1051loPI   C1A16139   0.445  15.708   5.509  0.3002 -0.0005  0.2184
 1051loPI   C2A16140   0.368  15.735   5.965  0.0838 -0.0538 -0.0692
 1051loPI   C3A16141   0.594  15.930   6.252 -0.1724 -0.1005  0.2403
 1051loPI   C4A16142   0.653  16.092   6.745 -0.1703 -0.0884 -0.1270
 1051loPI   C5A16143   0.629  16.104   7.235 -0.2442 -0.0776  0.0245
 1051loPI   C6A16144   0.689  15.794   7.574 -0.2034  0.1354  0.0601
 1051loPI   C1B16145   0.587  15.276   5.715 -0.3766  0.2431 -0.1583
 1051loPI   C2B16146   0.688  15.414   6.130 -0.0592  0.1557  0.0449
 1051loPI   C3B16147   0.563  15.511   6.626  0.0900 -0.0501  0.1739
 1051loPI   C4B16148   0.646  15.628   7.001  0.0769  0.1507  0.1098
 1052loPI    C116149   9.452  10.769   4.824 -0.1146 -0.0724  0.0985
 1052loPI    C216150   9.438  10.397   4.676  0.0537 -0.0952  0.1380
 1052loPI    C316151   9.204  10.683   4.522  0.1344 -0.1490 -0.0874
 1052loPI   PO416152   9.570  10.708   5.110 -0.0876 -0.1221 -0.1438
 1052loPI   GL116153   9.622  10.670   5.527  0.2884 -0.2615 -0.2601
 1052loPI   GL216154   9.869  10.726   5.673  0.3041  0.1375 -0.0533
 1052loPI   C1A16155   9.389  10.795   5.970 -0.2525  0.0509 -0.0679
 1052loPI   C2A16156   9.480  10.922   6.359 -0.2467 -0.2697  0.1494
 1052loPI   C3A16157   9.535  10.729   6.793  0.0784  0.0067  0.1107
 1052loPI   C4A16158   9.447  10.749   7.208 -0.0844  0.0478 -0.0976
 1052loPI   C5A16159   9.209  10.880   7.669 -0.0423 -0.1244 -0.0953
 1052loPI   C6A16160   9.406  11.150   7.970 -0.1440  0.0445 -0.0909
 1052loPI   C1B16161   9.931  10.669   6.103  0.2232  0.0841  0.0525
 1052loPI   C2B16162  10.087  10.589   6.566 -0.0804  0.1028 -0.1700
 1052loPI   C3B16163   9.982  10.567   6.914 -0.3365 -0.1300  0.1995
 1052loPI   C4B16164   9.997  10.745   7.183  0.0493  0.1554 -0.1805
 1053loPI    C116165   5.898   9.855   4.660 -0.2719 -0.0715  0.0334
 1053loPI    C216166   5.927   9.545   4.409 -0.2378 -0.0241 -0.0215
 1053loPI    C316167   6.227   9.809   4.436 -0.2752  0.0151  0.0106
 1053loPI   PO416168   5.913   9.832   4.943 -0.0620 -0.2015 -0.1249
 1053loPI   GL116169   6.144   9.685   5.277 -0.0840 -0.0156 -0.0919
 1053loPI   GL216170   5.954   9.496   5.398  0.1573 -0.1052  0.0308
 1053loPI   C1A16171   6.399   9.694   5.556  0.1299  0.0032 -0.1317
 1053loPI   C2A16172   6.260   9.393   5.969 -0.1961  0.0577  0.1207
 1053loPI   C3A16173   6.162   9.416   6.333  0.0241  0.0424 -0.0574
 1053loPI   C4A16174   6.089   9.611   6.643  0.1701 -0.0845  0.0995
 1053loPI   C5A16175   6.269  10.020   6.757  0.2860  0.0850 -0.2331
 1053loPI   C6A16176   6.239  10.174   7.179  0.0835 -0.0470  0.1297
 1053loPI   C1B16177   5.897   9.714   5.766  0.0312 -0.0638 -0.0711
 1053loPI   C2B16178   5.827   9.805   6.253 -0.0435 -0.4775  0.1019
 1053loPI   C3B16179   5.809   9.978   6.534 -0.0647  0.2160 -0.0065
 1053loPI   C4B16180   5.779  10.014   6.961 -0.1943 -0.1363  0.0091
 1054loPI    C116181   2.363  11.656   4.568  0.0816 -0.0975  0.1137
 1054loPI    C216182   2.383  11.934   4.855  0.2823  0.0398 -0.0307
 1054loPI    C316183   2.520  12.015   4.488  0.0279 -0.1343 -0.1672
 1054loPI   PO416184   2.196  11.567   4.572 -0.3277  0.1404 -0.3299
 1054loPI   GL116185   1.943  11.478   4.948 -0.0987  0.0694 -0.0154
 1054loPI   GL216186   2.183  11.343   5.097  0.0750 -0.2791  0.1294
 1054loPI   C1A16187   2.162  11.774   5.240  0.0146  0.1136 -0.1983
 1054loPI   C2A16188   2.251  11.842   5.712 -0.1337  0.2084  0.0534
 1054loPI   C3A16189   1.974  11.996   5.987 -0.0115 -0.0867 -0.1931
 1054loPI   C4A16190   1.822  11.780   6.340  0.0590 -0.1812  0.0057
 1054loPI   C5A16191   1.756  11.697   6.704  0.2781 -0.0447  0.0422
 1054loPI   C6A16192   1.592  11.434   7.047 -0.0004 -0.0525 -0.0343
 1054loPI   C1B16193   2.057  11.407   5.524 -0.0081 -0.0324 -0.2028
 1054loPI   C2B16194   1.873  11.319   5.822  0.2164  0.0991 -0.3234
 1054loPI   C3B16195   1.555  11.592   5.946 -0.0035 -0.0467  0.1589
 1054loPI   C4B16196   1.274  11.700   6.365 -0.1120  0.2657  0.2483
 1055loPI    C116197  18.067   2.408   4.719  0.1070  0.0893 -0.0048
 1055loPI    C216198  18.254   2.687   4.502  0.0762  0.2206  0.1359
 1055loPI    C316199  18.070   2.382   4.320 -0.0273  0.3788 -0.0273
 1055loPI   PO416200  17.982   2.538   4.895 -0.2331 -0.1606 -0.0209
 1055loPI   GL116201  17.737   2.648   5.025  0.0765 -0.2256  0.1163
 1055loPI   GL216202  17.402   2.566   5.198  0.2467 -0.1024 -0.1035
 1055loPI   C1A16203  17.814   2.600   5.472  0.1374 -0.1654  0.0965
 1055loPI   C2A16204  18.111   2.607   5.865 -0.1629  0.2610 -0.0646
 1055loPI   C3A16205  18.004   2.600   6.333  0.2046  0.0244  0.0278
 1055loPI   C4A16206  18.044   2.626   6.785  0.1895 -0.1704 -0.0062
 1055loPI   C5A16207  17.950   2.285   7.033 -0.0582  0.1470 -0.0752
 1055loPI   C6A16208  17.817   1.919   7.374 -0.0117 -0.0468  0.0243
 1055loPI   C1B16209  17.443   2.370   5.664 -0.2574 -0.1273  0.1015
 1055loPI   C2B16210  17.589   2.080   5.948  0.2419  0.2282 -0.1642
 1055loPI   C3B16211  17.728   2.177   6.266 -0.0167 -0.0476  0.4806
 1055loPI   C4B16212  18.004   2.151   6.540  0.2205  0.0020  0.2811
 1056loPI    C116213   2.918   5.224   5.215 -0.0298 -0.1993  0.1916
 1056loPI    C216214   2.703   5.045   4.929  0.2046  0.0687 -0.1633
 1056loPI    C316215   3.090   4.955   4.974  0.1582 -0.0070  0.1073
 1056loPI   PO416216   2.793   5.138   5.473 -0.2296  0.0560  0.2024
 1056loPI   GL116217   2.773   5.172   5.882  0.2268 -0.0439 -0.0224
 1056loPI   GL216218   2.721   5.568   5.757 -0.0869  0.2316  0.0733
 1056loPI   C1A16219   2.762   5.263   6.346 -0.1778  0.1342  0.0869
 1056loPI   C2A16220   2.607   5.667   6.551  0.2078 -0.0812 -0.0885
 1056loPI   C3A16221   2.400   5.706   7.049 -0.1559  0.1859 -0.0821
 1056loPI   C4A16222   2.246   5.711   7.358  0.2304  0.2088  0.2376
 1056loPI   C5A16223   2.389   5.698   7.821 -0.1840 -0.0460 -0.2293
 1056loPI   C6A16224   2.629   5.366   7.966  0.1957 -0.1854  0.0503
 1056loPI   C1B16225   2.839   5.772   6.135 -0.0777 -0.1911  0.1127
 1056loPI   C2B16226   3.088   6.003   6.496 -0.3623 -0.3206  0.0331
 1056loPI   C3B16227   3.328   5.915   6.814  0.0274 -0.0951 -0.0036
 1056loPI   C4B16228   3.479   5.589   6.963  0.1043  0.0390 -0.0814
 1057loPI    C116229   0.390   9.164   4.557  0.1050  0.0790  0.0157
 1057loPI    C216230   0.107   9.413   4.692 -0.0401 -0.1825  0.2019
 1057loPI    C316231   0.103   9.294   4.310  0.1377  0.2422  0.0621
 1057loPI   PO416232   0.420   8.957   4.757 -0.0506  0.0567  0.1925
 1057loPI   GL116233   0.489   9.075   5.144  0.0845 -0.1824  0.2223
 1057loPI   GL216234   0.186   9.165   5.167 -0.1462 -0.0550  0.2476
 1057loPI   C1A16235   0.393   9.375   5.533  0.1591 -0.1067 -0.2207
 1057loPI   C2A16236   0.396   9.410   5.998 -0.1859 -0.2077 -0.1194
 1057loPI   C3A16237   0.520   9.469   6.371 -0.1739  0.0485 -0.5492
 1057loPI   C4A16238   0.639   9.418   6.730  0.0617  0.1828 -0.1048
 1057loPI   C5A16239   0.535   9.646   6.974  0.1319 -0.0816 -0.0229
 1057loPI   C6A16240   0.267   9.430   7.252 -0.0012 -0.3351  0.1895
 1057loPI   C1B16241  -0.104   9.299   5.557 -0.0513  0.1010 -0.1419
 1057loPI   C2B16242  -0.057   9.592   5.980  0.4154 -0.1223 -0.2657
 1057loPI   C3B16243   0.061   9.653   6.451 -0.4147 -0.0534  0.2264
 1057loPI   C4B16244   0.412   9.917   6.613  0.2448  0.1317 -0.1070
 1058loPI    C116245  16.141  12.561   5.143 -0.0838 -0.0941 -0.1403
 1058loPI    C216246  16.428  12.813   5.262 -0.1529 -0.1643  0.1822
 1058loPI    C316247  16.255  12.862   4.905 -0.0318  0.1286  0.1614
 1058loPI   PO416248  15.986  12.581   5.288  0.1717  0.0495 -0.0703
 1058loPI   GL116249  15.891  12.755   5.672  0.0800  0.2623 -0.1999
 1058loPI   GL216250  16.179  12.623   5.740  0.1132 -0.3077  0.0509
 1058loPI   C1A16251  15.831  12.634   6.142  0.3442  0.0199  0.0042
 1058loPI   C2A16252  15.944  12.505   6.510  0.2398 -0.0083 -0.2062
 1058loPI   C3A16253  15.926  12.466   6.929  0.0803  0.1053 -0.1483
 1058loPI   C4A16254  15.770  12.377   7.299  0.0010 -0.0454  0.0406
 1058loPI   C5A16255  15.449  12.222   7.494  0.2241  0.2493  0.0897
 1058loPI   C6A16256  15.054  12.141   7.603  0.0140 -0.3305  0.1025
 1058loPI   C1B16257  16.562  12.686   6.027 -0.0951 -0.2625  0.3837
 1058loPI   C2B16258  16.643  12.757   6.415  0.0409  0.1133  0.0406
 1058loPI   C3B16259  17.011  12.718   6.702  0.1371 -0.2093  0.1631
 1058loPI   C4B16260  17.135  12.651   7.135  0.0444 -0.1728  0.1239
 1059loPI    C116261  14.127   2.656   4.996  0.0417 -0.1992  0.1697
 1059loPI    C216262  13.883   2.431   4.773 -0.0593  0.0792 -0.0066
 1059loPI    C316263  14.082   2.735   4.607  0.0665  0.1292  0.2306
 1059loPI   PO416264  14.054   2.706   5.268  0.2495  0.2592  0.1856
 1059loPI   GL116265  13.989   2.628   5.702  0.2555 -0.2144  0.0851
 1059loPI   GL216266  14.277   2.422   5.564 -0.1267  0.3426 -0.0309
 1059loPI   C1A16267  13.788   2.491   6.081  0.1916  0.0482 -0.2274
 1059loPI   C2A16268  13.923   2.655   6.508 -0.0445 -0.2452 -0.1167
 1059loPI   C3A16269  14.178   2.660   6.918 -0.0428  0.2189 -0.0379
 1059loPI   C4A16270  14.396   2.975   7.061 -0.0191  0.0069  0.0606
 1059loPI   C5A16271  14.756   2.908   7.220  0.2244 -0.2459  0.2403
 1059loPI   C6A16272  15.207   2.815   7.126  0.1743 -0.1236 -0.0014
 1059loPI   C1B16273  14.317   2.474   6.013 -0.3731 -0.0605  0.3553
 1059loPI   C2B16274  14.442   2.458   6.475 -0.1394  0.1873  0.0217
 1059loPI   C3B16275  14.707   2.658   6.753  0.1691  0.2394 -0.1929
 1059loPI   C4B16276  15.089   2.868   6.584 -0.0744  0.0777 -0.0322
 1060loPI    C116277  13.173  10.766   4.851  0.0425 -0.2115 -0.1724
 1060loPI    C216278  12.910  10.853   4.563 -0.0436 -0.0305 -0.0411
 1060loPI    C316279  13.276  11.014   4.555 -0.0011 -0.1298 -0.1195
 1060loPI   PO416280  13.008  10.710   5.079  0.2479  0.0020  0.6027
 1060loPI   GL116281  13.106  10.602   5.505  0.2379  0.1214 -0.3090
 1060loPI   GL216282  13.081  10.301   5.451  0.0568  0.4147  0.0645
 1060loPI   C1A16283  12.938  10.764   5.821 -0.1045 -0.2550 -0.0647
 1060loPI   C2A16284  12.704  10.595   6.154 -0.3618 -0.3436 -0.1407
 1060loPI   C3A16285  12.740  10.340   6.570 -0.2635  0.1054  0.0906
 1060loPI   C4A16286  12.678  10.237   7.042 -0.4529  0.3510  0.1002
 1060loPI   C5A16287  12.247  10.057   7.337 -0.1752 -0.0187  0.0075
 1060loPI   C6A16288  11.807   9.974   7.297  0.1153  0.2439  0.1079
 1060loPI   C1B16289  13.181  10.022   5.863 -0.0427  0.0751 -0.3394
 1060loPI   C2B16290  13.313   9.740   6.160 -0.0958  0.2457  0.2487
 1060loPI   C3B16291  13.596   9.824   6.482  0.2374 -0.0249 -0.0395
 1060loPI   C4B16292  13.428   9.952   6.824 -0.0840  0.4036 -0.0828
 1061loPI    C116293   9.482   7.550   4.988  0.1971  0.2227 -0.0731
 1061loPI    C216294   9.633   7.347   5.298  0.0275  0.0601 -0.0950
 1061loPI    C316295   9.833   7.360   4.951  0.1533  0.1312 -0.0206
 1061loPI   PO416296   9.318   7.733   5.165 -0.0603 -0.1072  0.0528
 1061loPI   GL116297   9.436   7.641   5.666 -0.2131 -0.0449 -0.1385
 1061loPI   GL216298   9.139   7.471   5.733 -0.0576  0.3246  0.0632
 1061loPI   C1A16299   9.617   7.504   6.067  0.0424 -0.2471  0.1073
 1061loPI   C2A16300   9.577   7.464   6.458  0.3295 -0.1190 -0.1828
 1061loPI   C3A16301   9.901   7.333   6.775 -0.0333  0.1452 -0.0588
 1061loPI   C4A16302  10.010   7.308   7.148 -0.2131  0.0463 -0.1033
 1061loPI   C5A16303  10.143   7.570   7.462  0.0542  0.1918  0.0368
 1061loPI   C6A16304  10.368   7.690   7.827  0.0941  0.0437 -0.1203
 1061loPI   C1B16305   9.078   7.598   6.172  0.1516 -0.1733 -0.0589
 1061loPI   C2B16306   9.043   7.559   6.571  0.0636  0.1721  0.1479
 1061loPI   C3B16307   9.027   7.488   7.031  0.0970  0.0962  0.0348
 1061loPI   C4B16308   8.979   7.364   7.497  0.2238 -0.1483 -0.1894
 1062loPI    C116309  13.587   7.630   5.248 -0.1354 -0.1665  0.3929
 1062loPI    C216310  13.942   7.719   5.411 -0.0180 -0.1104  0.1121
 1062loPI    C316311  13.908   7.405   5.164 -0.0736  0.1167 -0.1742
 1062loPI   PO416312  13.412   7.882   5.407  0.1152  0.0262 -0.0585
 1062loPI   GL116313  13.349   8.057   5.754 -0.0520 -0.1467 -0.1697
 1062loPI   GL216314  13.077   8.154   5.738 -0.2169  0.0571  0.2227
 1062loPI   C1A16315  13.552   8.377   5.992  0.2054 -0.2860 -0.0174
 1062loPI   C2A16316  13.723   8.479   6.378  0.0817  0.2696  0.1520
 1062loPI   C3A16317  13.586   8.542   6.788 -0.1079 -0.0815 -0.2894
 1062loPI   C4A16318  13.640   8.690   7.200  0.2016  0.0158 -0.1433
 1062loPI   C5A16319  13.947   8.871   7.431 -0.2549  0.1135 -0.1694
 1062loPI   C6A16320  14.185   8.837   7.931  0.2263  0.0386  0.3458
 1062loPI   C1B16321  13.195   8.139   6.223  0.2351 -0.0188  0.1449
 1062loPI   C2B16322  13.345   8.049   6.619 -0.0498  0.0494 -0.0942
 1062loPI   C3B16323  13.564   7.878   6.902 -0.0005  0.3334 -0.0370
 1062loPI   C4B16324  13.817   7.852   7.189  0.0903  0.0727 -0.3838
 1063loPI    C116325   4.464   8.645   4.662 -0.2253  0.0998  0.2626
 1063loPI    C216326   4.228   8.322   4.678 -0.0562 -0.0296  0.1864
 1063loPI    C316327   4.114   8.644   4.469  0.0085 -0.2386 -0.1783
 1063loPI   PO416328   4.616   8.547   5.010  0.0998  0.2210 -0.2097
 1063loPI   GL116329   4.753   8.597   5.380 -0.2415  0.1531  0.2356
 1063loPI   GL216330   4.724   8.937   5.454  0.0590  0.1734  0.0481
 1063loPI   C1A16331   4.581   8.490   5.691  0.1245 -0.0142 -0.1702
 1063loPI   C2A16332   4.424   8.471   6.041 -0.0616  0.1738 -0.3484
 1063loPI   C3A16333   4.403   8.560   6.346  0.1759  0.1344 -0.0856
 1063loPI   C4A16334   4.215   8.955   6.452 -0.3828  0.2073 -0.1097
 1063loPI   C5A16335   4.163   9.167   6.783  0.1231  0.0895  0.1403
 1063loPI   C6A16336   4.123   9.443   7.053 -0.0296  0.0098 -0.1904
 1063loPI   C1B16337   4.507   9.023   5.884  0.1608  0.2228 -0.2791
 1063loPI   C2B16338   4.604   9.079   6.216 -0.0923 -0.2144 -0.2454
 1063loPI   C3B16339   4.748   9.019   6.565  0.2307 -0.0418 -0.1522
 1063loPI   C4B16340   4.772   8.975   7.016  0.1986 -0.1781  0.1650
 1064loPI    C116341   2.299   1.340   5.161 -0.0204 -0.1498  0.1143
 1064loPI    C216342   1.933   1.359   5.002 -0.1039  0.0906  0.3293
 1064loPI    C316343   2.248   1.497   4.797 -0.1825  0.2094  0.2873
 1064loPI   PO416344   2.330   1.054   5.224  0.0217 -0.2443 -0.1770
 1064loPI   GL116345   2.060   0.958   5.521  0.0379  0.0484  0.0033
 1064loPI   GL216346   1.848   0.818   5.535  0.0981 -0.1524  0.0300
 1064loPI   C1A16347   2.144   1.070   5.870 -0.1908 -0.1431  0.1342
 1064loPI   C2A16348   1.980   1.152   6.201 -0.2200  0.0986 -0.0450
 1064loPI   C3A16349   1.792   1.166   6.579 -0.0816 -0.1267  0.2251
 1064loPI   C4A16350   1.656   1.086   7.002  0.3305 -0.0127  0.1511
 1064loPI   C5A16351   1.728   0.772   7.327 -0.1590 -0.2198 -0.2504
 1064loPI   C6A16352   1.805   0.318   7.530 -0.0709 -0.2453 -0.0590
 1064loPI   C1B16353   1.663   0.767   5.980 -0.4397 -0.1883 -0.1856
 1064loPI   C2B16354   1.610   0.696   6.391  0.0330 -0.3603 -0.1897
 1064loPI   C3B16355   1.546   0.544   6.818 -0.2425 -0.0498  0.3148
 1064loPI   C4B16356   1.487   0.297   7.214 -0.2943  0.4201 -0.2077
 1065loPI    C116357   6.207   6.537   5.122  0.0101  0.0372 -0.0543
 1065loPI    C216358   6.117   6.273   4.835 -0.0780  0.2467 -0.2222
 1065loPI    C316359   6.387   6.560   4.765 -0.1394  0.3319 -0.1139
 1065loPI   PO416360   6.049   6.387   5.382  0.0798  0.1074  0.0486
 1065loPI   GL116361   5.756   6.260   5.719  0.0498 -0.2115 -0.0863
 1065loPI   GL216362   5.785   6.580   5.891  0.2479  0.1243  0.1344
 1065loPI   C1A16363   5.665   6.055   6.124 -0.0014 -0.0188 -0.0016
 1065loPI   C2A16364   5.579   6.172   6.557  0.2183  0.0312  0.4092
 1065loPI   C3A16365   5.339   6.253   6.857  0.0593 -0.1014  0.0007
 1065loPI   C4A16366   5.350   6.482   7.235 -0.0110  0.0683 -0.1839
 1065loPI   C5A16367   5.506   6.559   7.587 -0.1534 -0.2347 -0.0591
 1065loPI   C6A16368   5.396   6.466   8.052  0.2467 -0.1090 -0.2167
 1065loPI   C1B16369   5.797   6.535   6.318  0.1519 -0.0384 -0.4304
 1065loPI   C2B16370   5.724   6.650   6.727 -0.0220 -0.2086 -0.1312
 1065loPI   C3B16371   5.856   6.478   7.121  0.1945 -0.1979  0.4721
 1065loPI   C4B16372   5.771   6.153   7.450  0.2279 -0.0232  0.1626
 1066loPI    C116373   5.476   7.412   5.135 -0.0661  0.0405 -0.0181
 1066loPI    C216374   5.590   7.709   4.893  0.1253  0.0777  0.1159
 1066loPI    C316375   5.307   7.772   5.168  0.0339  0.0841  0.0209
 1066loPI   PO416376   5.629   7.369   5.282 -0.0211 -0.1507 -0.0203
 1066loPI   GL116377   5.792   7.443   5.649  0.1344 -0.0200  0.0832
 1066loPI   GL216378   5.656   7.723   5.721 -0.0367  0.1441  0.4697
 1066loPI   C1A16379   6.089   7.691   6.040 -0.0275 -0.0064  0.1646
 1066loPI   C2A16380   6.024   7.952   6.366 -0.1128  0.2119 -0.0257
 1066loPI   C3A16381   5.643   7.963   6.514 -0.0937  0.1699 -0.1371
 1066loPI   C4A16382   5.448   7.798   6.855 -0.4307  0.2684  0.2234
 1066loPI   C5A16383   5.123   8.073   6.773  0.1386  0.0936  0.1904
 1066loPI   C6A16384   4.717   8.180   6.543  0.0233 -0.4451 -0.0272
 1066loPI   C1B16385   5.634   8.021   6.016 -0.0880 -0.1840 -0.1659
 1066loPI   C2B16386   5.352   8.280   6.084  0.1821  0.2290 -0.0920
 1066loPI   C3B16387   4.868   8.175   6.014 -0.2239  0.1147 -0.1087
 1066loPI   C4B16388   4.541   8.002   6.069 -0.0317 -0.0247  0.2374
 1067loPI    C116389   1.881   4.819   5.080  0.1278 -0.3535 -0.2576
 1067loPI    C216390   1.533   4.766   4.889  0.0586  0.0759 -0.2614
 1067loPI    C316391   1.762   5.083   4.804  0.2893 -0.0210 -0.0170
 1067loPI   PO416392   1.833   4.765   5.335  0.0706 -0.3008 -0.1449
 1067loPI   GL116393   1.749   5.008   5.679 -0.0455 -0.1523  0.0510
 1067loPI   GL216394   2.042   4.788   5.913 -0.0166 -0.1098  0.1482
 1067loPI   C1A16395   1.511   4.738   5.945  0.1494 -0.1357  0.1824
 1067loPI   C2A16396   1.323   4.677   6.421 -0.0928  0.0719  0.1859
 1067loPI   C3A16397   1.132   4.682   6.800 -0.0147  0.2626  0.0490
 1067loPI   C4A16398   0.912   4.614   7.212  0.2973  0.1246 -0.0778
 1067loPI   C5A16399   0.567   4.658   7.514  0.0453 -0.0783  0.0015
 1067loPI   C6A16400   0.141   4.701   7.557  0.0861  0.3087 -0.1137
 1067loPI   C1B16401   2.333   4.995   6.172  0.1999  0.1243 -0.1699
 1067loPI   C2B16402   2.193   5.208   6.596  0.0991 -0.0808  0.1621
 1067loPI   C3B16403   1.879   5.459   6.981 -0.0923 -0.4771  0.1022
 1067loPI   C4B16404   1.705   5.741   7.363 -0.1204  0.0348  0.0360
 1068loPI    C116405   0.011  16.427   4.908  0.0041 -0.4242  0.2274
 1068loPI    C216406   0.407  16.443   4.962  0.0445 -0.0364 -0.1325
 1068loPI    C316407   0.257  16.370   4.598 -0.2127  0.1704 -0.0710
 1068loPI   PO416408  -0.052  16.655   5.199 -0.0686 -0.1456 -0.0363
 1068loPI   GL116409   0.159  16.821   5.629  0.1612 -0.2099 -0.2604
 1068loPI   GL216410   0.302  16.599   5.620  0.3314 -0.0485  0.2092
 1068loPI   C1A16411   0.212  16.832   6.046 -0.0528 -0.0819 -0.2656
 1068loPI   C2A16412   0.124  16.895   6.462 -0.2646  0.1769  0.1568
 1068loPI   C3A16413   0.024  16.805   6.927  0.3518  0.0509 -0.2405
 1068loPI   C4A16414   0.203  16.696   7.355  0.3505  0.0455  0.1055
 1068loPI   C5A16415   0.411  16.406   7.603 -0.2717 -0.1642 -0.1034
 1068loPI   C6A16416   0.651  16.129   7.952  0.0898  0.0884  0.0330
 1068loPI   C1B16417   0.665  16.813   5.774  0.0739 -0.1627 -0.0237
 1068loPI   C2B16418   0.745  17.004   6.177 -0.0034 -0.1852 -0.2210
 1068loPI   C3B16419   0.967  16.960   6.532  0.0011  0.1241  0.1995
 1068loPI   C4B16420   1.107  16.905   7.056 -0.4876  0.3092  0.1249
 1069loPI    C116421  14.979   3.335   4.972  0.0257 -0.0289 -0.0133
 1069loPI    C216422  14.711   3.292   4.678 -0.0144  0.1479 -0.0032
 1069loPI    C316423  15.088   3.395   4.592  0.0333 -0.0315 -0.0115
 1069loPI   PO416424  14.984   3.476   5.063 -0.1117 -0.1548 -0.2234
 1069loPI   GL116425  15.015   3.451   5.555 -0.4809  0.1468 -0.2733
 1069loPI   GL216426  15.271   3.293   5.723 -0.1954  0.1070 -0.4320
 1069loPI   C1A16427  14.842   3.531   5.999 -0.0468 -0.2958  0.0405
 1069loPI   C2A16428  14.910   3.637   6.459  0.0945 -0.0579 -0.0707
 1069loPI   C3A16429  15.060   3.729   6.937 -0.0075 -0.1791 -0.3660
 1069loPI   C4A16430  14.992   3.882   7.348 -0.3922  0.2338 -0.4151
 1069loPI   C5A16431  14.837   4.119   7.763  0.0680  0.5773  0.0225
 1069loPI   C6A16432  15.024   4.559   7.860 -0.0113  0.0238 -0.4043
 1069loPI   C1B16433  15.339   3.725   5.998 -0.1877  0.1882  0.2776
 1069loPI   C2B16434  15.412   3.790   6.339 -0.0823  0.0549 -0.2905
 1069loPI   C3B16435  15.555   3.779   6.752  0.0748  0.1425  0.0941
 1069loPI   C4B16436  15.499   3.828   7.238 -0.3404  0.0545  0.2645
 1070loPI    C116437  15.049  11.318   5.053  0.0482  0.2827 -0.0121
 1070loPI    C216438  14.759  11.531   5.227  0.0458  0.2833 -0.0167
 1070loPI    C316439  14.731  11.433   4.840 -0.1349 -0.0462  0.0764
 1070loPI   PO416440  15.028  11.121   5.185 -0.0081  0.1730 -0.1093
 1070loPI   GL116441  15.195  10.746   5.555 -0.0687  0.0864 -0.3265
 1070loPI   GL216442  14.847  10.716   5.504 -0.2276  0.0563 -0.0249
 1070loPI   C1A16443  15.070  10.894   5.993  0.0196  0.0225  0.1182
 1070loPI   C2A16444  15.002  10.877   6.484 -0.0465 -0.2448  0.0755
 1070loPI   C3A16445  15.207  10.755   6.779  0.1485 -0.0004 -0.1024
 1070loPI   C4A16446  15.337  10.769   7.161 -0.0852  0.0136  0.0921
 1070loPI   C5A16447  15.473  10.694   7.541 -0.2064 -0.1919  0.0136
 1070loPI   C6A16448  15.433  10.485   7.822 -0.0062 -0.1106  0.0576
 1070loPI   C1B16449  14.911  10.420   5.807  0.0946  0.1364 -0.0475
 1070loPI   C2B16450  14.763  10.464   6.292 -0.1036 -0.1494 -0.1215
 1070loPI   C3B16451  14.878  10.388   6.662  0.0222 -0.1424  0.0273
 1070loPI   C4B16452  15.134  10.294   6.944 -0.1290  0.1906 -0.1208
 1071loPI    C116453   5.969  12.740   5.163 -0.1056 -0.0784 -0.1576
 1071loPI    C216454   6.032  12.645   4.779  0.1075 -0.5004 -0.0240
 1071loPI    C316455   5.675  12.578   4.946 -0.0329 -0.1737 -0.1858
 1071loPI   PO416456   5.954  13.077   5.255 -0.0138  0.0515 -0.0317
 1071loPI   GL116457   5.859  13.222   5.567 -0.2673  0.2202  0.2846
 1071loPI   GL216458   6.199  13.369   5.575 -0.0680  0.0783  0.0848
 1071loPI   C1A16459   5.636  13.456   5.788 -0.4132 -0.4065 -0.0536
 1071loPI   C2A16460   5.440  13.771   5.850  0.0850  0.2408 -0.1909
 1071loPI   C3A16461   5.211  13.926   6.286 -0.0178  0.2178 -0.3800
 1071loPI   C4A16462   5.043  14.050   6.671  0.2922  0.0229  0.2561
 1071loPI   C5A16463   4.699  13.939   6.961  0.1749 -0.4061 -0.1038
 1071loPI   C6A16464   4.443  13.958   7.359  0.2940  0.0278 -0.2752
 1071loPI   C1B16465   6.173  13.503   5.905 -0.1844 -0.2633 -0.2037
 1071loPI   C2B16466   6.115  13.529   6.360  0.3514 -0.3610 -0.0419
 1071loPI   C3B16467   5.900  13.523   6.738  0.0159  0.2465  0.3629
 1071loPI   C4B16468   5.509  13.342   6.848  0.0242 -0.0462 -0.0053
 1072loPI    C116469   3.284   6.668   4.835 -0.2744 -0.2509 -0.0958
 1072loPI    C216470   3.082   6.710   4.492  0.2269  0.0760 -0.3651
 1072loPI    C316471   3.353   6.418   4.530  0.1208 -0.0049 -0.2157
 1072loPI   PO416472   3.118   6.630   5.038 -0.0641 -0.3086  0.4326
 1072loPI   GL116473   3.128   6.749   5.380  0.0093  0.0731 -0.2097
 1072loPI   GL216474   2.805   6.895   5.381 -0.1947 -0.1976 -0.0021
 1072loPI   C1A16475   3.142   7.084   5.688  0.1633  0.1771  0.0450
 1072loPI   C2A16476   2.973   7.395   6.018  0.1232  0.1242 -0.0256
 1072loPI   C3A16477   2.949   7.474   6.455 -0.0131 -0.0305 -0.1927
 1072loPI   C4A16478   2.883   7.532   6.828 -0.0193  0.0814  0.1387
 1072loPI   C5A16479   2.611   7.725   7.197 -0.0130 -0.2561  0.2123
 1072loPI   C6A16480   2.419   7.718   7.611 -0.0561  0.0566  0.0637
 1072loPI   C1B16481   2.715   6.802   5.855  0.1409 -0.0200  0.2424
 1072loPI   C2B16482   2.714   7.025   6.259 -0.0004  0.1628 -0.1023
 1072loPI   C3B16483   2.686   7.092   6.771 -0.1222 -0.0138  0.1967
 1072loPI   C4B16484   2.879   7.046   7.303 -0.1046 -0.1037  0.1326
 1073loPI    C116485  14.285   7.973   5.146  0.0272  0.1758 -0.0805
 1073loPI    C216486  14.170   7.685   4.893 -0.1543  0.1097  0.0747
 1073loPI    C316487  14.218   8.060   4.761 -0.0350  0.0332 -0.1026
 1073loPI   PO416488  14.475   7.916   5.246 -0.0643  0.0241  0.3281
 1073loPI   GL116489  14.574   7.732   5.570 -0.2692  0.0154  0.1569
 1073loPI   GL216490  14.367   7.371   5.452 -0.1162 -0.4212  0.1386
 1073loPI   C1A16491  14.460   7.744   5.964 -0.1823  0.0512 -0.0164
 1073loPI   C2A16492  14.269   8.080   6.104 -0.0393 -0.1516 -0.3462
 1073loPI   C3A16493  14.383   8.336   6.462 -0.0787  0.2691 -0.1356
 1073loPI   C4A16494  14.527   8.322   6.908 -0.0400  0.0779  0.2681
 1073loPI   C5A16495  14.740   8.285   7.201  0.1631 -0.2065  0.2817
 1073loPI   C6A16496  14.764   8.135   7.627  0.0405 -0.0052  0.0617
 1073loPI   C1B16497  14.096   7.362   5.809  0.1197 -0.0914 -0.2074
 1073loPI   C2B16498  14.030   7.573   6.199  0.0516 -0.2763 -0.0602
 1073loPI   C3B16499  13.871   7.561   6.615  0.2732 -0.1636  0.0835
 1073loPI   C4B16500  14.030   7.464   6.999 -0.1132  0.1356  0.0038
 1074loPI    C116501   5.047  11.163   4.428  0.1982 -0.0017 -0.0261
 1074loPI    C216502   5.028  11.493   4.202  0.0039  0.0039 -0.0027
 1074loPI    C316503   5.282  11.477   4.511  0.1728  0.0475 -0.1375
 1074loPI   PO416504   4.771  11.080   4.602  0.2586  0.0347  0.3081
 1074loPI   GL116505   4.670  11.059   5.049 -0.0523 -0.0403  0.1070
 1074loPI   GL216506   4.749  10.775   5.020  0.2710  0.2883 -0.0505
 1074loPI   C1A16507   4.679  11.260   5.576 -0.1123  0.1861 -0.0486
 1074loPI   C2A16508   4.631  11.252   6.058 -0.0925 -0.2484 -0.1024
 1074loPI   C3A16509   4.621  10.918   6.416 -0.2193 -0.1660 -0.0080
 1074loPI   C4A16510   4.960  10.690   6.689  0.0487  0.2119 -0.2644
 1074loPI   C5A16511   5.398  10.463   6.917  0.2046 -0.2523 -0.3323
 1074loPI   C6A16512   5.567  10.470   7.289 -0.0175  0.2663 -0.0675
 1074loPI   C1B16513   4.933  10.792   5.489 -0.0020  0.0915  0.1669
 1074loPI   C2B16514   4.792  10.834   5.908 -0.1773  0.1224 -0.2785
 1074loPI   C3B16515   4.425  10.747   5.926 -0.4294 -0.0129 -0.4881
 1074loPI   C4B16516   4.244  10.373   6.179  0.0305  0.1618 -0.2172
 1075loPI    C116517   2.998   7.499   4.671  0.4032 -0.1416 -0.2682
 1075loPI    C216518   2.887   7.496   4.287 -0.0339 -0.0260 -0.1488
 1075loPI    C316519   2.832   7.171   4.513 -0.2574  0.0748 -0.0559
 1075loPI   PO416520   2.929   7.722   4.811  0.4351  0.1030  0.2687
 1075loPI   GL116521   2.975   7.926   5.201 -0.0324  0.1830  0.2233
 1075loPI   GL216522   2.637   8.032   5.334 -0.0274  0.0130  0.3071
 1075loPI   C1A16523   3.150   8.066   5.551 -0.1802 -0.1816 -0.1158
 1075loPI   C2A16524   3.081   8.067   6.003  0.2054 -0.0563 -0.2730
 1075loPI   C3A16525   3.236   7.967   6.472  0.4177  0.1764  0.0828
 1075loPI   C4A16526   3.134   7.918   6.973 -0.4267  0.1818 -0.0558
 1075loPI   C5A16527   3.260   8.213   7.440  0.4316 -0.0904  0.3977
 1075loPI   C6A16528   3.520   8.480   7.481 -0.1926 -0.0604  0.0544
 1075loPI   C1B16529   2.704   8.280   5.725  0.3160 -0.1005  0.3917
 1075loPI   C2B16530   2.520   8.331   6.165  0.0156  0.1442 -0.0022
 1075loPI   C3B16531   2.413   8.337   6.556 -0.0202 -0.2145 -0.0876
 1075loPI   C4B16532   2.257   8.346   7.017  0.0097 -0.1345 -0.1271
 1076loPI    C116533  11.242   3.533   5.210  0.1278  0.1870 -0.0485
 1076loPI    C216534  10.906   3.468   5.003  0.3184 -0.2515 -0.2327
 1076loPI    C316535  11.178   3.728   4.867 -0.0574  0.3115  0.0553
 1076loPI   PO416536  11.331   3.247   5.388 -0.1551 -0.0039  0.0938
 1076loPI   GL116537  11.274   3.192   5.695  0.1352  0.1893 -0.1116
 1076loPI   GL216538  11.544   2.999   5.720 -0.2290 -0.0310  0.0172
 1076loPI   C1A16539  11.180   3.197   6.144  0.2182  0.0760  0.1090
 1076loPI   C2A16540  11.144   2.978   6.576 -0.0904 -0.2802 -0.0600
 1076loPI   C3A16541  11.037   2.981   7.006 -0.3157 -0.0345 -0.0617
 1076loPI   C4A16542  11.046   2.937   7.433  0.1671 -0.0740  0.2718
 1076loPI   C5A16543  11.021   3.209   7.830 -0.0008 -0.1630  0.1468
 1076loPI   C6A16544  11.134   3.662   7.766 -0.0432  0.6549  0.3738
 1076loPI   C1B16545  11.676   2.788   6.071 -0.4588 -0.2714 -0.0194
 1076loPI   C2B16546  11.706   2.904   6.481 -0.0373  0.2174  0.1121
 1076loPI   C3B16547  11.546   2.708   6.855  0.4025  0.0470 -0.4012
 1076loPI   C4B16548  11.440   2.639   7.334  0.2641  0.0564  0.1138
 1077loPI    C116549  13.319  12.844   4.774  0.0432  0.0460 -0.1485
 1077loPI    C216550  12.983  12.929   4.575  0.0344 -0.0037 -0.1552
 1077loPI    C316551  13.324  12.866   4.374  0.1236  0.3795 -0.1316
 1077loPI   PO416552  13.232  12.762   5.034  0.3592 -0.2074 -0.1259
 1077loPI   GL116553  13.110  12.629   5.545  0.3814  0.0359  0.1410
 1077loPI   GL216554  13.214  12.319   5.661 -0.1422 -0.2443  0.0708
 1077loPI   C1A16555  13.252  13.007   5.904 -0.1262  0.2280  0.2855
 1077loPI   C2A16556  13.433  13.309   5.993 -0.1986  0.0819  0.0701
 1077loPI   C3A16557  13.570  13.564   6.301  0.0354  0.0532 -0.0379
 1077loPI   C4A16558  13.557  13.898   6.535 -0.0740  0.0022  0.0313
 1077loPI   C5A16559  13.698  13.999   6.889 -0.1378  0.2662  0.0275
 1077loPI   C6A16560  13.701  14.268   7.275 -0.2288  0.3055 -0.0316
 1077loPI   C1B16561  12.997  11.820   5.720 -0.2838 -0.0623  0.2249
 1077loPI   C2B16562  12.946  11.381   5.803  0.0682  0.2289 -0.2427
 1077loPI   C3B16563  12.998  11.174   6.147 -0.1469 -0.1188  0.1403
 1077loPI   C4B16564  13.296  11.211   6.385 -0.1050  0.0116 -0.3516
 1078loPI    C116565   2.998  13.782   4.542  0.0146  0.1817  0.1575
 1078loPI    C216566   2.696  13.797   4.804  0.0604  0.0784  0.2172
 1078loPI    C316567   2.648  13.943   4.434 -0.0878 -0.0079  0.2015
 1078loPI   PO416568   3.233  13.634   4.717 -0.2143 -0.1805  0.0511
 1078loPI   GL116569   3.471  13.853   5.141  0.2196 -0.0798 -0.0358
 1078loPI   GL216570   3.255  14.117   5.154 -0.4254  0.2444  0.2318
 1078loPI   C1A16571   3.622  13.733   5.536  0.0680 -0.1407 -0.1483
 1078loPI   C2A16572   3.513  13.639   6.008 -0.0189 -0.2087 -0.1138
 1078loPI   C3A16573   3.803  13.659   6.328  0.2768  0.1312 -0.3016
 1078loPI   C4A16574   3.821  13.796   6.689 -0.0024  0.3197 -0.1863
 1078loPI   C5A16575   3.668  13.864   7.053 -0.4036 -0.1222 -0.5066
 1078loPI   C6A16576   3.338  13.950   7.331 -0.0492  0.1457 -0.0804
 1078loPI   C1B16577   3.258  14.121   5.535  0.0889  0.2118  0.0172
 1078loPI   C2B16578   3.196  14.101   5.990  0.1982 -0.2941 -0.0662
 1078loPI   C3B16579   3.174  14.250   6.452 -0.1277  0.4090  0.0914
 1078loPI   C4B16580   2.793  14.449   6.720  0.1578  0.1365  0.1841
 1079loPI    C116581   8.016   4.798   4.786  0.0714 -0.0800 -0.1068
 1079loPI    C216582   8.127   5.027   4.478 -0.0419  0.1073 -0.0102
 1079loPI    C316583   7.755   5.052   4.621 -0.1383 -0.3325 -0.1699
 1079loPI   PO416584   8.245   4.876   5.081 -0.1003 -0.0163  0.1942
 1079loPI   GL116585   8.359   4.656   5.539  0.0543  0.2691 -0.4395
 1079loPI   GL216586   8.083   4.562   5.412 -0.0880 -0.1707 -0.2006
 1079loPI   C1A16587   8.349   4.973   5.903  0.2474  0.1516 -0.1442
 1079loPI   C2A16588   8.319   5.165   6.459 -0.2209 -0.3034  0.2900
 1079loPI   C3A16589   8.414   5.268   6.895 -0.0336  0.3755  0.0840
 1079loPI   C4A16590   8.315   5.307   7.267  0.1290  0.3472  0.2050
 1079loPI   C5A16591   8.149   5.289   7.705 -0.0505  0.1116 -0.0178
 1079loPI   C6A16592   7.776   5.370   7.907  0.0494  0.1925 -0.5092
 1079loPI   C1B16593   7.984   4.443   5.793  0.0401  0.3017  0.0337
 1079loPI   C2B16594   7.829   4.229   6.191 -0.2418  0.0512 -0.2397
 1079loPI   C3B16595   7.638   4.154   6.568  0.3358 -0.0216 -0.0669
 1079loPI   C4B16596   7.450   3.965   6.968 -0.3205 -0.1737  0.1638
 1080loPI    C116597   3.472  12.342   4.686  0.2947 -0.2718  0.0899
 1080loPI    C216598   3.124  12.146   4.711 -0.0479  0.3112  0.0630
 1080loPI    C316599   3.320  12.161   4.363  0.1326 -0.2143  0.1327
 1080loPI   PO416600   3.422  12.585   4.850 -0.0358 -0.0922 -0.2444
 1080loPI   GL116601   3.129  12.715   5.170 -0.0244  0.0038  0.0459
 1080loPI   GL216602   3.048  12.460   5.137  0.2180 -0.0215 -0.4832
 1080loPI   C1A16603   3.093  12.703   5.706  0.0474  0.1202  0.0567
 1080loPI   C2A16604   3.137  12.749   6.162  0.0282  0.0581 -0.1717
 1080loPI   C3A16605   3.169  12.762   6.602 -0.0471  0.1389  0.0127
 1080loPI   C4A16606   3.080  13.009   6.975 -0.4551 -0.1723  0.1760
 1080loPI   C5A16607   2.696  13.133   7.196  0.0229  0.1419  0.1569
 1080loPI   C6A16608   2.419  13.342   7.278 -0.2057  0.2616  0.2076
 1080loPI   C1B16609   3.396  12.345   5.467  0.0834 -0.0193  0.0632
 1080loPI   C2B16610   3.677  12.323   5.917 -0.0384  0.1087  0.0583
 1080loPI   C3B16611   3.882  12.146   6.365  0.0672  0.0752 -0.3468
 1080loPI   C4B16612   4.158  12.218   6.752 -0.1668  0.1536  0.1341
 1081loPI    C116613   5.892   1.590   5.663 -0.3332  0.3053 -0.0886
 1081loPI    C216614   6.002   1.469   5.298  0.1126  0.0731  0.1147
 1081loPI    C316615   5.889   1.848   5.358  0.0617  0.1199 -0.2560
 1081loPI   PO416616   6.108   1.396   5.792 -0.1128  0.0617 -0.1731
 1081loPI   GL116617   6.081   1.378   6.166 -0.1345 -0.1827 -0.1733
 1081loPI   GL216618   6.236   1.077   6.197  0.1824 -0.0195 -0.2329
 1081loPI   C1A16619   6.306   1.451   6.500  0.0234 -0.3312  0.0027
 1081loPI   C2A16620   6.310   1.500   6.889  0.3033  0.1384 -0.2000
 1081loPI   C3A16621   6.280   1.526   7.366 -0.0854  0.1044  0.0212
 1081loPI   C4A16622   6.119   1.596   7.773  0.0673  0.3193  0.1570
 1081loPI   C5A16623   5.988   1.930   8.015  0.3417  0.1729  0.0720
 1081loPI   C6A16624   5.608   2.161   8.021  0.0312 -0.1737 -0.1978
 1081loPI   C1B16625   6.066   1.062   6.566 -0.2272 -0.1173  0.2176
 1081loPI   C2B16626   6.110   1.031   7.002 -0.0220  0.1713  0.0760
 1081loPI   C3B16627   6.010   1.055   7.513  0.0286  0.2797  0.0240
 1081loPI   C4B16628   5.738   0.926   7.758  0.2334 -0.0916  0.1543
 1082loPI    C116629   1.307  11.626   4.402 -0.0685 -0.2076  0.1854
 1082loPI    C216630   1.679  11.637   4.547 -0.0678  0.2362  0.1662
 1082loPI    C316631   1.600  11.794   4.188 -0.1766 -0.3499 -0.0788
 1082loPI   PO416632   1.174  11.710   4.568  0.0738  0.0325 -0.0599
 1082loPI   GL116633   0.970  11.654   4.988 -0.1254 -0.0790  0.4055
 1082loPI   GL216634   1.000  11.403   5.219  0.0657  0.0704  0.0319
 1082loPI   C1A16635   1.209  11.756   5.347 -0.1101 -0.2553 -0.1452
 1082loPI   C2A16636   1.318  11.958   5.705 -0.3520 -0.0255  0.1962
 1082loPI   C3A16637   1.535  12.140   6.137  0.2951  0.2144 -0.0366
 1082loPI   C4A16638   1.405  12.272   6.605  0.2341 -0.0028  0.2931
 1082loPI   C5A16639   1.199  12.275   7.029 -0.1166 -0.1773 -0.1278
 1082loPI   C6A16640   1.353  12.191   7.566  0.2599  0.2177 -0.0004
 1082loPI   C1B16641   1.088  11.071   5.486  0.1823  0.0480  0.1231
 1082loPI   C2B16642   1.284  10.939   5.796  0.0757  0.2795  0.0746
 1082loPI   C3B16643   1.566  11.017   6.059 -0.0941  0.0640  0.1463
 1082loPI   C4B16644   1.684  11.267   6.283  0.0223  0.1281  0.0101
 1083loPI    C116645   1.082   9.873   4.640  0.0358  0.2924 -0.1083
 1083loPI    C216646   1.417   9.894   4.423 -0.0202  0.1309 -0.2124
 1083loPI    C316647   1.067   9.821   4.244 -0.0669 -0.0052 -0.0674
 1083loPI   PO416648   1.102   9.679   4.850  0.0358  0.2183 -0.1006
 1083loPI   GL116649   0.895   9.619   5.204  0.0887  0.0556  0.2521
 1083loPI   GL216650   0.759   9.447   5.242  0.1418 -0.0191  0.0420
 1083loPI   C1A16651   0.801   9.772   5.674  0.2904  0.3714  0.0873
 1083loPI   C2A16652   0.665   9.857   6.011  0.3713 -0.2782  0.0306
 1083loPI   C3A16653   0.929   9.814   6.426  0.0213 -0.1084  0.2852
 1083loPI   C4A16654   0.898   9.878   6.769  0.1194  0.1762 -0.2838
 1083loPI   C5A16655   0.982   9.929   7.136 -0.3054 -0.0264  0.1091
 1083loPI   C6A16656   0.884  10.245   7.527  0.0243  0.3636 -0.0489
 1083loPI   C1B16657   0.993   9.336   5.613  0.0191  0.0509 -0.0720
 1083loPI   C2B16658   1.005   9.370   6.045 -0.3650 -0.2462  0.1931
 1083loPI   C3B16659   1.099   9.378   6.505 -0.1375 -0.3715 -0.0114
 1083loPI   C4B16660   1.131   9.435   6.865  0.0692  0.0998 -0.1250
 1084loPI    C116661  17.555   5.043   4.884  0.1260 -0.0604  0.0389
 1084loPI    C216662  17.642   4.904   4.519 -0.1820 -0.2258  0.0258
 1084loPI    C316663  17.366   5.191   4.564 -0.0896 -0.1511  0.1227
 1084loPI   PO416664  17.454   4.860   5.055 -0.0865  0.2342  0.2222
 1084loPI   GL116665  17.605   4.680   5.350 -0.0854  0.2575 -0.1190
 1084loPI   GL216666  17.961   4.783   5.451 -0.1323  0.1268 -0.1953
 1084loPI   C1A16667  17.735   4.471   5.688  0.1042  0.0524 -0.2331
 1084loPI   C2A16668  17.723   4.339   6.080 -0.0123  0.0121  0.0318
 1084loPI   C3A16669  17.854   4.230   6.432  0.0283  0.0594 -0.1758
 1084loPI   C4A16670  18.105   4.141   6.860  0.1477  0.0511 -0.0399
 1084loPI   C5A16671  18.203   3.994   7.281 -0.1209 -0.0384  0.0037
 1084loPI   C6A16672  18.465   3.870   7.534 -0.3594  0.1064 -0.0342
 1084loPI   C1B16673  18.059   4.981   5.835  0.0544 -0.1936  0.0038
 1084loPI   C2B16674  18.205   4.855   6.185  0.0804 -0.2646  0.0174
 1084loPI   C3B16675  18.229   4.706   6.641 -0.1248 -0.1233  0.0877
 1084loPI   C4B16676  18.240   4.617   7.071 -0.0351 -0.0508 -0.0299
 1085loPI    C116677  11.051   4.412   5.355 -0.2336 -0.0051 -0.2620
 1085loPI    C216678  10.983   4.256   4.993  0.1688 -0.2301 -0.2474
 1085loPI    C316679  10.976   4.653   5.045  0.1383 -0.1947 -0.5071
 1085loPI   PO416680  10.892   4.327   5.561 -0.0834 -0.0138  0.0320
 1085loPI   GL116681  10.623   4.347   5.955 -0.0044  0.0069  0.1865
 1085loPI   GL216682  10.379   4.237   6.079  0.0904 -0.1351  0.2188
 1085loPI   C1A16683  10.731   4.530   6.421 -0.1122 -0.0448  0.0964
 1085loPI   C2A16684  10.957   4.701   6.812 -0.0248  0.0588  0.1298
 1085loPI   C3A16685  10.956   4.917   7.159  0.1753  0.0985 -0.0917
 1085loPI   C4A16686  10.890   5.239   7.579 -0.0062 -0.1931 -0.2375
 1085loPI   C5A16687  10.973   5.217   8.030 -0.1245 -0.0427  0.1169
 1085loPI   C6A16688  10.661   5.244   8.256  0.0645 -0.2919 -0.0868
 1085loPI   C1B16689  10.277   4.260   6.461 -0.1994 -0.0335  0.0079
 1085loPI   C2B16690  10.056   4.301   6.873  0.3405  0.0041 -0.1942
 1085loPI   C3B16691  10.071   4.457   7.290 -0.1997  0.1311  0.2894
 1085loPI   C4B16692  10.086   4.661   7.608 -0.1348 -0.3229 -0.1279
 1086loPI    C116693  13.543   0.439   4.619  0.0318  0.2101 -0.0706
 1086loPI    C216694  13.848   0.596   4.414  0.1795  0.0158 -0.0025
 1086loPI    C316695  13.829   0.201   4.474 -0.0890  0.0254 -0.0101
 1086loPI   PO416696  13.472   0.727   4.901  0.0990 -0.0592 -0.1229
 1086loPI   GL116697  13.478   0.697   5.380  0.0109  0.1312  0.1548
 1086loPI   GL216698  13.792   0.746   5.406  0.0412 -0.1284 -0.0978
 1086loPI   C1A16699  13.522   0.399   5.697 -0.2293 -0.1826  0.1500
 1086loPI   C2A16700  13.470   0.456   6.268 -0.1143  0.1660 -0.3035
 1086loPI   C3A16701  13.867   0.482   6.562  0.0288 -0.0273 -0.1159
 1086loPI   C4A16702  13.906   0.930   6.678  0.0266 -0.1257 -0.0488
 1086loPI   C5A16703  13.889   1.297   6.891  0.3624 -0.0258 -0.2128
 1086loPI   C6A16704  14.034   1.334   7.337  0.1429 -0.3137  0.0896
 1086loPI   C1B16705  13.769   1.117   5.616  0.0725  0.2039 -0.1240
 1086loPI   C2B16706  13.663   1.565   5.774 -0.2402  0.2218 -0.2990
 1086loPI   C3B16707  13.646   1.715   6.162 -0.0719  0.1035 -0.1407
 1086loPI   C4B16708  13.533   1.836   6.508 -0.2807  0.1949  0.1025
 1087loPI    C116709   0.696   2.625   5.068  0.0502  0.1014  0.0455
 1087loPI    C216710   0.715   3.007   4.953  0.2421  0.1522  0.2406
 1087loPI    C316711   0.782   2.716   4.688 -0.0993  0.2462  0.0452
 1087loPI   PO416712   0.416   2.675   5.224  0.0648  0.0595 -0.0718
 1087loPI   GL116713   0.257   2.726   5.580  0.4486 -0.1867  0.3239
 1087loPI   GL216714   0.146   3.104   5.651 -0.3191 -0.1860 -0.1860
 1087loPI   C1A16715   0.615   2.864   5.900  0.0570 -0.0677 -0.1412
 1087loPI   C2A16716   0.836   3.078   6.312  0.3267  0.3804  0.0723
 1087loPI   C3A16717   0.912   3.059   6.773 -0.1454 -0.0106 -0.1338
 1087loPI   C4A16718   0.840   2.937   7.140  0.1909  0.0540 -0.1983
 1087loPI   C5A16719   0.510   3.024   7.457  0.0646 -0.0793 -0.0263
 1087loPI   C6A16720   0.230   2.954   7.881 -0.2357  0.3670  0.0771
 1087loPI   C1B16721   0.079   2.936   5.989  0.1406 -0.2288  0.2364
 1087loPI   C2B16722   0.081   2.869   6.423  0.0794 -0.1765  0.0879
 1087loPI   C3B16723   0.429   3.039   6.637 -0.2621  0.4991 -0.3913
 1087loPI   C4B16724   0.474   3.266   7.014  0.0394  0.1339  0.1207
 1088loPI    C116725   5.005   0.592   5.278 -0.0176 -0.2250  0.0591
 1088loPI    C216726   4.648   0.612   5.456 -0.0715 -0.0169 -0.0687
 1088loPI    C316727   4.698   0.767   5.091  0.1809  0.0686 -0.0001
 1088loPI   PO416728   5.140   0.406   5.403 -0.2351  0.2636  0.1968
 1088loPI   GL116729   5.043   0.139   5.809 -0.1947  0.0036  0.0278
 1088loPI   GL216730   4.731   0.253   5.806  0.0803  0.0844  0.3170
 1088loPI   C1A16731   5.041  -0.048   6.253 -0.1333 -0.0567  0.1919
 1088loPI   C2A16732   5.066  -0.156   6.630  0.0234  0.1201 -0.3119
 1088loPI   C3A16733   5.003  -0.356   7.039  0.0221  0.0684 -0.1011
 1088loPI   C4A16734   4.965  -0.617   7.380 -0.3829  0.2889  0.0950
 1088loPI   C5A16735   4.917  -0.423   7.758 -0.0183  0.0866  0.1921
 1088loPI   C6A16736   4.782  -0.045   7.946  0.3551  0.1781 -0.0450
 1088loPI   C1B16737   4.597   0.289   6.160  0.0663  0.2751  0.2591
 1088loPI   C2B16738   4.582   0.426   6.502  0.0829  0.4267  0.0345
 1088loPI   C3B16739   4.719   0.524   6.979  0.2692 -0.1964  0.3029
 1088loPI   C4B16740   4.958   0.603   7.288 -0.1572  0.0139  0.0555
 1089loPI    C116741  17.775  12.212   4.583  0.0033 -0.1835  0.0893
 1089loPI    C216742  17.433  12.310   4.401  0.0905  0.0850  0.0650
 1089loPI    C316743  17.691  12.060   4.223  0.0172  0.0724 -0.0243
 1089loPI   PO416744  17.769  12.109   4.801 -0.1999  0.2653 -0.2540
 1089loPI   GL116745  17.947  11.848   5.069 -0.0663 -0.0937  0.1334
 1089loPI   GL216746  18.096  12.165   5.146  0.1711 -0.1953  0.1216
 1089loPI   C1A16747  17.910  11.903   5.501 -0.2191 -0.1850 -0.0330
 1089loPI   C2A16748  18.103  12.123   5.852 -0.2549 -0.0965 -0.0585
 1089loPI   C3A16749  18.371  12.223   6.221 -0.1262  0.1575  0.0189
 1089loPI   C4A16750  18.379  12.621   6.401  0.1363  0.0901 -0.1896
 1089loPI   C5A16751  18.430  12.675   6.814  0.1372 -0.2900 -0.1772
 1089loPI   C6A16752  18.714  12.630   7.187 -0.1908 -0.1707 -0.1455
 1089loPI   C1B16753  18.413  12.038   5.422  0.0849 -0.1457  0.0851
 1089loPI   C2B16754  18.582  12.051   5.742  0.0144  0.1095 -0.2883
 1089loPI   C3B16755  18.762  11.911   6.052 -0.1544 -0.0066 -0.0468
 1089loPI   C4B16756  18.783  11.996   6.411 -0.2779  0.0044 -0.1078
 1090loPI    C116757   8.057  10.299   4.912  0.0583  0.1268 -0.1088
 1090loPI    C216758   7.764  10.243   4.646  0.1773 -0.0271 -0.2087
 1090loPI    C316759   8.146  10.238   4.527  0.2274 -0.0059 -0.0499
 1090loPI   PO416760   7.980  10.202   5.119  0.1808  0.0505  0.1019
 1090loPI   GL116761   8.140  10.082   5.498 -0.0780  0.2267 -0.1237
 1090loPI   GL216762   8.499  10.026   5.482 -0.2476  0.2185  0.3324
 1090loPI   C1A16763   8.232   9.846   5.884 -0.1544  0.0714 -0.1791
 1090loPI   C2A16764   8.286   9.949   6.214  0.0067 -0.2589  0.0098
 1090loPI   C3A16765   8.212   9.929   6.617  0.0845  0.1052 -0.2578
 1090loPI   C4A16766   8.191   9.982   7.019  0.0756 -0.0119 -0.0009
 1090loPI   C5A16767   8.113   9.960   7.370 -0.0347 -0.3196 -0.1900
 1090loPI   C6A16768   7.906   9.954   7.883  0.0061 -0.1914 -0.2454
 1090loPI   C1B16769   8.673  10.141   5.932  0.0030 -0.0632  0.1647
 1090loPI   C2B16770   8.697  10.217   6.345  0.0035 -0.1717 -0.2161
 1090loPI   C3B16771   8.684  10.283   6.828  0.0604 -0.1841  0.1637
 1090loPI   C4B16772   8.624  10.212   7.194 -0.0077  0.2751 -0.0416
 1091loPI    C116773   2.036  18.699   5.033  0.2977 -0.1363  0.0206
 1091loPI    C216774   2.369  18.914   5.082  0.1395  0.1536 -0.1526
 1091loPI    C316775   2.279  18.764   4.723  0.0614  0.1138 -0.1166
 1091loPI   PO416776   2.047  18.482   5.167  0.0063  0.0366 -0.0235
 1091loPI   GL116777   1.963  18.401   5.550 -0.1178 -0.0982  0.4341
 1091loPI   GL216778   2.256  18.236   5.618 -0.2299 -0.1651 -0.2727
 1091loPI   C1A16779   2.005  18.390   6.049  0.0254 -0.0499 -0.2227
 1091loPI   C2A16780   1.859  18.152   6.402  0.2590  0.2026  0.0162
 1091loPI   C3A16781   1.852  17.921   6.734  0.0673 -0.3396  0.0139
 1091loPI   C4A16782   2.095  17.766   6.975  0.1746 -0.0548  0.1016
 1091loPI   C5A16783   2.382  17.801   7.237  0.0152 -0.0708 -0.2802
 1091loPI   C6A16784   2.684  17.777   7.507 -0.1008 -0.0437  0.1026
 1091loPI   C1B16785   2.497  18.324   5.880  0.2201  0.2470 -0.0077
 1091loPI   C2B16786   2.706  18.229   6.216  0.0805 -0.1775 -0.0423
 1091loPI   C3B16787   2.846  18.224   6.567  0.1972  0.0148  0.3220
 1091loPI   C4B16788   2.686  18.170   7.004  0.1549  0.0383 -0.2783
 1092loPI    C116789  18.450  18.756   4.771  0.1579  0.0970 -0.1471
 1092loPI    C216790  18.383  18.424   4.558  0.0324  0.1015 -0.1152
 1092loPI    C316791  18.651  18.693   4.432  0.2239 -0.0700 -0.0778
 1092loPI   PO416792  18.515  18.689   5.044  0.0391 -0.1350  0.0946
 1092loPI   GL116793  18.441  18.598   5.503 -0.0992 -0.0031 -0.0171
 1092loPI   GL216794  18.382  18.873   5.587  0.0863  0.0382  0.1419
 1092loPI   C1A16795  18.627  18.552   5.877  0.0807 -0.0267  0.1013
 1092loPI   C2A16796  18.901  18.478   6.244 -0.0764  0.0378  0.0947
 1092loPI   C3A16797  19.123  18.304   6.543 -0.0305  0.0556 -0.2303
 1092loPI   C4A16798  19.479  18.043   6.895  0.0452  0.1966  0.0901
 1092loPI   C5A16799  19.640  17.688   7.157  0.2485  0.0925 -0.0805
 1092loPI   C6A16800  19.893  17.359   6.956  0.0464  0.1368  0.0844
 1092loPI   C1B16801  18.255  19.159   5.954 -0.2359  0.1767 -0.1621
 1092loPI   C2B16802  18.365  19.295   6.357  0.0582  0.1419 -0.1746
 1092loPI   C3B16803  18.476  19.309   6.802 -0.1324 -0.1261  0.0311
 1092loPI   C4B16804  18.405  19.449   7.166  0.3403 -0.1656  0.2864
 1093loPI    C116805  18.672  12.736   4.502 -0.0455  0.0189 -0.1914
 1093loPI    C216806  18.714  13.086   4.313  0.3056  0.0298 -0.1010
 1093loPI    C316807  18.835  12.747   4.137 -0.2938 -0.0895 -0.3079
 1093loPI   PO416808  18.685  12.764   4.780 -0.0372 -0.3300 -0.1365
 1093loPI   GL116809  18.817  12.989   5.228 -0.3304  0.3185  0.3195
 1093loPI   GL216810  18.490  13.089   5.142 -0.0290 -0.1293  0.0312
 1093loPI   C1A16811  18.863  13.212   5.648  0.4238 -0.0629  0.0949
 1093loPI   C2A16812  18.920  13.370   6.119 -0.0599 -0.2915  0.3331
 1093loPI   C3A16813  19.148  13.169   6.548 -0.1547 -0.0423  0.3177
 1093loPI   C4A16814  19.304  13.075   7.033  0.1764 -0.0205 -0.2184
 1093loPI   C5A16815  19.451  13.217   7.378 -0.1839  0.1384  0.0432
 1093loPI   C6A16816  19.576  13.597   7.609 -0.0194 -0.2457  0.0222
 1093loPI   C1B16817  18.161  12.992   5.318  0.3463 -0.0637  0.0968
 1093loPI   C2B16818  17.976  12.985   5.700 -0.0725  0.0357 -0.4288
 1093loPI   C3B16819  18.097  13.014   6.045  0.2611  0.0130 -0.1696
 1093loPI   C4B16820  18.131  13.038   6.383 -0.0610  0.2797 -0.0035
 1094loPI    C116821   0.969  14.689   5.095 -0.1733  0.0904 -0.1433
 1094loPI    C216822   0.699  14.574   5.366 -0.1336 -0.0040 -0.1434
 1094loPI    C316823   0.579  14.709   5.009 -0.1832  0.0332 -0.1127
 1094loPI   PO416824   1.133  14.800   5.192  0.0248  0.2264  0.0972
 1094loPI   GL116825   1.358  14.840   5.601  0.2749 -0.0593  0.0005
 1094loPI   GL216826   1.033  14.791   5.657 -0.1523 -0.1510 -0.0731
 1094loPI   C1A16827   1.481  14.815   6.017  0.4587 -0.3293  0.3854
 1094loPI   C2A16828   1.369  14.999   6.418  0.2548 -0.0960 -0.0388
 1094loPI   C3A16829   1.338  14.879   6.896  0.0908 -0.2366 -0.0328
 1094loPI   C4A16830   1.320  14.919   7.257  0.0180 -0.2214  0.1402
 1094loPI   C5A16831   1.314  15.297   7.456  0.0437 -0.0280 -0.0031
 1094loPI   C6A16832   1.393  15.455   7.841  0.0586 -0.5147 -0.0376
 1094loPI   C1B16833   0.971  14.822   6.151  0.0934  0.2385 -0.1315
 1094loPI   C2B16834   0.920  15.168   6.517 -0.0716 -0.2606  0.0143
 1094loPI   C3B16835   0.838  15.148   6.919  0.0868 -0.0692  0.1885
 1094loPI   C4B16836   0.370  15.159   7.181 -0.0071 -0.0126  0.2245
 1095loPI    C116837   4.800   9.469   4.419 -0.0732  0.1141  0.1835
 1095loPI    C216838   4.493   9.212   4.411 -0.0915  0.1322  0.2866
 1095loPI    C316839   4.817   9.144   4.187 -0.2285  0.1862  0.0695
 1095loPI   PO416840   4.722   9.550   4.703  0.0530  0.1201  0.1637
 1095loPI   GL116841   4.546   9.439   5.158 -0.2711 -0.2101 -0.0814
 1095loPI   GL216842   4.235   9.590   5.241  0.1689  0.0916  0.1239
 1095loPI   C1A16843   4.792   9.399   5.532  0.0657  0.1523 -0.2283
 1095loPI   C2A16844   4.789   9.498   5.922 -0.1289  0.1265 -0.0198
 1095loPI   C3A16845   4.951   9.464   6.309 -0.2287  0.2786  0.3374
 1095loPI   C4A16846   5.088   9.440   6.720 -0.2138  0.3690 -0.1999
 1095loPI   C5A16847   5.107   9.658   7.101  0.0422  0.2076 -0.3342
 1095loPI   C6A16848   5.395   9.938   7.298  0.0479 -0.0370 -0.0391
 1095loPI   C1B16849   4.287   9.514   5.598 -0.0752 -0.1049 -0.2059
 1095loPI   C2B16850   4.195   9.401   6.040 -0.0260  0.0305  0.0175
 1095loPI   C3B16851   4.405   9.586   6.293 -0.1224  0.1740  0.3197
 1095loPI   C4B16852   4.596   9.471   6.706  0.0364  0.2743  0.1123
 1096loPI    C116853  17.098  12.450   5.147 -0.0519  0.1943 -0.0353
 1096loPI    C216854  17.013  12.706   4.851 -0.1094  0.0894 -0.1099
 1096loPI    C316855  16.724  12.477   5.007 -0.0559  0.0613 -0.0511
 1096loPI   PO416856  17.296  12.612   5.330  0.5893 -0.1468  0.3645
 1096loPI   GL116857  17.678  12.410   5.316  0.0209 -0.1509  0.2267
 1096loPI   GL216858  17.567  12.207   5.632  0.2744  0.2783 -0.0350
 1096loPI   C1A16859  17.955  12.512   5.608 -0.0805  0.1116 -0.1216
 1096loPI   C2A16860  17.955  12.470   6.152  0.1539  0.1200  0.0119
 1096loPI   C3A16861  17.887  12.608   6.551 -0.0734 -0.0671 -0.0677
 1096loPI   C4A16862  17.856  12.483   7.047 -0.3464  0.1140  0.0675
 1096loPI   C5A16863  17.718  12.596   7.347  0.1753  0.1133 -0.2069
 1096loPI   C6A16864  17.568  12.727   7.767 -0.1227  0.0608  0.0152
 1096loPI   C1B16865  17.500  12.418   5.959 -0.0246  0.1504 -0.1435
 1096loPI   C2B16866  17.478  12.444   6.359 -0.1921 -0.1568 -0.1242
 1096loPI   C3B16867  17.434  12.375   6.730  0.1748 -0.3326 -0.0355
 1096loPI   C4B16868  17.385  12.154   7.138 -0.1896  0.0372  0.1522
 1097loPI    C116869  17.241  15.833   5.033 -0.1820 -0.3350  0.0394
 1097loPI    C216870  17.349  15.931   4.660  0.0148  0.0527  0.1934
 1097loPI    C316871  16.961  15.919   4.760 -0.0368 -0.0083 -0.0106
 1097loPI   PO416872  17.376  16.052   5.192  0.1735  0.2356  0.1502
 1097loPI   GL116873  17.405  15.831   5.609  0.1353  0.3085 -0.3249
 1097loPI   GL216874  17.516  16.115   5.641 -0.1398 -0.0958 -0.2093
 1097loPI   C1A16875  17.427  15.613   6.087 -0.2388  0.0260 -0.0211
 1097loPI   C2A16876  17.345  15.507   6.490 -0.1994  0.1230  0.2284
 1097loPI   C3A16877  17.290  15.359   6.857  0.2796 -0.2233  0.1865
 1097loPI   C4A16878  17.445  15.475   7.276  0.0143 -0.1891 -0.0339
 1097loPI   C5A16879  17.575  15.351   7.609 -0.4363 -0.0724 -0.2076
 1097loPI   C6A16880  17.931  15.365   7.876 -0.0969  0.0822 -0.3910
 1097loPI   C1B16881  17.480  16.100   6.092 -0.5356  0.0402  0.0235
 1097loPI   C2B16882  17.470  16.079   6.446  0.2417  0.0126 -0.1970
 1097loPI   C3B16883  17.597  16.286   6.814 -0.0934 -0.0179  0.1736
 1097loPI   C4B16884  17.752  16.288   7.280  0.1931 -0.0914 -0.1067
 1098loPI    C116885  10.971   1.777   5.175  0.0366  0.1073 -0.2065
 1098loPI    C216886  10.704   2.070   5.228  0.2793  0.3381 -0.2373
 1098loPI    C316887  10.768   1.922   4.862 -0.0258  0.0658 -0.1855
 1098loPI   PO416888  10.884   1.529   5.397  0.1319  0.0049  0.1071
 1098loPI   GL116889  10.863   1.434   5.812  0.0081  0.3665  0.3794
 1098loPI   GL216890  11.014   1.234   5.878 -0.1461  0.3449 -0.4296
 1098loPI   C1A16891  10.865   1.791   6.181 -0.2051 -0.2446  0.0025
 1098loPI   C2A16892  11.184   2.055   6.362 -0.2099 -0.0324 -0.2866
 1098loPI   C3A16893  11.300   2.008   6.823  0.1043  0.0203 -0.0852
 1098loPI   C4A16894  11.447   2.150   7.121 -0.1819 -0.5046  0.0146
 1098loPI   C5A16895  11.355   2.067   7.564  0.0079 -0.3867  0.1271
 1098loPI   C6A16896  11.360   1.805   7.915 -0.3248 -0.3898 -0.0488
 1098loPI   C1B16897  10.969   1.322   6.343 -0.1181  0.0779  0.1573
 1098loPI   C2B16898  11.041   1.197   6.814 -0.0083  0.1598  0.0670
 1098loPI   C3B16899  11.059   1.281   7.200  0.3944  0.1013  0.1153
 1098loPI   C4B16900  10.637   1.598   7.362 -0.2782  0.1070 -0.2408
 1099loPI    C116901  17.617  11.029   4.947  0.3638  0.0055 -0.0634
 1099loPI    C216902  17.660  11.175   4.577 -0.0647  0.0576 -0.0987
 1099loPI    C316903  17.794  10.808   4.665  0.0375  0.0440 -0.3044
 1099loPI   PO416904  17.325  11.092   4.988 -0.1280 -0.2520 -0.0158
 1099loPI   GL116905  17.284  11.210   5.374 -0.2593  0.1108 -0.3948
 1099loPI   GL216906  17.465  11.215   5.470  0.3598  0.1499 -0.1754
 1099loPI   C1A16907  17.245  11.257   5.869 -0.1112  0.3540  0.3502
 1099loPI   C2A16908  17.316  11.334   6.235  0.2062 -0.0356  0.0214
 1099loPI   C3A16909  17.284  11.335   6.545  0.0258  0.0361  0.1567
 1099loPI   C4A16910  17.425  11.389   6.998  0.1003 -0.2739  0.0987
 1099loPI   C5A16911  17.449  11.181   7.432  0.1131  0.3510 -0.1181
 1099loPI   C6A16912  17.629  11.021   7.704  0.0316  0.3024 -0.0871
 1099loPI   C1B16913  17.821  11.325   5.904  0.1640  0.1253 -0.0987
 1099loPI   C2B16914  17.784  11.474   6.383 -0.0503 -0.1019  0.2289
 1099loPI   C3B16915  17.889  11.356   6.786 -0.2707  0.1474  0.0912
 1099loPI   C4B16916  18.085  11.218   7.093 -0.0490  0.0117  0.1053
 1100loPI    C116917  14.804   9.653   5.105  0.0513  0.2820  0.3363
 1100loPI    C216918  14.660   9.896   4.822  0.1341  0.0561  0.0967
 1100loPI    C316919  14.454   9.840   5.160 -0.0387  0.2123  0.0192
 1100loPI   PO416920  15.054   9.685   5.272  0.0421 -0.1120  0.2747
 1100loPI   GL116921  15.292   9.491   5.633  0.0392 -0.3161  0.2138
 1100loPI   GL216922  15.010   9.441   5.736  0.0548  0.1178  0.0388
 1100loPI   C1A16923  15.348   9.431   6.083 -0.0622 -0.1347 -0.2686
 1100loPI   C2A16924  15.430   9.376   6.468 -0.1015 -0.2612 -0.0430
 1100loPI   C3A16925  15.541   9.258   6.887  0.0312 -0.0538  0.0819
 1100loPI   C4A16926  15.778   9.414   7.228  0.1199 -0.1405  0.1528
 1100loPI   C5A16927  15.705   9.705   7.629  0.0939 -0.0111  0.1309
 1100loPI   C6A16928  15.665   9.748   8.015  0.2303  0.0239 -0.0849
 1100loPI   C1B16929  14.856   9.354   6.148 -0.0638  0.0051 -0.0293
 1100loPI   C2B16930  14.546   9.109   6.294 -0.1859  0.0624  0.4209
 1100loPI   C3B16931  14.304   8.864   6.547 -0.0605 -0.0279 -0.3311
 1100loPI   C4B16932  14.030   8.705   6.797  0.0497  0.0246 -0.2503
 1101loPI    C116933  10.669   8.819   5.050  0.0035  0.0367  0.1348
 1101loPI    C216934  10.609   8.734   4.664 -0.1699  0.0007  0.1689
 1101loPI    C316935  10.583   9.112   4.791  0.1424  0.0481  0.1006
 1101loPI   PO416936  10.586   8.549   5.343 -0.0151  0.2014  0.1010
 1101loPI   GL116937  10.179   8.592   5.644 -0.0488  0.0815  0.1059
 1101loPI   GL216938  10.055   8.356   5.752 -0.2154  0.3398 -0.2424
 1101loPI   C1A16939  10.200   8.775   6.024 -0.1522  0.2668 -0.1194
 1101loPI   C2A16940   9.882   8.741   6.421 -0.0433 -0.4217  0.1806
 1101loPI   C3A16941   9.662   8.754   6.813  0.0652  0.0944 -0.0515
 1101loPI   C4A16942   9.496   8.668   7.287  0.0204  0.2149 -0.0513
 1101loPI   C5A16943   9.458   8.531   7.646 -0.0550  0.2354 -0.0845
 1101loPI   C6A16944   8.998   8.299   7.757 -0.1828  0.0241  0.0333
 1101loPI   C1B16945  10.012   8.253   6.184  0.1248  0.2016  0.0552
 1101loPI   C2B16946   9.876   8.144   6.616  0.0968  0.0942  0.1571
 1101loPI   C3B16947  10.038   8.355   7.053 -0.3796 -0.2911 -0.1109
 1101loPI   C4B16948   9.962   8.588   7.435 -0.1375 -0.0416 -0.0516
 1102loPI    C116949  11.619   8.426   4.779  0.3297 -0.7597 -0.0752
 1102loPI    C216950  11.388   8.373   4.457  0.0201 -0.0198  0.0042
 1102loPI    C316951  11.775   8.460   4.412  0.0707 -0.3114 -0.1515
 1102loPI   PO416952  11.506   8.271   4.957 -0.0349  0.0163 -0.0555
 1102loPI   GL116953  11.443   8.413   5.398  0.0038  0.3998  0.2190
 1102loPI   GL216954  11.116   8.331   5.422 -0.0917 -0.1606 -0.1459
 1102loPI   C1A16955  11.353   8.235   5.877  0.1895 -0.1735 -0.3483
 1102loPI   C2A16956  11.046   8.347   6.291  0.1533 -0.2060 -0.2505
 1102loPI   C3A16957  10.881   8.300   6.666 -0.0735  0.1143  0.0478
 1102loPI   C4A16958  10.523   8.336   6.947 -0.0378  0.0538  0.1129
 1102loPI   C5A16959  10.394   8.685   7.265 -0.1937 -0.1457 -0.0569
 1102loPI   C6A16960  10.454   9.063   7.500  0.2159 -0.0323 -0.1270
 1102loPI   C1B16961  11.145   8.641   5.764 -0.2123  0.0064 -0.3389
 1102loPI   C2B16962  10.917   8.740   6.059 -0.0801  0.1252  0.0064
 1102loPI   C3B16963  10.645   8.632   6.268 -0.1041 -0.2497 -0.1327
 1102loPI   C4B16964  10.344   8.507   6.499  0.1633 -0.1836  0.0163
 1103loPI    C116965  14.546  12.913   4.855  0.0535  0.0815  0.1706
 1103loPI    C216966  14.207  13.125   4.841 -0.0850 -0.1431  0.0546
 1103loPI    C316967  14.225  12.766   4.665  0.1396 -0.2379  0.2655
 1103loPI   PO416968  14.657  12.973   5.137 -0.1238 -0.3676  0.3969
 1103loPI   GL116969  14.530  12.962   5.555  0.1746 -0.1941  0.1196
 1103loPI   GL216970  14.522  12.606   5.474  0.1018  0.0096 -0.0312
 1103loPI   C1A16971  14.284  13.107   5.919  0.1335  0.0208 -0.0787
 1103loPI   C2A16972  14.025  13.260   6.315  0.2223  0.2854  0.0655
 1103loPI   C3A16973  13.924  13.042   6.710  0.2239 -0.0800  0.2751
 1103loPI   C4A16974  14.175  13.033   7.053 -0.0845  0.0603 -0.1565
 1103loPI   C5A16975  14.204  12.609   7.206  0.1998 -0.2069  0.0069
 1103loPI   C6A16976  14.167  12.173   7.195 -0.2370  0.2817  0.0857
 1103loPI   C1B16977  14.577  12.297   5.756  0.1472 -0.0500  0.2246
 1103loPI   C2B16978  14.752  12.117   6.081  0.0897 -0.0435 -0.1265
 1103loPI   C3B16979  14.694  11.941   6.425  0.2624  0.1247 -0.0160
 1103loPI   C4B16980  14.610  11.680   6.925  0.0699  0.1174  0.1648
 1104loPI    C116981  12.378  11.311   4.846 -0.0734 -0.0197 -0.1009
 1104loPI    C216982  12.420  11.603   4.576 -0.4039 -0.1111 -0.2560
 1104loPI    C316983  12.573  11.241   4.503  0.2404  0.0851  0.0528
 1104loPI   PO416984  12.332  11.307   5.150 -0.1274  0.0142  0.0486
 1104loPI   GL116985  12.350  11.434   5.622  0.4205  0.1006  0.2696
 1104loPI   GL216986  12.541  11.551   5.566  0.0728  0.1555 -0.1333
 1104loPI   C1A16987  12.414  11.038   5.859 -0.0206 -0.2777  0.0121
 1104loPI   C2A16988  12.347  11.079   6.298 -0.0169  0.1261 -0.1969
 1104loPI   C3A16989  12.469  10.837   6.717 -0.0321  0.1161  0.0771
 1104loPI   C4A16990  12.378  10.586   7.101  0.0391 -0.0253 -0.0105
 1104loPI   C5A16991  12.098  10.542   7.478  0.1030 -0.2703  0.0663
 1104loPI   C6A16992  11.878  10.634   7.854  0.5223 -0.2278  0.2511
 1104loPI   C1B16993  12.531  11.483   6.064  0.0218  0.1591 -0.0284
 1104loPI   C2B16994  12.628  11.558   6.502 -0.1247 -0.1944 -0.0865
 1104loPI   C3B16995  12.828  11.249   6.697 -0.0801  0.1936 -0.1051
 1104loPI   C4B16996  12.959  10.827   6.653  0.2045  0.1179  0.4070
 1105loPI    C116997  12.741   9.767   4.837  0.0880  0.0146 -0.1922
 1105loPI    C216998  12.932   9.416   4.818  0.0349 -0.0110 -0.2526
 1105loPI    C316999  12.539   9.435   4.745  0.0329  0.0573 -0.2247
 1105loPI   PO417000  12.788   9.913   5.029  0.2035  0.1372  0.1657
 1105loPI   GL117001  12.670   9.913   5.497  0.2195  0.4670 -0.2200
 1105loPI   GL217002  12.944   9.731   5.596 -0.0304  0.0288 -0.2283
 1105loPI   C1A17003  12.734  10.103   5.993  0.1637 -0.1230  0.1091
 1105loPI   C2A17004  12.884   9.815   6.396 -0.0375  0.1363  0.2504
 1105loPI   C3A17005  12.851   9.784   6.864  0.2379  0.3150 -0.3790
 1105loPI   C4A17006  13.143   9.771   7.186  0.0652 -0.0438  0.3693
 1105loPI   C5A17007  13.530   9.485   7.201  0.0496 -0.1997 -0.1427
 1105loPI   C6A17008  13.792   9.587   6.898 -0.0932 -0.0229 -0.3107
 1105loPI   C1B17009  12.668   9.602   5.946 -0.0636 -0.1748 -0.0017
 1105loPI   C2B17010  12.332   9.366   6.144 -0.3027  0.0064 -0.0249
 1105loPI   C3B17011  12.189   9.062   6.455  0.1467 -0.0163 -0.0086
 1105loPI   C4B17012  12.148   8.760   6.746 -0.0743  0.1712 -0.2313
 1106loPI    C117013  15.486   3.518   5.071  0.0012  0.3337  0.0460
 1106loPI    C217014  15.338   3.803   4.832  0.1286  0.1572 -0.2497
 1106loPI    C317015  15.664   3.598   4.722  0.0991 -0.0334  0.0067
 1106loPI   PO417016  15.428   3.673   5.348 -0.1253  0.0856 -0.1328
 1106loPI   GL117017  15.728   3.621   5.621 -0.0898 -0.2155  0.2478
 1106loPI   GL217018  15.808   3.300   5.546  0.3648  0.3024  0.0158
 1106loPI   C1A17019  15.864   3.688   6.082  0.1892 -0.1401  0.1352
 1106loPI   C2A17020  15.991   3.733   6.511 -0.0521  0.0682  0.1613
 1106loPI   C3A17021  15.953   3.915   7.003 -0.2763 -0.2048 -0.0243
 1106loPI   C4A17022  16.035   3.884   7.492 -0.0141 -0.3932  0.0383
 1106loPI   C5A17023  15.917   4.105   7.849  0.0781  0.0822 -0.2470
 1106loPI   C6A17024  15.736   4.032   8.165 -0.0627  0.0758  0.2659
 1106loPI   C1B17025  15.641   3.185   6.041 -0.1166  0.1380  0.1230
 1106loPI   C2B17026  15.680   2.901   6.463 -0.1277  0.0251 -0.0707
 1106loPI   C3B17027  15.633   2.915   6.846  0.2120  0.0701  0.0047
 1106loPI   C4B17028  15.639   2.475   7.120  0.0856  0.1309 -0.3251
 1107loPI    C117029  16.569   9.784   4.770 -0.0722  0.1947 -0.1713
 1107loPI    C217030  16.447  10.138   4.912 -0.0898  0.0709  0.1297
 1107loPI    C317031  16.382  10.043   4.529 -0.1872  0.3456  0.0759
 1107loPI   PO417032  16.673   9.705   5.037 -0.2009 -0.1773 -0.0406
 1107loPI   GL117033  16.980   9.781   5.293 -0.0509 -0.2515 -0.0200
 1107loPI   GL217034  17.225   9.536   5.415  0.0082 -0.0446 -0.0696
 1107loPI   C1A17035  17.044   9.874   5.762 -0.0055  0.1478  0.2301
 1107loPI   C2A17036  17.029   9.603   6.131  0.1648  0.0806  0.2903
 1107loPI   C3A17037  17.233   9.583   6.566 -0.0133 -0.0586  0.1467
 1107loPI   C4A17038  17.343   9.635   7.023 -0.1895  0.3223  0.2571
 1107loPI   C5A17039  17.134   9.443   7.318 -0.2417  0.1003 -0.0225
 1107loPI   C6A17040  16.859   9.700   7.562  0.0290 -0.1030  0.1572
 1107loPI   C1B17041  17.351   9.410   5.808  0.2958  0.0126 -0.0595
 1107loPI   C2B17042  17.421   9.279   6.249  0.0823  0.0631 -0.1091
 1107loPI   C3B17043  17.525   9.169   6.734  0.0744  0.1825  0.0496
 1107loPI   C4B17044  17.549   9.142   7.164 -0.1238  0.0566  0.0006
 1108loPI    C117045  13.889   9.390   5.119  0.3198 -0.0297  0.1672
 1108loPI    C217046  13.875   9.786   5.058 -0.0608 -0.0425  0.1439
 1108loPI    C317047  13.982   9.541   4.760  0.1661  0.0402  0.1556
 1108loPI   PO417048  13.661   9.312   5.237 -0.4249 -0.1780  0.3362
 1108loPI   GL117049  13.549   9.200   5.499  0.0330 -0.0317  0.0650
 1108loPI   GL217050  13.557   8.923   5.690 -0.0986  0.0353  0.1762
 1108loPI   C1A17051  13.637   9.431   5.956  0.0464 -0.0504  0.1404
 1108loPI   C2A17052  13.990   9.441   6.352  0.2029  0.0764  0.2769
 1108loPI   C3A17053  14.175   9.325   6.713 -0.2608 -0.0479  0.0210
 1108loPI   C4A17054  14.141   9.316   7.214  0.3402  0.2628  0.2777
 1108loPI   C5A17055  14.011   9.393   7.563  0.0544 -0.1204  0.0837
 1108loPI   C6A17056  13.685   9.628   7.712  0.2402 -0.0504 -0.0555
 1108loPI   C1B17057  13.426   9.010   6.133 -0.1954  0.1263 -0.0503
 1108loPI   C2B17058  13.445   9.331   6.425 -0.0673 -0.1460  0.0556
 1108loPI   C3B17059  13.187   9.439   6.825  0.0460  0.3417 -0.0202
 1108loPI   C4B17060  12.851   9.359   7.150  0.1100  0.1535  0.0515
 1109loPI    C117061  13.092   3.401   5.485  0.2247 -0.0927 -0.1614
 1109loPI    C217062  12.969   3.494   5.116 -0.0863 -0.0522 -0.0510
 1109loPI    C317063  12.812   3.179   5.305 -0.1493  0.1038  0.1613
 1109loPI   PO417064  13.071   3.583   5.570  0.1643  0.0874  0.0246
 1109loPI   GL117065  12.969   3.831   5.886  0.3188  0.0969 -0.2409
 1109loPI   GL217066  13.104   4.054   6.065  0.0453 -0.2569  0.0129
 1109loPI   C1A17067  12.622   3.885   6.157  0.2023  0.0287 -0.1394
 1109loPI   C2A17068  12.729   3.898   6.503 -0.0688  0.1100 -0.1374
 1109loPI   C3A17069  12.568   3.882   6.844 -0.0756 -0.3403 -0.3147
 1109loPI   C4A17070  12.648   3.868   7.243 -0.0106 -0.1448 -0.1195
 1109loPI   C5A17071  12.657   3.627   7.721 -0.2618 -0.0179  0.0392
 1109loPI   C6A17072  12.741   3.337   8.014  0.0140  0.1936  0.0896
 1109loPI   C1B17073  13.228   4.168   6.446  0.2901 -0.1320  0.0387
 1109loPI   C2B17074  13.307   4.314   6.866  0.0232  0.3486  0.0653
 1109loPI   C3B17075  13.282   4.295   7.371 -0.2505 -0.1542  0.3172
 1109loPI   C4B17076  13.300   4.003   7.736  0.3775 -0.0849 -0.1987
 1110loPI    C117077  12.630  17.145   4.838  0.0733 -0.1134  0.2394
 1110loPI    C217078  12.234  17.114   4.890  0.0253  0.0115 -0.0351
 1110loPI    C317079  12.380  17.287   4.560  0.3119 -0.2421 -0.0457
 1110loPI   PO417080  12.662  17.262   5.135  0.1332  0.0662  0.1020
 1110loPI   GL117081  12.962  17.361   5.405  0.1539  0.1978 -0.2194
 1110loPI   GL217082  12.658  17.472   5.547 -0.3214 -0.0108  0.1604
 1110loPI   C1A17083  13.081  17.630   5.800 -0.0006 -0.3412  0.2096
 1110loPI   C2A17084  13.156  17.792   6.114  0.1590  0.1878 -0.0551
 1110loPI   C3A17085  13.209  17.943   6.520  0.0249 -0.3283 -0.0707
 1110loPI   C4A17086  13.078  17.804   6.869  0.0745 -0.0022 -0.1362
 1110loPI   C5A17087  13.264  17.704   7.302  0.0886 -0.3789  0.0067
 1110loPI   C6A17088  13.397  17.837   7.624 -0.2654  0.0902 -0.0490
 1110loPI   C1B17089  12.615  17.525   6.007  0.1202 -0.0962  0.1400
 1110loPI   C2B17090  12.722  17.675   6.396 -0.0805 -0.0281 -0.0083
 1110loPI   C3B17091  12.612  17.860   6.652 -0.1754  0.3595 -0.2674
 1110loPI   C4B17092  12.513  17.693   6.985 -0.1057 -0.1716 -0.1587
 1111loPI    C117093   8.754  16.616   4.782 -0.1601  0.3426  0.0131
 1111loPI    C217094   9.094  16.701   4.975 -0.0940 -0.0234  0.0633
 1111loPI    C317095   9.059  16.785   4.585  0.0237  0.0905  0.0768
 1111loPI   PO417096   8.675  16.326   4.944 -0.0769 -0.0010 -0.3267
 1111loPI   GL117097   8.544  16.307   5.299  0.5408 -0.3745  0.1584
 1111loPI   GL217098   8.431  15.999   5.504 -0.3495  0.4068  0.0954
 1111loPI   C1A17099   8.656  16.508   5.683 -0.1787 -0.0933 -0.0462
 1111loPI   C2A17100   8.951  16.495   5.956  0.1599  0.2764 -0.1889
 1111loPI   C3A17101   9.070  16.411   6.409  0.6995  0.1041  0.2258
 1111loPI   C4A17102   9.017  16.378   6.742 -0.0176  0.0978  0.0017
 1111loPI   C5A17103   9.159  16.429   7.176  0.0631 -0.0218  0.2509
 1111loPI   C6A17104   9.202  16.568   7.679 -0.1836 -0.0957 -0.0871
 1111loPI   C1B17105   8.498  16.080   5.945 -0.2963 -0.0151  0.0802
 1111loPI   C2B17106   8.531  16.401   6.168  0.2186 -0.0909 -0.1013
 1111loPI   C3B17107   8.572  16.569   6.595  0.2094  0.6302 -0.2045
 1111loPI   C4B17108   8.260  16.861   6.764 -0.0154 -0.1575  0.0141
 1112loPI    C117109   6.675   6.167   4.938  0.0563 -0.1893 -0.0952
 1112loPI    C217110   6.615   6.160   4.543  0.0069  0.0395 -0.0935
 1112loPI    C317111   6.879   6.416   4.700  0.2251 -0.2368 -0.0019
 1112loPI   PO417112   6.516   6.193   5.111 -0.3195  0.0493 -0.0947
 1112loPI   GL117113   6.415   6.128   5.581 -0.0031 -0.0634 -0.1411
 1112loPI   GL217114   6.168   5.993   5.696  0.1937 -0.2198 -0.1667
 1112loPI   C1A17115   6.711   6.177   6.029 -0.4427 -0.3102 -0.0884
 1112loPI   C2A17116   6.738   6.284   6.445  0.0452 -0.2841  0.2423
 1112loPI   C3A17117   6.712   6.248   6.869 -0.3287 -0.0183 -0.0156
 1112loPI   C4A17118   6.651   6.270   7.319  0.1705  0.1700 -0.4169
 1112loPI   C5A17119   6.736   6.339   7.811  0.3029  0.1952  0.1435
 1112loPI   C6A17120   6.395   6.285   8.061  0.1158 -0.2143  0.2064
 1112loPI   C1B17121   6.233   6.174   6.074 -0.0393 -0.0713 -0.0504
 1112loPI   C2B17122   6.227   6.287   6.498  0.1321  0.1776  0.0752
 1112loPI   C3B17123   6.270   6.461   6.862  0.0942 -0.0372 -0.0694
 1112loPI   C4B17124   6.600   6.692   7.040  0.0542 -0.0911  0.0285
 1113loPI    C117125   3.832   9.606   4.764  0.0646 -0.0438 -0.1019
 1113loPI    C217126   4.226   9.558   4.712  0.0732  0.0313 -0.1063
 1113loPI    C317127   3.973   9.272   4.594  0.1344 -0.0718  0.0104
 1113loPI   PO417128   3.785   9.591   5.022 -0.0993  0.3567 -0.0355
 1113loPI   GL117129   3.766   9.206   5.206  0.3615  0.1511  0.0177
 1113loPI   GL217130   3.610   8.919   5.317 -0.1860  0.1504  0.1303
 1113loPI   C1A17131   3.707   9.383   5.569  0.0379  0.2703  0.1193
 1113loPI   C2A17132   3.651   9.400   6.027  0.0196  0.0229 -0.1121
 1113loPI   C3A17133   3.754   9.447   6.363 -0.1149 -0.0234 -0.1469
 1113loPI   C4A17134   3.713   9.525   6.756  0.2396  0.2246 -0.0222
 1113loPI   C5A17135   3.541   9.622   7.160  0.1626 -0.0497  0.1219
 1113loPI   C6A17136   3.281   9.576   7.493  0.1790  0.1541  0.2013
 1113loPI   C1B17137   3.393   8.960   5.821 -0.0391 -0.1663 -0.0981
 1113loPI   C2B17138   3.235   8.943   6.261  0.0012 -0.1609 -0.0153
 1113loPI   C3B17139   3.159   9.085   6.634  0.4409 -0.1234  0.0311
 1113loPI   C4B17140   2.857   9.006   6.973 -0.2421 -0.1232  0.1174
 1114loPI    C117141  11.252   2.152   4.985 -0.0990 -0.0833  0.1441
 1114loPI    C217142  10.958   2.423   4.994  0.0278  0.0518  0.2934
 1114loPI    C317143  11.293   2.499   4.790 -0.2159 -0.2901 -0.2597
 1114loPI   PO417144  11.321   2.164   5.248  0.2724 -0.0327 -0.4739
 1114loPI   GL117145  11.061   2.245   5.617 -0.2393  0.0735 -0.1511
 1114loPI   GL217146  11.031   1.865   5.717  0.0114 -0.1870 -0.0496
 1114loPI   C1A17147  11.413   2.219   5.971  0.0334  0.3818  0.0114
 1114loPI   C2A17148  11.519   2.449   6.383 -0.1487  0.0418  0.0723
 1114loPI   C3A17149  11.769   2.340   6.678 -0.3421 -0.0080  0.2505
 1114loPI   C4A17150  12.068   2.298   7.033  0.1320 -0.0987  0.0308
 1114loPI   C5A17151  12.336   2.113   7.349  0.0361 -0.2102  0.0223
 1114loPI   C6A17152  12.340   1.756   7.689 -0.0588  0.1094 -0.0556
 1114loPI   C1B17153  11.299   1.637   6.039  0.1853  0.2055  0.0126
 1114loPI   C2B17154  11.329   1.609   6.544 -0.2538 -0.2046 -0.2473
 1114loPI   C3B17155  11.400   1.504   6.947 -0.2246 -0.2224  0.1681
 1114loPI   C4B17156  11.415   1.590   7.380  0.1052  0.0847  0.4465
 1115loPI    C117157   3.675   8.211   4.539 -0.0262 -0.1898  0.0649
 1115loPI    C217158   3.945   8.272   4.251 -0.0227  0.1039  0.1265
 1115loPI    C317159   3.686   7.968   4.222  0.1478 -0.0267 -0.0563
 1115loPI   PO417160   3.707   8.398   4.678 -0.1237 -0.0108 -0.0229
 1115loPI   GL117161   3.726   8.315   5.150  0.1217 -0.0405  0.0235
 1115loPI   GL217162   3.515   8.384   5.330 -0.2751 -0.2219 -0.0579
 1115loPI   C1A17163   3.915   8.082   5.412 -0.0097  0.0188  0.3364
 1115loPI   C2A17164   4.001   8.187   5.872  0.2559 -0.3446  0.0993
 1115loPI   C3A17165   3.905   8.316   6.268 -0.0604 -0.2448 -0.1130
 1115loPI   C4A17166   3.929   8.536   6.592 -0.2832  0.0794 -0.1135
 1115loPI   C5A17167   3.896   8.771   6.919 -0.1300 -0.0459  0.4069
 1115loPI   C6A17168   3.761   9.171   7.165  0.1252 -0.3784 -0.3925
 1115loPI   C1B17169   3.530   8.401   5.759 -0.0580  0.3239  0.1570
 1115loPI   C2B17170   3.470   8.377   6.183 -0.0460  0.1867 -0.1085
 1115loPI   C3B17171   3.424   8.554   6.581 -0.0508 -0.1526  0.6044
 1115loPI   C4B17172   3.346   8.696   7.062 -0.1686 -0.1271  0.2305
 1116loPI    C117173  16.055   0.564   4.871 -0.2221 -0.1401 -0.0972
 1116loPI    C217174  15.831   0.707   4.573  0.0942  0.3584 -0.1090
 1116loPI    C317175  16.222   0.645   4.517  0.0725  0.0282  0.0758
 1116loPI   PO417176  15.871   0.579   5.134 -0.2022  0.3635 -0.0117
 1116loPI   GL117177  15.875   0.895   5.418  0.2409  0.1424 -0.1971
 1116loPI   GL217178  15.524   0.809   5.430 -0.2967 -0.1346  0.2863
 1116loPI   C1A17179  16.074   1.203   5.655  0.2226  0.0765 -0.0001
 1116loPI   C2A17180  16.477   1.117   5.979 -0.0156 -0.2661  0.2902
 1116loPI   C3A17181  16.718   1.004   6.334 -0.3306  0.2424  0.1285
 1116loPI   C4A17182  16.633   0.968   6.788 -0.0705  0.0327  0.3994
 1116loPI   C5A17183  16.291   0.865   6.954  0.3196 -0.0080  0.1292
 1116loPI   C6A17184  16.238   0.608   7.302  0.2654  0.2061  0.2019
 1116loPI   C1B17185  15.678   0.834   5.894 -0.0892  0.1959  0.0969
 1116loPI   C2B17186  16.004   0.884   6.137  0.0479  0.0854 -0.2105
 1116loPI   C3B17187  16.228   1.134   6.495 -0.2322  0.1046  0.0214
 1116loPI   C4B17188  16.394   1.485   6.394  0.1153  0.2627  0.1368
 1117loPI    C117189  18.139  15.556   4.995  0.0752  0.0110 -0.1143
 1117loPI    C217190  18.372  15.610   4.674  0.3961 -0.2063  0.0762
 1117loPI    C317191  18.124  15.297   4.691 -0.2929  0.2869 -0.3407
 1117loPI   PO417192  18.195  15.579   5.193 -0.1964 -0.0431 -0.0901
 1117loPI   GL117193  18.110  15.593   5.579  0.0444  0.0250  0.0127
 1117loPI   GL217194  17.891  15.807   5.677  0.2312 -0.0300 -0.2213
 1117loPI   C1A17195  18.382  15.553   5.950 -0.1966  0.0019 -0.1908
 1117loPI   C2A17196  18.375  15.495   6.360  0.1285 -0.0538 -0.1099
 1117loPI   C3A17197  18.427  15.531   6.850 -0.2114 -0.2569  0.5152
 1117loPI   C4A17198  18.711  15.558   7.151  0.0230 -0.0142  0.1146
 1117loPI   C5A17199  18.836  15.401   7.468  0.0311 -0.2780  0.0417
 1117loPI   C6A17200  19.209  15.393   7.666  0.1146 -0.0857  0.0211
 1117loPI   C1B17201  17.864  15.779   6.054  0.0622  0.1488  0.0873
 1117loPI   C2B17202  17.880  15.728   6.500  0.0090  0.0710  0.0201
 1117loPI   C3B17203  17.624  15.769   6.890 -0.0256 -0.2795 -0.0797
 1117loPI   C4B17204  17.314  15.947   7.009  0.3182 -0.0675 -0.3116
 1118loPI    C117205   6.569   5.679   4.765 -0.2311  0.1388  0.0697
 1118loPI    C217206   6.190   5.550   4.767 -0.1163 -0.2141 -0.0291
 1118loPI    C317207   6.424   5.478   4.451  0.0089  0.0838 -0.0081
 1118loPI   PO417208   6.620   5.674   4.995 -0.0674 -0.0012 -0.0899
 1118loPI   GL117209   6.672   5.685   5.448  0.1340 -0.3434 -0.0257
 1118loPI   GL217210   6.585   5.483   5.483  0.0260 -0.2355 -0.0692
 1118loPI   C1A17211   6.589   5.760   5.892  0.0454 -0.0848 -0.1899
 1118loPI   C2A17212   6.514   5.832   6.367  0.0283  0.1117  0.2701
 1118loPI   C3A17213   6.703   5.788   6.635 -0.2975 -0.1369  0.1331
 1118loPI   C4A17214   6.945   5.854   7.101  0.0760  0.1918  0.3063
 1118loPI   C5A17215   6.858   5.762   7.530 -0.2842 -0.4931  0.0937
 1118loPI   C6A17216   7.122   6.021   7.858 -0.0121  0.0842 -0.2880
 1118loPI   C1B17217   6.376   5.330   5.836  0.0748  0.1553  0.1237
 1118loPI   C2B17218   6.335   5.319   6.238 -0.2078 -0.0798  0.1563
 1118loPI   C3B17219   6.415   5.364   6.659 -0.0201  0.2340 -0.2069
 1118loPI   C4B17220   6.612   5.478   7.040  0.1312 -0.2434 -0.0567
 1119loPI    C117221   8.990  13.827   4.886  0.0719  0.0307  0.4938
 1119loPI    C217222   8.884  13.443   4.843  0.2333  0.0146  0.2181
 1119loPI    C317223   9.217  13.579   4.669  0.0368  0.3434  0.0890
 1119loPI   PO417224   8.995  13.893   5.171  0.0882  0.1703 -0.2310
 1119loPI   GL117225   8.810  13.759   5.632 -0.2165 -0.1323  0.0851
 1119loPI   GL217226   9.044  14.006   5.909  0.0944  0.0419 -0.0348
 1119loPI   C1A17227   8.772  13.515   6.015 -0.1485  0.2459  0.2339
 1119loPI   C2A17228   8.668  13.414   6.391 -0.0247  0.3217  0.1314
 1119loPI   C3A17229   8.681  13.413   6.832  0.0979  0.1891 -0.1784
 1119loPI   C4A17230   8.512  13.621   7.189  0.1436 -0.1422  0.3177
 1119loPI   C5A17231   8.458  13.695   7.675  0.2383  0.3062 -0.0740
 1119loPI   C6A17232   8.235  13.889   7.949 -0.0587  0.0181  0.1972
 1119loPI   C1B17233   8.903  13.883   6.393  0.3639  0.1630 -0.0182
 1119loPI   C2B17234   8.693  13.960   6.894 -0.2955 -0.0104 -0.0762
 1119loPI   C3B17235   8.637  14.070   7.365 -0.1460  0.1662 -0.1386
 1119loPI   C4B17236   8.669  14.325   7.704  0.0222 -0.1375  0.0005
 1120loPI    C117237  14.819  17.691   4.881  0.0241  0.1654  0.0836
 1120loPI    C217238  15.183  17.553   4.794  0.0094  0.1152  0.1012
 1120loPI    C317239  14.889  17.526   4.524  0.0177  0.1518  0.0887
 1120loPI   PO417240  14.696  17.506   5.059  0.1410  0.1782 -0.1853
 1120loPI   GL117241  14.416  17.614   5.305  0.2105 -0.0977 -0.0178
 1120loPI   GL217242  14.231  17.909   5.429 -0.0168  0.2637  0.0198
 1120loPI   C1A17243  14.452  17.671   5.806 -0.0009 -0.0568  0.0195
 1120loPI   C2A17244  14.626  17.964   6.129  0.0422 -0.0306 -0.1113
 1120loPI   C3A17245  14.703  18.124   6.520 -0.2920  0.1395  0.0081
 1120loPI   C4A17246  14.858  18.132   6.934 -0.2194 -0.2882 -0.4607
 1120loPI   C5A17247  14.783  17.821   7.261 -0.0807  0.1824 -0.0529
 1120loPI   C6A17248  14.679  17.773   7.671 -0.0574  0.3445  0.1505
 1120loPI   C1B17249  13.997  18.007   5.812  0.1572  0.1093 -0.3608
 1120loPI   C2B17250  14.140  18.072   6.266  0.0035  0.1413 -0.1321
 1120loPI   C3B17251  14.127  18.015   6.729  0.0934  0.0513 -0.2836
 1120loPI   C4B17252  14.332  18.136   7.079 -0.1679 -0.1494  0.0737
 1121loPI    C117253  11.373   4.975   5.289 -0.0252 -0.3415  0.3186
 1121loPI    C217254  11.754   4.933   5.174 -0.0992  0.2317 -0.1914
 1121loPI    C317255  11.459   4.880   4.910 -0.3858 -0.2191  0.2023
 1121loPI   PO417256  11.377   4.863   5.545  0.0212  0.4305  0.0042
 1121loPI   GL117257  11.089   4.683   5.855 -0.1598  0.1083  0.1481
 1121loPI   GL217258  11.145   4.581   6.142  0.0882  0.3706 -0.0529
 1121loPI   C1A17259  10.711   4.867   6.081 -0.2587 -0.0939 -0.0540
 1121loPI   C2A17260  10.471   5.165   6.404  0.0032 -0.0052  0.1202
 1121loPI   C3A17261  10.546   4.991   6.820  0.3094  0.0619 -0.0511
 1121loPI   C4A17262  10.497   5.287   7.185 -0.1116  0.1107 -0.1607
 1121loPI   C5A17263  10.384   5.445   7.514 -0.1555 -0.2190 -0.3867
 1121loPI   C6A17264  10.276   5.851   7.648 -0.1001  0.2159 -0.0077
 1121loPI   C1B17265  11.357   4.822   6.470 -0.1821  0.0249  0.0834
 1121loPI   C2B17266  11.365   4.967   6.901 -0.4686 -0.1197  0.0229
 1121loPI   C3B17267  11.386   5.323   7.280 -0.5038  0.1076 -0.0797
 1121loPI   C4B17268  11.154   5.721   7.571 -0.0872 -0.1725 -0.0047
 1122loPI    C117269  10.801   2.895   5.220  0.1073 -0.0170  0.2075
 1122loPI    C217270  11.118   3.035   5.019  0.0680  0.0742  0.2090
 1122loPI    C317271  10.760   3.015   4.840  0.0837 -0.0710  0.1929
 1122loPI   PO417272  10.809   2.978   5.433  0.0751 -0.0546  0.1013
 1122loPI   GL117273  10.998   2.777   5.737 -0.2718  0.2999  0.0027
 1122loPI   GL217274  11.196   2.687   5.956  0.1602 -0.0256  0.0040
 1122loPI   C1A17275  10.765   2.902   6.086 -0.0585  0.0004 -0.3833
 1122loPI   C2A17276  10.695   3.009   6.504  0.1241 -0.0339 -0.2572
 1122loPI   C3A17277  10.506   3.140   6.902  0.0558 -0.2174  0.3371
 1122loPI   C4A17278  10.614   3.352   7.141  0.1131 -0.1409 -0.2454
 1122loPI   C5A17279  10.689   3.358   7.490  0.0447 -0.0823 -0.3577
 1122loPI   C6A17280  10.558   3.095   7.721  0.2179  0.0583  0.3309
 1122loPI   C1B17281  11.022   2.517   6.307  0.0108  0.1230 -0.0092
 1122loPI   C2B17282  11.122   2.432   6.747  0.1865 -0.3983 -0.2150
 1122loPI   C3B17283  11.026   2.490   7.144  0.2272  0.1512 -0.0166
 1122loPI   C4B17284  11.018   2.412   7.492 -0.3422  0.1797  0.2955
 1123loPI    C117285  10.696  14.110   5.092 -0.0789 -0.1277  0.0200
 1123loPI    C217286  10.749  13.730   5.204 -0.3033 -0.1423  0.0806
 1123loPI    C317287  10.465  13.822   4.938 -0.3237 -0.0038  0.1493
 1123loPI   PO417288  10.709  14.255   5.307 -0.0905 -0.0622  0.1225
 1123loPI   GL117289  10.607  14.159   5.800 -0.1175  0.3122  0.0690
 1123loPI   GL217290  10.499  13.869   5.645 -0.1895  0.4595 -0.1184
 1123loPI   C1A17291  10.575  14.142   6.252  0.2262  0.1360  0.2979
 1123loPI   C2A17292  10.819  14.199   6.670 -0.0552 -0.1600 -0.3355
 1123loPI   C3A17293  10.810  14.102   7.197 -0.1152 -0.1082 -0.0587
 1123loPI   C4A17294  10.627  13.956   7.504 -0.2401  0.2658  0.0825
 1123loPI   C5A17295  10.416  14.046   7.881  0.2155 -0.2568  0.2257
 1123loPI   C6A17296  10.468  13.955   8.222 -0.0891 -0.1702  0.2031
 1123loPI   C1B17297  10.530  13.641   6.024 -0.0102 -0.1539 -0.1350
 1123loPI   C2B17298  10.190  13.400   6.150  0.1227  0.1363 -0.0400
 1123loPI   C3B17299  10.096  13.445   6.648 -0.3861  0.0237  0.3970
 1123loPI   C4B17300  10.064  13.445   7.044 -0.0287  0.1151  0.1864
 1124loPI    C117301   1.267  14.798   4.682  0.1760  0.0198  0.1540
 1124loPI    C217302   1.480  14.800   4.343 -0.0886 -0.1090 -0.0160
 1124loPI    C317303   1.200  15.078   4.405 -0.0120 -0.0605  0.1171
 1124loPI   PO417304   1.297  14.471   4.734 -0.3238 -0.2087 -0.1315
 1124loPI   GL117305   1.335  14.272   5.159  0.0966 -0.4051  0.0277
 1124loPI   GL217306   1.130  14.306   5.404 -0.1513 -0.1057 -0.2159
 1124loPI   C1A17307   1.544  14.044   5.514  0.1540  0.0415 -0.0026
 1124loPI   C2A17308   1.755  14.043   5.956 -0.2638  0.0348 -0.3411
 1124loPI   C3A17309   1.615  13.977   6.449  0.0042  0.0935 -0.0702
 1124loPI   C4A17310   1.504  13.938   6.925  0.0733 -0.0462 -0.1827
 1124loPI   C5A17311   1.423  14.046   7.297  0.0876  0.0232  0.0781
 1124loPI   C6A17312   1.613  13.924   7.549 -0.0729 -0.2303  0.1351
 1124loPI   C1B17313   1.315  14.416   5.835  0.0340 -0.0627 -0.1547
 1124loPI   C2B17314   1.252  14.314   6.251  0.2861  0.1413  0.0470
 1124loPI   C3B17315   1.115  14.114   6.619  0.0565 -0.3886  0.0147
 1124loPI   C4B17316   1.013  13.917   6.966  0.1302  0.0927  0.0392
 1125loPI    C117317   4.810  14.934   4.536  0.2554 -0.1332  0.0197
 1125loPI    C217318   4.636  14.579   4.595 -0.0677 -0.0104 -0.1657
 1125loPI    C317319   4.842  14.648   4.259  0.1814 -0.0910 -0.0327
 1125loPI   PO417320   4.934  14.960   4.774 -0.0143 -0.3860 -0.2027
 1125loPI   GL117321   4.593  15.011   5.161  0.2679 -0.1376 -0.0753
 1125loPI   GL217322   4.830  15.185   5.191 -0.0558  0.1607  0.0338
 1125loPI   C1A17323   4.469  14.660   5.485  0.0424  0.0377  0.1348
 1125loPI   C2A17324   4.541  14.692   5.938 -0.3631  0.1577  0.1120
 1125loPI   C3A17325   4.696  14.765   6.334 -0.0094 -0.0955  0.3938
 1125loPI   C4A17326   4.864  14.818   6.746  0.0983  0.1265  0.0380
 1125loPI   C5A17327   5.080  14.965   7.015 -0.1462 -0.3695 -0.3570
 1125loPI   C6A17328   5.419  14.971   7.262  0.1662 -0.0246  0.0015
 1125loPI   C1B17329   4.781  15.060   5.684  0.1207 -0.0573 -0.1457
 1125loPI   C2B17330   4.785  15.204   6.147  0.2829  0.0601  0.7220
 1125loPI   C3B17331   4.618  15.287   6.580  0.0306 -0.1690  0.1214
 1125loPI   C4B17332   4.522  15.178   6.938  0.0568  0.1676 -0.1719
 1126loPI    C117333   3.645   2.122   5.228  0.0417  0.1812  0.0756
 1126loPI    C217334   3.724   2.341   5.553 -0.0782 -0.1507  0.3346
 1126loPI    C317335   4.023   2.220   5.317  0.0070  0.1148  0.3027
 1126loPI   PO417336   3.451   1.964   5.350 -0.0502 -0.1125  0.0487
 1126loPI   GL117337   3.460   1.939   5.829  0.0451 -0.0664 -0.3286
 1126loPI   GL217338   3.810   1.769   5.929 -0.1244 -0.4278  0.2520
 1126loPI   C1A17339   3.364   1.730   6.343 -0.0495  0.1719 -0.1521
 1126loPI   C2A17340   3.338   1.479   6.724 -0.0656 -0.1136 -0.0152
 1126loPI   C3A17341   3.255   1.195   7.031 -0.1067  0.1133 -0.0894
 1126loPI   C4A17342   3.006   1.170   7.340  0.0068 -0.0847  0.3152
 1126loPI   C5A17343   2.961   1.038   7.841 -0.2682 -0.0762  0.1652
 1126loPI   C6A17344   3.186   0.877   8.169  0.2239 -0.3321 -0.2866
 1126loPI   C1B17345   4.185   1.731   6.207 -0.0172 -0.3053  0.2787
 1126loPI   C2B17346   4.321   1.413   6.565 -0.1991  0.1226 -0.0681
 1126loPI   C3B17347   4.696   1.470   6.856 -0.0732 -0.1182  0.0125
 1126loPI   C4B17348   4.627   1.384   7.269  0.0290 -0.2232 -0.0828
 1127loPI    C117349   4.773  12.954   4.684  0.2172  0.0837 -0.1038
 1127loPI    C217350   5.119  13.141   4.613  0.2293 -0.0065 -0.2896
 1127loPI    C317351   4.977  12.877   4.348  0.0149  0.0345 -0.2171
 1127loPI   PO417352   4.767  12.990   4.990  0.0609  0.1459  0.0641
 1127loPI   GL117353   4.833  12.924   5.390  0.0709 -0.1804  0.1613
 1127loPI   GL217354   4.708  12.721   5.371  0.0828  0.0684  0.0368
 1127loPI   C1A17355   4.934  13.039   5.732 -0.3948 -0.0405 -0.3338
 1127loPI   C2A17356   4.868  12.884   6.114 -0.1252 -0.1390  0.0875
 1127loPI   C3A17357   4.947  12.955   6.591  0.0513  0.0332  0.1786
 1127loPI   C4A17358   5.068  13.092   6.907  0.2085 -0.1012  0.0765
 1127loPI   C5A17359   5.386  12.969   7.240  0.0809 -0.0140 -0.0045
 1127loPI   C6A17360   5.727  13.238   7.395 -0.3540 -0.0608  0.0168
 1127loPI   C1B17361   4.586  12.589   5.748 -0.1497 -0.4918 -0.0960
 1127loPI   C2B17362   4.603  12.501   6.266 -0.0324  0.0904  0.1417
 1127loPI   C3B17363   4.573  12.552   6.688 -0.0487 -0.1288 -0.0322
 1127loPI   C4B17364   4.518  12.390   7.169 -0.0020 -0.4248 -0.1064
 1128loPI    C117365  18.111   8.536   4.708  0.0632 -0.1170 -0.0129
 1128loPI    C217366  18.255   8.909   4.719 -0.0189 -0.0899  0.1755
 1128loPI    C317367  18.500   8.599   4.781  0.0987 -0.0827 -0.2275
 1128loPI   PO417368  17.896   8.565   4.878  0.2253 -0.1695  0.1250
 1128loPI   GL117369  17.961   8.668   5.387 -0.2338  0.2121  0.1878
 1128loPI   GL217370  18.280   8.754   5.230 -0.0297  0.1646  0.0496
 1128loPI   C1A17371  17.990   8.555   5.829  0.1373 -0.1304  0.2513
 1128loPI   C2A17372  18.211   8.578   6.183  0.1662 -0.2082  0.0070
 1128loPI   C3A17373  18.263   8.615   6.580 -0.1050  0.3357  0.0192
 1128loPI   C4A17374  18.274   8.514   7.015  0.1279 -0.0089 -0.2663
 1128loPI   C5A17375  18.226   8.652   7.408  0.0800  0.2050 -0.2325
 1128loPI   C6A17376  18.440   8.940   7.786  0.1021  0.0997  0.1088
 1128loPI   C1B17377  18.419   8.846   5.675 -0.0916 -0.2649 -0.0278
 1128loPI   C2B17378  18.360   9.053   6.193  0.0200 -0.2459  0.0365
 1128loPI   C3B17379  17.986   9.065   6.597  0.0830  0.2442 -0.1451
 1128loPI   C4B17380  17.869   8.771   6.971 -0.0738  0.2769  0.1255
 1129loPI    C117381   6.809   4.861   5.025 -0.1300 -0.1619 -0.0677
 1129loPI    C217382   6.989   4.508   5.073 -0.2359 -0.1964  0.0837
 1129loPI    C317383   6.973   4.677   4.711  0.0864 -0.1993  0.0654
 1129loPI   PO417384   6.659   4.893   5.341 -0.1893  0.1709  0.3133
 1129loPI   GL117385   6.624   4.910   5.776  0.2059  0.1355 -0.1306
 1129loPI   GL217386   6.889   5.171   5.678 -0.2607  0.0882 -0.0102
 1129loPI   C1A17387   6.628   4.933   6.066 -0.0657 -0.4525  0.0525
 1129loPI   C2A17388   6.611   4.958   6.497  0.2138  0.4394  0.3333
 1129loPI   C3A17389   6.665   5.003   6.926  0.0037  0.0357  0.2147
 1129loPI   C4A17390   6.594   5.102   7.378 -0.4203  0.0174  0.0180
 1129loPI   C5A17391   6.652   5.304   7.765  0.3492  0.0910  0.4019
 1129loPI   C6A17392   6.617   5.422   8.186  0.3171 -0.0337 -0.1295
 1129loPI   C1B17393   6.799   5.340   6.059 -0.1423 -0.2117 -0.1718
 1129loPI   C2B17394   7.033   5.341   6.510  0.2220 -0.4068 -0.1144
 1129loPI   C3B17395   7.101   5.244   6.933 -0.5509 -0.1578  0.2250
 1129loPI   C4B17396   7.492   5.073   6.973  0.1699 -0.1493 -0.2386
 1130loPI    C117397   5.164  16.963   4.911 -0.1257  0.0642  0.2785
 1130loPI    C217398   5.522  17.087   5.040 -0.0287  0.1831 -0.0910
 1130loPI    C317399   5.478  16.964   4.662 -0.3539  0.0545 -0.0148
 1130loPI   PO417400   5.127  16.755   5.139 -0.0575  0.0160 -0.0425
 1130loPI   GL117401   5.310  16.653   5.453  0.1716 -0.3769 -0.1963
 1130loPI   GL217402   5.159  16.409   5.610  0.0345  0.0606  0.0457
 1130loPI   C1A17403   5.330  16.828   5.851  0.3423 -0.4431  0.0053
 1130loPI   C2A17404   5.088  17.038   6.195  0.1968  0.0349  0.0409
 1130loPI   C3A17405   5.185  17.205   6.606 -0.1972  0.4053  0.1855
 1130loPI   C4A17406   5.099  17.348   7.031 -0.0490 -0.2721 -0.0998
 1130loPI   C5A17407   5.061  17.240   7.482 -0.2979  0.1128  0.0022
 1130loPI   C6A17408   5.144  17.526   7.792 -0.0367  0.0402 -0.0698
 1130loPI   C1B17409   5.494  16.267   5.972 -0.1940  0.0676 -0.0158
 1130loPI   C2B17410   5.252  16.531   6.280 -0.3558 -0.1582  0.2631
 1130loPI   C3B17411   5.174  16.336   6.687  0.2415 -0.1221 -0.0479
 1130loPI   C4B17412   5.234  16.425   7.135  0.2114 -0.3108  0.1154
 1131loPI    C117413   5.972   9.124   5.050 -0.3367  0.1261 -0.0541
 1131loPI    C217414   5.975   9.095   4.651 -0.0919 -0.2731 -0.0289
 1131loPI    C317415   6.142   9.411   4.830 -0.4876  0.0692 -0.2476
 1131loPI   PO417416   6.100   8.875   5.079  0.0505 -0.0687 -0.0611
 1131loPI   GL117417   5.989   8.701   5.455 -0.1208 -0.0856 -0.1524
 1131loPI   GL217418   5.650   8.672   5.345  0.1526  0.1296  0.0889
 1131loPI   C1A17419   6.034   9.006   5.741  0.2398 -0.0137 -0.0485
 1131loPI   C2A17420   5.886   8.973   6.211  0.2649 -0.1069 -0.0430
 1131loPI   C3A17421   5.773   9.042   6.495 -0.3105 -0.2915 -0.2639
 1131loPI   C4A17422   5.865   9.125   6.958 -0.0645  0.1866  0.0284
 1131loPI   C5A17423   6.155   9.118   7.356  0.1377  0.3539  0.0531
 1131loPI   C6A17424   6.231   9.041   7.727 -0.0572  0.1947 -0.0028
 1131loPI   C1B17425   5.538   8.775   5.826  0.1911  0.1193  0.4306
 1131loPI   C2B17426   5.486   8.661   6.339  0.1987 -0.0976 -0.6622
 1131loPI   C3B17427   5.541   8.491   6.624 -0.2273 -0.1184 -0.0769
 1131loPI   C4B17428   5.528   8.396   7.039  0.2507 -0.2659  0.0144
 1132loPI    C117429  10.331   9.748   5.312 -0.0301 -0.1926 -0.0306
 1132loPI    C217430  10.423   9.506   5.007  0.0979  0.0031 -0.1491
 1132loPI    C317431  10.413   9.903   4.952  0.2452  0.0477  0.1312
 1132loPI   PO417432  10.491   9.741   5.479 -0.1446  0.0163 -0.0282
 1132loPI   GL117433  10.828   9.573   5.744  0.1335  0.0366  0.0369
 1132loPI   GL217434  11.007   9.325   5.727 -0.3496 -0.0572  0.0891
 1132loPI   C1A17435  11.002   9.642   6.098 -0.1535 -0.0593 -0.0371
 1132loPI   C2A17436  10.971   9.634   6.570 -0.0388 -0.1834 -0.1924
 1132loPI   C3A17437  11.018   9.462   6.937 -0.1326 -0.1643  0.0790
 1132loPI   C4A17438  10.715   9.478   7.304 -0.3327 -0.4149 -0.1746
 1132loPI   C5A17439  10.474   9.655   7.694 -0.1702 -0.2587  0.2412
 1132loPI   C6A17440  10.433   9.823   8.067  0.1687 -0.0781 -0.0294
 1132loPI   C1B17441  10.742   9.206   6.080 -0.2778 -0.1214 -0.3580
 1132loPI   C2B17442  10.667   9.147   6.477  0.1099 -0.1320 -0.1985
 1132loPI   C3B17443  10.737   8.808   6.814  0.0578 -0.0286 -0.1786
 1132loPI   C4B17444  10.901   8.998   7.165 -0.0829 -0.0865  0.1169
 1133loPI    C117445  17.186   0.627   4.868  0.0019 -0.1140  0.1448
 1133loPI    C217446  17.176   0.379   4.554  0.0167 -0.1819  0.1978
 1133loPI    C317447  16.951   0.710   4.555  0.1550 -0.0855  0.0358
 1133loPI   PO417448  17.420   0.576   5.015  0.1054 -0.0338 -0.1243
 1133loPI   GL117449  17.403   0.236   5.415  0.3492  0.0808  0.4290
 1133loPI   GL217450  17.326   0.581   5.481  0.1287 -0.0682 -0.1856
 1133loPI   C1A17451  17.448  -0.064   5.695  0.0522  0.0722 -0.0534
 1133loPI   C2A17452  17.532  -0.289   6.081 -0.0036 -0.0843 -0.0651
 1133loPI   C3A17453  17.633  -0.146   6.455 -0.1334 -0.0030 -0.0578
 1133loPI   C4A17454  17.673  -0.042   6.906 -0.2323  0.0557 -0.0858
 1133loPI   C5A17455  17.689   0.056   7.331 -0.1850  0.0336 -0.2069
 1133loPI   C6A17456  17.470   0.038   7.627  0.3644  0.2679  0.1614
 1133loPI   C1B17457  17.422   0.607   5.976  0.1355  0.0576 -0.1373
 1133loPI   C2B17458  17.560   0.714   6.412  0.1157  0.0060  0.0194
 1133loPI   C3B17459  17.565   0.764   6.844  0.0732  0.1772  0.2356
 1133loPI   C4B17460  17.455   1.068   7.090 -0.2192  0.1719 -0.0471
 1134loPI    C117461  17.591   2.438   4.514 -0.1001 -0.0655 -0.0538
 1134loPI    C217462  17.534   2.319   4.136 -0.2213  0.1416 -0.1024
 1134loPI    C317463  17.651   2.694   4.213  0.1767 -0.0081  0.0478
 1134loPI   PO417464  17.609   2.163   4.737 -0.1363 -0.1326  0.0098
 1134loPI   GL117465  17.568   1.913   5.072  0.1378  0.2355 -0.3483
 1134loPI   GL217466  17.730   2.184   5.252 -0.3636 -0.0464  0.0125
 1134loPI   C1A17467  17.404   1.944   5.471 -0.2208  0.1672 -0.1526
 1134loPI   C2A17468  17.081   1.992   5.652 -0.1814 -0.1554 -0.2988
 1134loPI   C3A17469  17.144   2.054   6.191  0.2026 -0.1531 -0.1516
 1134loPI   C4A17470  17.247   2.343   6.501  0.0028  0.0568  0.4366
 1134loPI   C5A17471  17.039   2.684   6.740 -0.1039  0.0945 -0.1136
 1134loPI   C6A17472  16.873   2.955   7.149  0.0879 -0.0866 -0.0810
 1134loPI   C1B17473  17.955   2.110   5.574 -0.0172  0.1218  0.0224
 1134loPI   C2B17474  18.105   2.045   5.809 -0.2245  0.0805 -0.0614
 1134loPI   C3B17475  18.292   1.786   6.036  0.1449 -0.2523 -0.1960
 1134loPI   C4B17476  18.401   1.829   6.456  0.1252 -0.1320 -0.1146
 1135loPI    C117477  13.486   6.746   5.217  0.1017  0.0177  0.0875
 1135loPI    C217478  13.750   6.916   4.969  0.2588  0.0052  0.2442
 1135loPI    C317479  13.495   7.144   5.176 -0.1154 -0.0029 -0.1920
 1135loPI   PO417480  13.599   6.599   5.334  0.1856 -0.2723  0.1510
 1135loPI   GL117481  13.630   6.445   5.731 -0.0265 -0.1660 -0.0132
 1135loPI   GL217482  13.756   6.343   5.906  0.3697 -0.1003  0.1767
 1135loPI   C1A17483  13.239   6.466   6.070  0.0704 -0.0953 -0.0084
 1135loPI   C2A17484  13.131   6.362   6.498  0.1468 -0.0934 -0.1643
 1135loPI   C3A17485  13.212   6.295   6.860 -0.4320 -0.2941 -0.1499
 1135loPI   C4A17486  13.092   6.164   7.226 -0.2948  0.0336 -0.0313
 1135loPI   C5A17487  13.151   6.008   7.649  0.1243 -0.2290 -0.0224
 1135loPI   C6A17488  13.064   5.797   7.974 -0.0806  0.0855 -0.2019
 1135loPI   C1B17489  13.697   6.455   6.298  0.0130  0.1017  0.0391
 1135loPI   C2B17490  13.675   6.420   6.724 -0.2373  0.3141 -0.0745
 1135loPI   C3B17491  13.584   6.141   7.152  0.2305 -0.1112  0.1562
 1135loPI   C4B17492  13.638   6.132   7.568  0.1751  0.0991  0.0354
 1136loPI    C117493   1.272   6.453   4.823 -0.0262  0.0541 -0.0210
 1136loPI    C217494   1.481   6.113   4.803 -0.0657  0.0415 -0.2503
 1136loPI    C317495   1.620   6.443   4.626 -0.0125  0.1547 -0.0026
 1136loPI   PO417496   1.177   6.525   5.020 -0.2943  0.2698  0.2247
 1136loPI   GL117497   1.332   6.512   5.378 -0.1292 -0.1402 -0.1387
 1136loPI   GL217498   1.260   6.820   5.405 -0.0608 -0.1945 -0.0081
 1136loPI   C1A17499   1.378   6.646   5.866 -0.2432 -0.1391 -0.0263
 1136loPI   C2A17500   1.404   6.557   6.322 -0.0523 -0.1624 -0.1574
 1136loPI   C3A17501   1.444   6.635   6.796 -0.0048 -0.2342  0.0106
 1136loPI   C4A17502   1.552   6.936   7.035  0.2143 -0.0545 -0.0422
 1136loPI   C5A17503   1.233   7.222   6.992  0.0704 -0.1095  0.1749
 1136loPI   C6A17504   0.878   7.509   7.116 -0.5038  0.4274 -0.2776
 1136loPI   C1B17505   0.963   6.848   5.734  0.2943  0.1483  0.0876
 1136loPI   C2B17506   0.886   6.634   6.184  0.1751  0.1331 -0.0386
 1136loPI   C3B17507   0.865   6.438   6.625 -0.0105  0.0342  0.3183
 1136loPI   C4B17508   1.057   6.508   7.063  0.0709 -0.1640  0.0972
 1137loPI    C117509   8.686   2.000   5.570 -0.1002 -0.3283 -0.2157
 1137loPI    C217510   8.983   2.267   5.569 -0.1578 -0.2581  0.1634
 1137loPI    C317511   8.757   2.221   5.243  0.2050 -0.2454 -0.0969
 1137loPI   PO417512   8.441   2.068   5.802 -0.1590  0.1747 -0.2478
 1137loPI   GL117513   8.308   1.955   6.140  0.0081  0.4150  0.0802
 1137loPI   GL217514   8.144   1.647   6.012 -0.1310  0.1322  0.0193
 1137loPI   C1A17515   8.205   1.748   6.519  0.0376  0.1635  0.1476
 1137loPI   C2A17516   8.039   1.481   6.808 -0.0042  0.2710  0.0434
 1137loPI   C3A17517   8.087   1.131   6.971 -0.0070 -0.1127 -0.1557
 1137loPI   C4A17518   8.185   1.014   7.283  0.0220 -0.2308 -0.1107
 1137loPI   C5A17519   8.366   0.623   7.557  0.1031  0.0107 -0.2024
 1137loPI   C6A17520   8.538   0.769   7.955 -0.0307  0.1978 -0.1551
 1137loPI   C1B17521   8.079   1.191   6.315  0.0289  0.0195  0.1142
 1137loPI   C2B17522   8.225   0.826   6.590  0.1751  0.1602  0.2036
 1137loPI   C3B17523   8.544   0.710   6.906  0.0137 -0.0395 -0.0798
 1137loPI   C4B17524   8.783   0.629   7.315  0.0643 -0.0077 -0.1222
 1138loPI    C117525  10.826  11.803   4.917  0.1190  0.1912  0.0765
 1138loPI    C217526  11.180  11.733   5.090  0.1426 -0.1721 -0.1084
 1138loPI    C317527  10.905  11.443   5.072 -0.1101  0.0624 -0.0988
 1138loPI   PO417528  10.777  12.018   5.028  0.3333 -0.0562  0.1022
 1138loPI   GL117529  10.710  12.015   5.384  0.0336 -0.1056 -0.0881
 1138loPI   GL217530  10.846  12.199   5.550  0.1259 -0.0027 -0.2335
 1138loPI   C1A17531  10.370  11.987   5.738  0.2428 -0.0501 -0.1331
 1138loPI   C2A17532  10.370  11.956   6.224 -0.3369  0.3734  0.1652
 1138loPI   C3A17533  10.412  11.916   6.660 -0.1424 -0.0489  0.0118
 1138loPI   C4A17534  10.546  11.865   7.146  0.0337  0.3171 -0.2390
 1138loPI   C5A17535  10.462  11.697   7.513 -0.1993  0.1027  0.2614
 1138loPI   C6A17536  10.290  11.831   7.931 -0.0550 -0.3124 -0.0417
 1138loPI   C1B17537  10.727  12.225   5.967  0.0986 -0.1187 -0.0329
 1138loPI   C2B17538  10.787  12.191   6.384  0.2059 -0.1456 -0.2255
 1138loPI   C3B17539  10.884  12.059   6.806 -0.0025 -0.0061 -0.1319
 1138loPI   C4B17540  10.770  12.413   7.066  0.3365  0.3596 -0.1741
 1139loPI    C117541  11.245  12.207   4.775 -0.0993  0.0367  0.0460
 1139loPI    C217542  11.334  11.855   4.607  0.1261  0.0402  0.1539
 1139loPI    C317543  11.568  12.173   4.541 -0.0573  0.1624  0.0849
 1139loPI   PO417544  11.177  12.241   5.100  0.0424  0.0738  0.2355
 1139loPI   GL117545  11.325  12.097   5.486 -0.2215  0.0670 -0.0270
 1139loPI   GL217546  11.580  12.424   5.401  0.2430  0.2905 -0.0516
 1139loPI   C1A17547  11.312  11.841   5.820 -0.1459 -0.1984  0.1447
 1139loPI   C2A17548  11.561  11.743   6.228 -0.1210  0.0711  0.1221
 1139loPI   C3A17549  11.696  11.761   6.657 -0.0118  0.0419  0.4009
 1139loPI   C4A17550  11.726  11.633   7.029 -0.2876  0.1686 -0.1739
 1139loPI   C5A17551  12.076  11.528   7.226 -0.1660 -0.0151 -0.0507
 1139loPI   C6A17552  12.464  11.319   7.043  0.1757 -0.0594 -0.2406
 1139loPI   C1B17553  11.701  12.280   5.801  0.1362 -0.1140  0.1039
 1139loPI   C2B17554  11.639  12.430   6.231 -0.1828  0.0924  0.1208
 1139loPI   C3B17555  11.772  12.506   6.706  0.2215  0.0360 -0.2627
 1139loPI   C4B17556  11.801  12.495   7.171  0.3048 -0.1261  0.1697
 1140loPI    C117557  15.676   8.479   5.055 -0.1245 -0.0991  0.0293
 1140loPI    C217558  15.614   8.129   5.239  0.1403 -0.1513  0.0229
 1140loPI    C317559  15.557   8.160   4.844 -0.1075 -0.1254  0.0593
 1140loPI   PO417560  15.805   8.580   5.261  0.1572 -0.2928 -0.1641
 1140loPI   GL117561  15.962   8.373   5.545 -0.0640 -0.0972 -0.2105
 1140loPI   GL217562  16.141   8.606   5.690 -0.1839 -0.0750 -0.1090
 1140loPI   C1A17563  15.767   8.164   5.895  0.1374  0.1458  0.0594
 1140loPI   C2A17564  15.630   8.199   6.344  0.0192  0.1721  0.2036
 1140loPI   C3A17565  15.979   8.108   6.703  0.0861 -0.0271  0.0466
 1140loPI   C4A17566  16.069   8.230   7.087 -0.3394  0.1032  0.0229
 1140loPI   C5A17567  16.073   8.523   7.352 -0.2598 -0.0262 -0.0090
 1140loPI   C6A17568  16.039   8.572   7.829  0.1832 -0.0977  0.0614
 1140loPI   C1B17569  16.300   8.878   5.980 -0.1962  0.0541 -0.1507
 1140loPI   C2B17570  16.328   8.912   6.331 -0.0318  0.4003 -0.1057
 1140loPI   C3B17571  16.506   9.029   6.637  0.1422  0.2910 -0.0175
 1140loPI   C4B17572  16.457   9.315   6.902  0.1372 -0.0746  0.2354
 1141loPI    C117573   7.730   9.609   4.872 -0.1688 -0.0748  0.0701
 1141loPI    C217574   7.984   9.728   4.587  0.2094  0.2026  0.5096
 1141loPI    C317575   7.591   9.787   4.542  0.2261 -0.0813 -0.1047
 1141loPI   PO417576   7.793   9.677   5.091 -0.1703 -0.2823 -0.1057
 1141loPI   GL117577   7.705   9.841   5.378  0.1596 -0.1286  0.1224
 1141loPI   GL217578   7.611  10.177   5.537 -0.2463  0.1994  0.1447
 1141loPI   C1A17579   7.454   9.787   5.724  0.5670  0.4186  0.3199
 1141loPI   C2A17580   7.354   9.778   6.154  0.0742  0.3694  0.1423
 1141loPI   C3A17581   7.323   9.923   6.480 -0.2659  0.0321 -0.0309
 1141loPI   C4A17582   7.358  10.004   6.825  0.3175  0.1987  0.1707
 1141loPI   C5A17583   7.217  10.193   7.231 -0.1599  0.0750 -0.0117
 1141loPI   C6A17584   7.016   9.984   7.634  0.0962 -0.4029 -0.0251
 1141loPI   C1B17585   7.768  10.045   6.000 -0.0285 -0.0470 -0.0976
 1141loPI   C2B17586   7.735  10.187   6.460  0.3076  0.0194 -0.2844
 1141loPI   C3B17587   7.724  10.290   6.952 -0.0098  0.1258  0.0152
 1141loPI   C4B17588   7.620  10.456   7.345 -0.3326 -0.2108 -0.0127
 1142loPI    C117589   7.183  16.694   4.878 -0.0825  0.0680 -0.1291
 1142loPI    C217590   7.490  16.791   4.640  0.0725 -0.1507 -0.0221
 1142loPI    C317591   7.244  16.493   4.538  0.0570 -0.1540  0.0248
 1142loPI   PO417592   7.272  16.777   5.087  0.4950  0.2053 -0.2031
 1142loPI   GL117593   7.180  16.943   5.456  0.2181 -0.1677 -0.0306
 1142loPI   GL217594   7.371  16.722   5.564 -0.1973 -0.0219 -0.0721
 1142loPI   C1A17595   7.299  17.136   5.914 -0.1684  0.1848 -0.0366
 1142loPI   C2A17596   7.041  17.138   6.299 -0.1094  0.1627 -0.1218
 1142loPI   C3A17597   7.031  17.002   6.711  0.3387  0.1570 -0.3192
 1142loPI   C4A17598   7.001  16.768   7.105  0.1201 -0.2774  0.0325
 1142loPI   C5A17599   7.076  16.343   7.276  0.2149  0.1149  0.1178
 1142loPI   C6A17600   6.890  16.059   7.628  0.1233  0.2252 -0.3792
 1142loPI   C1B17601   7.626  16.747   5.841  0.0946  0.2727 -0.0192
 1142loPI   C2B17602   7.666  16.877   6.282  0.1413 -0.1726 -0.0537
 1142loPI   C3B17603   7.695  16.925   6.735  0.1467  0.1138  0.0734
 1142loPI   C4B17604   7.917  17.045   7.110  0.0525  0.0919 -0.0353
 1143loPI    C117605   9.542  16.660   4.704  0.1446 -0.0956  0.0301
 1143loPI    C217606   9.550  16.519   4.329  0.3225 -0.0779  0.0262
 1143loPI    C317607   9.562  16.914   4.395  0.1413 -0.0748  0.0467
 1143loPI   PO417608   9.786  16.520   4.797  0.3116  0.3045  0.0733
 1143loPI   GL117609   9.993  16.605   5.244  0.0114 -0.2241 -0.1012
 1143loPI   GL217610  10.287  16.743   5.235  0.2341 -0.1937 -0.1095
 1143loPI   C1A17611  10.003  16.551   5.646  0.1870  0.0984  0.2585
 1143loPI   C2A17612   9.881  16.325   5.981 -0.0867  0.0022  0.0595
 1143loPI   C3A17613   9.538  16.272   6.241 -0.1085  0.2730 -0.0142
 1143loPI   C4A17614   9.524  16.288   6.662  0.1858  0.0333  0.2806
 1143loPI   C5A17615   9.535  16.120   6.983  0.2072  0.0584 -0.0347
 1143loPI   C6A17616   9.573  16.213   7.354 -0.3091  0.0797 -0.0215
 1143loPI   C1B17617  10.507  16.706   5.688  0.0771 -0.2999 -0.0037
 1143loPI   C2B17618  10.307  16.588   6.126 -0.4394  0.1029 -0.1810
 1143loPI   C3B17619  10.120  16.325   6.442  0.3126  0.4021  0.2103
 1143loPI   C4B17620   9.968  16.381   6.849 -0.5580 -0.4377 -0.0395
 1144loPI    C117621   0.895   6.839   4.773  0.1973  0.1341 -0.1805
 1144loPI    C217622   0.718   6.975   4.442 -0.1301 -0.1172 -0.1148
 1144loPI    C317623   0.809   6.587   4.475  0.1374 -0.0480 -0.0124
 1144loPI   PO417624   0.866   6.974   5.042 -0.3057  0.1271 -0.0621
 1144loPI   GL117625   0.685   6.842   5.333 -0.1988 -0.0958 -0.1529
 1144loPI   GL217626   0.789   6.565   5.359 -0.0346  0.0969  0.2888
 1144loPI   C1A17627   0.458   6.957   5.851 -0.3051  0.0536 -0.0751
 1144loPI   C2A17628   0.558   7.100   6.188  0.2053  0.4112  0.2814
 1144loPI   C3A17629   0.374   7.283   6.369  0.1824 -0.1301 -0.0897
 1144loPI   C4A17630  -0.106   7.251   6.409  0.2783  0.1323 -0.4429
 1144loPI   C5A17631  -0.452   7.385   6.628 -0.0934 -0.3500  0.1975
 1144loPI   C6A17632  -0.378   7.768   6.712 -0.0688  0.0342 -0.4333
 1144loPI   C1B17633   0.930   6.306   5.702  0.1884  0.1668  0.0596
 1144loPI   C2B17634   0.738   6.092   6.033  0.0449 -0.0684 -0.0040
 1144loPI   C3B17635   0.658   6.029   6.427  0.0017 -0.1473 -0.0760
 1144loPI   C4B17636   0.667   5.991   6.926 -0.0668 -0.1358  0.0031
 1145loPI    C117637   5.111   1.579   5.054 -0.0529  0.3092 -0.0065
 1145loPI    C217638   5.462   1.770   5.066  0.0060  0.2041 -0.0413
 1145loPI    C317639   5.331   1.615   4.722  0.1499 -0.1689  0.0677
 1145loPI   PO417640   4.958   1.639   5.289 -0.1952  0.0253 -0.1620
 1145loPI   GL117641   4.832   1.684   5.619 -0.0522  0.1622 -0.0330
 1145loPI   GL217642   4.947   2.085   5.715  0.1112  0.0203  0.0488
 1145loPI   C1A17643   4.743   1.678   6.017 -0.1192  0.2981 -0.0396
 1145loPI   C2A17644   4.639   1.758   6.389  0.2921 -0.2101  0.0844
 1145loPI   C3A17645   4.506   1.924   6.761 -0.0560  0.2020  0.0348
 1145loPI   C4A17646   4.481   1.831   7.188  0.3134 -0.0343 -0.0325
 1145loPI   C5A17647   4.335   1.632   7.576  0.0360  0.2326  0.0662
 1145loPI   C6A17648   3.935   1.573   7.592 -0.1972 -0.0239 -0.0003
 1145loPI   C1B17649   4.880   2.149   6.098 -0.0627 -0.1176 -0.1144
 1145loPI   C2B17650   4.844   2.190   6.528  0.0003  0.1343  0.0039
 1145loPI   C3B17651   4.906   2.407   6.971  0.2823 -0.0858 -0.0516
 1145loPI   C4B17652   4.990   2.186   7.251 -0.3826 -0.2956 -0.1289
 1146loPI    C117653   8.450   7.593   4.945 -0.0673  0.1261  0.0716
 1146loPI    C217654   8.797   7.773   4.862 -0.1130  0.2061  0.0522
 1146loPI    C317655   8.452   7.959   4.784 -0.1640  0.0185 -0.1793
 1146loPI   PO417656   8.459   7.556   5.211 -0.0722 -0.2681  0.0029
 1146loPI   GL117657   8.629   7.659   5.566 -0.0837 -0.3839 -0.0556
 1146loPI   GL217658   8.547   7.848   5.816 -0.0496  0.0856  0.0949
 1146loPI   C1A17659   9.007   7.974   5.739  0.1070  0.0182 -0.0839
 1146loPI   C2A17660   9.119   8.151   6.061 -0.0525 -0.2600 -0.0794
 1146loPI   C3A17661   9.007   8.108   6.555  0.2027 -0.3557 -0.2161
 1146loPI   C4A17662   9.056   7.956   6.910 -0.2238  0.1976 -0.0102
 1146loPI   C5A17663   8.894   7.852   7.351  0.0863 -0.2954  0.1574
 1146loPI   C6A17664   9.023   7.803   7.816  0.3111 -0.2034 -0.1996
 1146loPI   C1B17665   8.244   8.019   6.066 -0.1112  0.2416  0.1954
 1146loPI   C2B17666   8.032   8.047   6.462 -0.1850 -0.0247 -0.1219
 1146loPI   C3B17667   7.805   7.990   6.831  0.2654  0.1379 -0.2797
 1146loPI   C4B17668   7.398   7.923   6.897  0.0976  0.0156 -0.0577
 1147loPI    C117669  16.594   8.111   4.944  0.1052  0.1729 -0.0366
 1147loPI    C217670  16.444   8.415   4.732  0.1932  0.1395 -0.1479
 1147loPI    C317671  16.518   8.065   4.554  0.0873  0.0505 -0.0190
 1147loPI   PO417672  16.811   8.214   5.075 -0.0939 -0.2003 -0.0873
 1147loPI   GL117673  16.911   8.371   5.478  0.3058 -0.1200 -0.2171
 1147loPI   GL217674  17.011   8.766   5.469 -0.0333 -0.2768  0.0318
 1147loPI   C1A17675  17.063   8.320   5.822  0.0453  0.3694 -0.2341
 1147loPI   C2A17676  16.990   8.223   6.211 -0.0058  0.0808  0.0008
 1147loPI   C3A17677  17.106   8.287   6.659  0.0019 -0.1627  0.0717
 1147loPI   C4A17678  17.211   8.008   6.974  0.0755  0.0476 -0.2132
 1147loPI   C5A17679  17.133   7.531   7.237 -0.1039 -0.1789 -0.0535
 1147loPI   C6A17680  17.041   7.026   7.287  0.1058  0.3141  0.0955
 1147loPI   C1B17681  17.146   8.944   5.823  0.1625  0.0656  0.1722
 1147loPI   C2B17682  17.227   8.777   6.058 -0.0501 -0.0363  0.2123
 1147loPI   C3B17683  17.311   8.788   6.467  0.1903 -0.2149 -0.1196
 1147loPI   C4B17684  17.336   8.713   6.923 -0.2313  0.2148 -0.1324
 1148loPI    C117685  14.449   3.959   4.960  0.0076 -0.0177 -0.1093
 1148loPI    C217686  14.816   3.901   4.811  0.0943  0.0741  0.0641
 1148loPI    C317687  14.501   3.720   4.644  0.2559 -0.2456  0.0975
 1148loPI   PO417688  14.534   3.998   5.269  0.0491  0.1154 -0.1297
 1148loPI   GL117689  14.754   4.035   5.699 -0.1241 -0.0675 -0.3874
 1148loPI   GL217690  15.079   4.104   5.767  0.0718 -0.3140 -0.1326
 1148loPI   C1A17691  14.649   4.375   5.998 -0.0202 -0.0945 -0.1962
 1148loPI   C2A17692  14.888   4.532   6.332  0.0798  0.0146 -0.0441
 1148loPI   C3A17693  14.727   4.753   6.658  0.0819  0.1405  0.1665
 1148loPI   C4A17694  14.826   5.133   6.970  0.0947  0.0139  0.2854
 1148loPI   C5A17695  14.686   5.379   7.307 -0.0290 -0.0753 -0.2545
 1148loPI   C6A17696  14.533   5.662   7.582 -0.1051  0.0767  0.2544
 1148loPI   C1B17697  15.050   4.070   6.211  0.0538  0.1816  0.0218
 1148loPI   C2B17698  15.000   4.172   6.654 -0.1538 -0.2244 -0.0444
 1148loPI   C3B17699  15.054   4.309   7.051 -0.0655 -0.1879 -0.0615
 1148loPI   C4B17700  15.218   4.356   7.451  0.2745 -0.4727  0.4857
 1149loPI    C117701  11.025   5.337   5.188 -0.1416 -0.1876  0.0248
 1149loPI    C217702  11.054   5.186   4.819  0.1539  0.0543 -0.0551
 1149loPI    C317703  10.764   5.447   4.906  0.0337 -0.0656 -0.0919
 1149loPI   PO417704  11.207   5.492   5.308 -0.1063  0.0682 -0.0177
 1149loPI   GL117705  11.265   5.692   5.620 -0.0229 -0.0588 -0.0558
 1149loPI   GL217706  11.404   5.676   5.857  0.0791  0.0189 -0.0631
 1149loPI   C1A17707  10.996   5.943   5.794  0.3001  0.0649  0.0971
 1149loPI   C2A17708  10.644   6.110   6.044 -0.1824 -0.2081  0.2456
 1149loPI   C3A17709  10.697   6.178   6.544  0.0945 -0.0808  0.1703
 1149loPI   C4A17710  10.628   6.244   7.014 -0.0757  0.1630  0.0983
 1149loPI   C5A17711  10.290   6.383   7.439 -0.3382 -0.2814 -0.1699
 1149loPI   C6A17712  10.122   6.745   7.835  0.0622  0.1960 -0.1537
 1149loPI   C1B17713  11.598   5.648   6.261 -0.1272  0.0066 -0.0149
 1149loPI   C2B17714  11.880   5.776   6.556 -0.0268 -0.1828  0.0776
 1149loPI   C3B17715  12.053   6.115   6.776  0.0474  0.2941 -0.1658
 1149loPI   C4B17716  12.156   6.309   7.026 -0.1968 -0.2717 -0.0252
 1150loPI    C117717  11.036   9.317   4.934  0.1115 -0.1853  0.1060
 1150loPI    C217718  11.143   9.366   4.551  0.5059 -0.2116  0.2080
 1150loPI    C317719  11.038   9.004   4.685  0.1392 -0.1593  0.0733
 1150loPI   PO417720  11.255   9.393   5.159  0.1284 -0.3184 -0.0124
 1150loPI   GL117721  11.509   9.334   5.665 -0.3319  0.1843  0.1457
 1150loPI   GL217722  11.523   9.073   5.680 -0.4247  0.2647 -0.2034
 1150loPI   C1A17723  11.488   9.559   6.030  0.2247  0.4026 -0.1401
 1150loPI   C2A17724  11.418   9.837   6.329 -0.2620 -0.1282 -0.0350
 1150loPI   C3A17725  11.368  10.008   6.757  0.2618  0.1107  0.0917
 1150loPI   C4A17726  11.254  10.349   6.934  0.0930  0.2634  0.0560
 1150loPI   C5A17727  11.153  10.730   7.210 -0.0320 -0.0995 -0.0798
 1150loPI   C6A17728  11.473  10.812   7.473  0.0853 -0.0621  0.1196
 1150loPI   C1B17729  11.346   9.044   6.064 -0.1084  0.0652 -0.0802
 1150loPI   C2B17730  11.169   9.153   6.433 -0.0578 -0.0038  0.0898
 1150loPI   C3B17731  11.329   9.063   6.869  0.0342  0.1027 -0.0198
 1150loPI   C4B17732  11.338   8.764   7.332 -0.0577 -0.2487 -0.2507
 1151loPI    C117733   7.138  13.097   5.083 -0.2613  0.1424  0.0387
 1151loPI    C217734   6.823  13.186   4.853 -0.3014 -0.0236  0.0283
 1151loPI    C317735   7.181  13.123   4.686 -0.2438  0.2431  0.0469
 1151loPI   PO417736   7.028  12.920   5.265 -0.3303 -0.1819 -0.4089
 1151loPI   GL117737   7.035  13.066   5.711 -0.2929 -0.0847 -0.0251
 1151loPI   GL217738   6.898  12.742   5.701  0.1845 -0.3739 -0.0746
 1151loPI   C1A17739   7.130  13.209   6.076 -0.1354 -0.0756  0.4342
 1151loPI   C2A17740   7.188  13.080   6.481  0.0307  0.0624 -0.2207
 1151loPI   C3A17741   7.251  13.105   6.842  0.3155 -0.0280 -0.1551
 1151loPI   C4A17742   7.175  13.117   7.187 -0.0019 -0.0568  0.3942
 1151loPI   C5A17743   7.506  12.983   7.528  0.0273  0.1688 -0.0865
 1151loPI   C6A17744   7.813  13.205   7.695 -0.0638  0.1589 -0.1079
 1151loPI   C1B17745   6.830  12.737   6.233 -0.1278  0.1775  0.0122
 1151loPI   C2B17746   6.770  12.853   6.666 -0.1667 -0.2340  0.0874
 1151loPI   C3B17747   6.830  12.833   7.110  0.0800 -0.0716  0.1374
 1151loPI   C4B17748   6.776  12.545   7.537  0.1430  0.1763 -0.0183
 1152loPI    C117749  10.843  10.165   4.966  0.1018  0.1670 -0.0858
 1152loPI    C217750  11.115  10.193   4.674  0.2876 -0.1197  0.0556
 1152loPI    C317751  10.947   9.840   4.757  0.0332  0.0134  0.1164
 1152loPI   PO417752  10.789  10.403   4.979 -0.1658  0.1693  0.2163
 1152loPI   GL117753  10.892  10.570   5.370 -0.3337  0.0686 -0.0444
 1152loPI   GL217754  11.112  10.258   5.472  0.0675  0.0567 -0.1218
 1152loPI   C1A17755  10.977  10.520   5.877  0.0402  0.0160  0.1338
 1152loPI   C2A17756  11.115  10.883   6.222 -0.0578  0.1709  0.1842
 1152loPI   C3A17757  11.096  11.056   6.610 -0.1483  0.0856 -0.0151
 1152loPI   C4A17758  11.269  11.190   6.988  0.1960  0.4161 -0.1005
 1152loPI   C5A17759  11.691  11.145   7.219  0.0768  0.0111 -0.0440
 1152loPI   C6A17760  11.807  11.160   7.666  0.0560 -0.0792 -0.0918
 1152loPI   C1B17761  11.431  10.451   5.616  0.2267  0.1450  0.3046
 1152loPI   C2B17762  11.603  10.605   5.983  0.0509  0.0739  0.0010
 1152loPI   C3B17763  11.605  11.040   6.199 -0.1294 -0.3989 -0.0074
 1152loPI   C4B17764  11.680  11.232   6.576  0.1072  0.2124  0.1053
 1153loPI    C117765  18.783  14.179   4.811  0.0766 -0.1549  0.2815
 1153loPI    C217766  19.173  14.261   4.779  0.0710 -0.1467  0.2352
 1153loPI    C317767  18.969  14.134   4.460 -0.0635  0.2815  0.1451
 1153loPI   PO417768  18.737  14.080   5.010 -0.1655 -0.0215 -0.0765
 1153loPI   GL117769  18.934  14.360   5.260 -0.0320 -0.1745  0.0415
 1153loPI   GL217770  19.189  14.140   5.304 -0.1556  0.3470 -0.2713
 1153loPI   C1A17771  18.838  14.310   5.695 -0.0171  0.0517  0.1026
 1153loPI   C2A17772  19.097  14.419   6.064  0.3071  0.0857 -0.3584
 1153loPI   C3A17773  18.987  14.521   6.499 -0.1226 -0.3046  0.1672
 1153loPI   C4A17774  19.197  14.132   6.724  0.1862  0.2919 -0.1479
 1153loPI   C5A17775  19.556  14.263   7.038  0.2844  0.0388  0.2287
 1153loPI   C6A17776  19.950  14.409   7.103 -0.1314  0.3145 -0.2191
 1153loPI   C1B17777  19.336  14.182   5.677  0.0002 -0.0324 -0.0352
 1153loPI   C2B17778  19.658  14.338   5.957 -0.1180  0.0697  0.4113
 1153loPI   C3B17779  19.500  14.462   6.369 -0.2408  0.1687  0.4601
 1153loPI   C4B17780  19.823  14.650   6.654  0.0724  0.0456  0.2669
 1154loPI    C117781   6.778   3.230   5.071 -0.0095 -0.0982 -0.3049
 1154loPI    C217782   6.596   3.557   5.213 -0.0465 -0.1184 -0.3058
 1154loPI    C317783   6.399   3.307   4.971 -0.0236 -0.1502 -0.2918
 1154loPI   PO417784   6.984   3.210   5.313  0.0955 -0.3529 -0.0669
 1154loPI   GL117785   6.735   3.263   5.688 -0.1159 -0.1258  0.2176
 1154loPI   GL217786   6.479   3.226   5.957  0.2572 -0.1103  0.1102
 1154loPI   C1A17787   6.936   3.450   6.041  0.1279 -0.3038 -0.2605
 1154loPI   C2A17788   7.039   3.457   6.431 -0.0965 -0.0106 -0.0027
 1154loPI   C3A17789   7.001   3.576   6.853  0.2768 -0.2925  0.5313
 1154loPI   C4A17790   7.086   3.665   7.301  0.1225  0.1438  0.2197
 1154loPI   C5A17791   7.292   3.561   7.790 -0.2442 -0.1900  0.0758
 1154loPI   C6A17792   7.552   3.364   8.095  0.4797 -0.2088 -0.1118
 1154loPI   C1B17793   6.453   3.398   6.338  0.2516  0.1796  0.2134
 1154loPI   C2B17794   6.497   3.482   6.787  0.0694 -0.2218 -0.2232
 1154loPI   C3B17795   6.655   3.463   7.249  0.0021  0.1245  0.1941
 1154loPI   C4B17796   6.570   3.361   7.649  0.0390  0.0522 -0.1567
 1155loPI    C117797  10.063   4.318   5.038  0.3169 -0.1045 -0.1187
 1155loPI    C217798   9.690   4.438   4.960  0.2613 -0.2049 -0.0081
 1155loPI    C317799   9.934   4.337   4.660  0.1619 -0.2510 -0.0739
 1155loPI   PO417800   9.971   4.227   5.342 -0.2048  0.0130  0.1519
 1155loPI   GL117801   9.930   4.250   5.731  0.0313 -0.0151  0.4765
 1155loPI   GL217802   9.818   4.584   5.869 -0.1010 -0.0033  0.0162
 1155loPI   C1A17803   9.884   4.146   6.143  0.1041 -0.0162 -0.1677
 1155loPI   C2A17804   9.827   3.967   6.572  0.2832 -0.2052 -0.1016
 1155loPI   C3A17805   9.734   3.861   6.929  0.1639 -0.3392 -0.1029
 1155loPI   C4A17806   9.400   3.630   7.185  0.3522 -0.3003  0.0036
 1155loPI   C5A17807   8.927   3.500   7.410 -0.1341  0.0200 -0.1877
 1155loPI   C6A17808   8.535   3.349   7.614 -0.2393 -0.1767  0.1600
 1155loPI   C1B17809   9.660   4.616   6.286  0.2205 -0.0828 -0.0436
 1155loPI   C2B17810   9.693   4.798   6.729 -0.0248 -0.5586 -0.0097
 1155loPI   C3B17811   9.645   4.696   7.243 -0.0866  0.2220  0.1948
 1155loPI   C4B17812   9.584   4.604   7.716 -0.0378  0.0061 -0.2538
 1156loPI    C117813  13.327  17.325   4.949  0.0802 -0.1172 -0.1870
 1156loPI    C217814  13.531  17.659   4.868  0.0081 -0.0606 -0.1380
 1156loPI    C317815  13.433  17.408   4.572 -0.1287  0.0718 -0.2070
 1156loPI   PO417816  13.430  17.247   5.177 -0.0554  0.1717  0.1491
 1156loPI   GL117817  13.473  17.293   5.588 -0.0513 -0.0788  0.0788
 1156loPI   GL217818  13.289  17.032   5.588 -0.0707 -0.0742  0.3796
 1156loPI   C1A17819  13.495  17.387   6.003  0.1049  0.1021  0.1141
 1156loPI   C2A17820  13.310  17.444   6.475  0.2079  0.1223 -0.0931
 1156loPI   C3A17821  13.341  17.298   6.885 -0.1067 -0.3279 -0.1230
 1156loPI   C4A17822  13.600  17.301   7.205  0.3602 -0.1240 -0.0480
 1156loPI   C5A17823  14.024  17.585   7.190  0.2876 -0.2627  0.1902
 1156loPI   C6A17824  14.215  17.844   7.434 -0.1140  0.0438 -0.1686
 1156loPI   C1B17825  13.037  17.050   5.928 -0.0934  0.3209  0.5144
 1156loPI   C2B17826  12.890  17.166   6.345  0.2259 -0.3790 -0.2122
 1156loPI   C3B17827  12.821  17.364   6.702  0.0645 -0.0577  0.3427
 1156loPI   C4B17828  12.905  17.426   7.203  0.0526  0.1999  0.1333
 1157loPI    C117829  11.059   1.029   5.065  0.1116 -0.0404  0.0680
 1157loPI    C217830  10.793   1.301   4.940  0.0217 -0.1931 -0.0778
 1157loPI    C317831  11.185   1.374   4.907 -0.0010 -0.0163  0.0295
 1157loPI   PO417832  10.995   0.965   5.461  0.0089  0.0971 -0.1254
 1157loPI   GL117833  11.172   0.515   5.592  0.1807  0.0153 -0.0895
 1157loPI   GL217834  11.318   0.735   5.802 -0.0074 -0.0726 -0.0506
 1157loPI   C1A17835  11.264   0.273   6.013  0.1586  0.0233  0.3114
 1157loPI   C2A17836  11.303   0.224   6.481 -0.0545 -0.1140 -0.0591
 1157loPI   C3A17837  11.371   0.108   6.877 -0.0695 -0.1309  0.0015
 1157loPI   C4A17838  11.281   0.182   7.229 -0.1106  0.1915  0.1416
 1157loPI   C5A17839  11.482   0.235   7.639  0.1976  0.1002  0.0596
 1157loPI   C6A17840  11.853   0.346   7.910 -0.0189 -0.0065  0.0342
 1157loPI   C1B17841  11.383   1.039   6.111  0.2175  0.0703 -0.1319
 1157loPI   C2B17842  11.564   1.112   6.530  0.2989 -0.0827 -0.3210
 1157loPI   C3B17843  11.647   1.027   6.972  0.0702 -0.1280 -0.1799
 1157loPI   C4B17844  11.706   1.163   7.413  0.2327 -0.0245 -0.0681
 1158loPI    C117845   1.140   3.898   4.770  0.0411  0.1139 -0.4262
 1158loPI    C217846   0.787   4.040   4.893  0.1262  0.0265 -0.0692
 1158loPI    C317847   1.028   4.270   4.671  0.0722  0.2805  0.1297
 1158loPI   PO417848   1.218   3.699   4.947  0.1778  0.0615 -0.0703
 1158loPI   GL117849   1.420   3.768   5.427 -0.0996  0.0817  0.1121
 1158loPI   GL217850   1.720   3.831   5.553 -0.3155 -0.0300  0.2240
 1158loPI   C1A17851   1.363   3.660   5.843 -0.0218 -0.0427 -0.2773
 1158loPI   C2A17852   1.450   3.886   6.172  0.0102 -0.2373 -0.0280
 1158loPI   C3A17853   1.426   4.199   6.552 -0.2286 -0.3814 -0.2148
 1158loPI   C4A17854   1.548   4.469   6.809  0.2345 -0.0899 -0.1248
 1158loPI   C5A17855   1.506   4.633   7.161 -0.5029  0.1597 -0.1071
 1158loPI   C6A17856   1.387   4.862   7.420  0.0198 -0.3257  0.3287
 1158loPI   C1B17857   1.887   3.912   5.953 -0.1378 -0.3604  0.0268
 1158loPI   C2B17858   1.788   4.377   6.246 -0.0128  0.1913 -0.1134
 1158loPI   C3B17859   1.783   4.765   6.361 -0.3098  0.1859  0.2550
 1158loPI   C4B17860   1.824   5.120   6.267  0.1668 -0.0400  0.1144
 1159loPI    C117861   0.878  11.630   4.104  0.1210 -0.0107  0.0647
 1159loPI    C217862   0.872  11.484   3.731  0.0071  0.3538 -0.0802
 1159loPI    C317863   1.215  11.618   3.888  0.0327  0.3086 -0.0975
 1159loPI   PO417864   0.735  11.383   4.346  0.0941 -0.0356 -0.1363
 1159loPI   GL117865   0.755  11.200   4.827 -0.0145 -0.0862 -0.0445
 1159loPI   GL217866   0.406  11.366   4.843 -0.1064 -0.0285 -0.0381
 1159loPI   C1A17867   0.657  11.067   5.280 -0.1201  0.0990 -0.0199
 1159loPI   C2A17868   0.583  10.895   5.714  0.1097 -0.0500  0.0755
 1159loPI   C3A17869   0.517  11.134   6.065 -0.3349  0.0376 -0.1777
 1159loPI   C4A17870   0.421  11.285   6.517 -0.0800 -0.1448 -0.0810
 1159loPI   C5A17871   0.610  11.314   6.981 -0.0273  0.1202  0.0936
 1159loPI   C6A17872   0.241  11.401   7.241  0.1316 -0.0343  0.2039
 1159loPI   C1B17873   0.446  11.569   5.212  0.0546  0.3056  0.1122
 1159loPI   C2B17874   0.674  11.419   5.658  0.2486 -0.0922  0.3574
 1159loPI   C3B17875   1.061  11.468   5.761 -0.1382  0.2185 -0.1795
 1159loPI   C4B17876   1.148  11.202   6.205 -0.0385  0.1365 -0.0147
 1160loPI    C117877  14.796   3.029   5.342 -0.1925 -0.0336  0.0682
 1160loPI    C217878  14.478   2.874   5.528 -0.1577  0.0375  0.1884
 1160loPI    C317879  14.437   3.039   5.166 -0.1935 -0.2573  0.0554
 1160loPI   PO417880  14.971   2.868   5.443  0.0267 -0.2799  0.2533
 1160loPI   GL117881  14.740   2.683   5.853 -0.3930  0.1984  0.2857
 1160loPI   GL217882  14.831   3.024   5.854  0.4352  0.1031 -0.1037
 1160loPI   C1A17883  14.794   2.554   6.197  0.0486 -0.0596  0.0746
 1160loPI   C2A17884  14.867   2.225   6.472 -0.1056 -0.0947 -0.0177
 1160loPI   C3A17885  14.780   2.023   6.879 -0.2300  0.5103 -0.1946
 1160loPI   C4A17886  14.801   1.645   7.125  0.0581  0.3135  0.3531
 1160loPI   C5A17887  15.051   1.483   7.524 -0.1282  0.1410 -0.0567
 1160loPI   C6A17888  15.162   1.635   7.866  0.0766 -0.4026  0.0597
 1160loPI   C1B17889  15.142   3.117   6.125 -0.0632  0.4623 -0.1468
 1160loPI   C2B17890  15.320   3.281   6.492  0.3371 -0.3116  0.3990
 1160loPI   C3B17891  15.732   3.328   6.693  0.0340 -0.1798  0.1005
 1160loPI   C4B17892  15.965   3.428   6.919 -0.1952  0.4027 -0.2536
 1161loPI    C117893   5.912  10.351   4.762  0.0825  0.0233 -0.2739
 1161loPI    C217894   6.030  10.377   4.380  0.0508 -0.1228 -0.2940
 1161loPI    C317895   5.647  10.444   4.476  0.1102  0.1692 -0.2530
 1161loPI   PO417896   6.068  10.517   4.909 -0.3105 -0.1829  0.2643
 1161loPI   GL117897   6.050  10.585   5.301  0.3465  0.0358 -0.1816
 1161loPI   GL217898   6.110  10.224   5.279  0.0841  0.2004  0.0972
 1161loPI   C1A17899   6.159  10.664   5.701  0.0345  0.1300 -0.1026
 1161loPI   C2A17900   6.371  10.730   6.082  0.1951 -0.1463 -0.4204
 1161loPI   C3A17901   6.367  10.940   6.450 -0.3140 -0.0860 -0.2168
 1161loPI   C4A17902   6.366  11.096   6.833  0.0715 -0.0758  0.0578
 1161loPI   C5A17903   6.569  11.321   7.213 -0.1098  0.1993  0.0628
 1161loPI   C6A17904   6.382  11.609   7.641  0.0112  0.2226  0.1840
 1161loPI   C1B17905   6.201  10.096   5.678 -0.3289  0.2620  0.0572
 1161loPI   C2B17906   6.380   9.883   6.038 -0.1512  0.1554 -0.1041
 1161loPI   C3B17907   6.566   9.720   6.497 -0.0289 -0.0052  0.1828
 1161loPI   C4B17908   6.999   9.714   6.752  0.3983 -0.2284 -0.1394
 1162loPI    C117909   8.644  18.655   4.820 -0.0103 -0.0094  0.0368
 1162loPI    C217910   8.852  18.802   4.511  0.1321 -0.1939  0.0438
 1162loPI    C317911   8.637  18.467   4.467 -0.2122  0.0253  0.0209
 1162loPI   PO417912   8.768  18.838   5.034  0.2926 -0.1094 -0.0634
 1162loPI   GL117913   8.640  18.881   5.461  0.0030 -0.1786  0.0580
 1162loPI   GL217914   8.437  19.019   5.535 -0.0355 -0.0777  0.2414
 1162loPI   C1A17915   8.605  18.429   5.735 -0.3896  0.1021  0.1510
 1162loPI   C2A17916   8.771  18.385   6.215  0.0619 -0.2494  0.2989
 1162loPI   C3A17917   8.796  18.241   6.631  0.0542 -0.0664  0.3569
 1162loPI   C4A17918   9.003  18.279   7.054  0.2094  0.0296  0.1118
 1162loPI   C5A17919   8.790  18.516   7.504 -0.0860 -0.3493 -0.1138
 1162loPI   C6A17920   8.424  18.678   7.584  0.2486 -0.3040 -0.1012
 1162loPI   C1B17921   8.524  18.892   5.952 -0.0114 -0.0151 -0.1137
 1162loPI   C2B17922   8.487  18.823   6.379 -0.1105 -0.1275 -0.0723
 1162loPI   C3B17923   8.471  18.575   6.757 -0.1191 -0.1313  0.2632
 1162loPI   C4B17924   8.459  18.397   7.106  0.0123 -0.0313 -0.3061
 1163loPI    C117925   0.364  10.360   4.950  0.1400 -0.1160  0.1964
 1163loPI    C217926   0.470  10.413   4.568 -0.2368  0.0105  0.1040
 1163loPI    C317927   0.621  10.650   4.853 -0.0546 -0.0002  0.0178
 1163loPI   PO417928   0.148  10.380   5.030 -0.0287  0.0670 -0.0924
 1163loPI   GL117929   0.069  10.387   5.356 -0.0785  0.2169 -0.2385
 1163loPI   GL217930   0.097  10.664   5.455  0.0205 -0.1640 -0.3103
 1163loPI   C1A17931  -0.113  10.146   5.549 -0.0276  0.4276 -0.2101
 1163loPI   C2A17932  -0.327  10.031   6.013  0.1488 -0.0128 -0.1095
 1163loPI   C3A17933  -0.445   9.807   6.393  0.1246  0.2067 -0.0432
 1163loPI   C4A17934  -0.515   9.476   6.658 -0.0780  0.2954 -0.0291
 1163loPI   C5A17935  -0.563   9.112   6.928  0.0366  0.3634 -0.3119
 1163loPI   C6A17936  -0.649   9.127   7.347 -0.0269 -0.0157 -0.1973
 1163loPI   C1B17937   0.215  10.501   5.953  0.1843 -0.3080  0.3546
 1163loPI   C2B17938   0.388  10.715   6.290 -0.1009  0.0481  0.1192
 1163loPI   C3B17939   0.423  10.838   6.723  0.0137 -0.0400 -0.2058
 1163loPI   C4B17940   0.282  10.883   7.175  0.0955  0.0627  0.0676
 1164loPI    C117941  10.721  18.753   4.663  0.0830  0.2181 -0.2579
 1164loPI    C217942  11.019  18.543   4.829  0.0551  0.2240 -0.2003
 1164loPI    C317943  11.072  18.721   4.474  0.0844  0.1336 -0.2414
 1164loPI   PO417944  10.638  19.009   4.891 -0.0572 -0.1550  0.4247
 1164loPI   GL117945  10.591  19.112   5.351 -0.0536 -0.1587  0.1497
 1164loPI   GL217946  10.299  19.171   5.615  0.0980 -0.0721 -0.2844
 1164loPI   C1A17947  10.794  19.078   5.768  0.0790  0.1518 -0.1746
 1164loPI   C2A17948  10.842  19.002   6.242  0.2486 -0.0775  0.4264
 1164loPI   C3A17949  10.870  19.059   6.679  0.1831  0.3063 -0.2212
 1164loPI   C4A17950  10.833  19.209   7.104 -0.2991 -0.1126 -0.0112
 1164loPI   C5A17951  10.548  19.127   7.450  0.2028 -0.1607  0.0774
 1164loPI   C6A17952  10.353  18.857   7.690 -0.3327 -0.1742  0.1562
 1164loPI   C1B17953  10.318  18.930   6.009 -0.1239 -0.3068 -0.1613
 1164loPI   C2B17954  10.355  18.821   6.419  0.1414  0.5265  0.2644
 1164loPI   C3B17955  10.496  18.637   6.708 -0.2914  0.1986 -0.0906
 1164loPI   C4B17956  10.276  18.307   6.925 -0.2916  0.2644  0.1589
 1165loPI    C117957  18.793   8.192   4.824  0.1773  0.1309  0.0355
 1165loPI    C217958  18.849   8.376   4.474  0.1072  0.0631 -0.0116
 1165loPI    C317959  19.028   8.514   4.803  0.1996  0.1075 -0.0801
 1165loPI   PO417960  18.536   8.135   4.898 -0.1545 -0.4024  0.1310
 1165loPI   GL117961  18.430   8.251   5.244 -0.2526 -0.0595 -0.0126
 1165loPI   GL217962  18.252   8.293   5.532  0.0013 -0.0534 -0.1967
 1165loPI   C1A17963  18.676   8.429   5.555 -0.0512  0.1832 -0.1643
 1165loPI   C2A17964  18.679   8.523   5.973  0.6985 -0.1120 -0.1815
 1165loPI   C3A17965  18.753   8.674   6.426 -0.0346  0.3394 -0.2308
 1165loPI   C4A17966  18.772   8.769   6.843 -0.0673  0.2862  0.1485
 1165loPI   C5A17967  18.723   8.687   7.298 -0.4572  0.0882 -0.4607
 1165loPI   C6A17968  18.550   8.225   7.357  0.2505  0.0169 -0.5411
 1165loPI   C1B17969  18.356   8.140   5.899 -0.0503 -0.4420  0.3360
 1165loPI   C2B17970  18.482   8.155   6.405 -0.0411  0.0560 -0.0849
 1165loPI   C3B17971  18.683   8.226   6.834  0.1557  0.0803 -0.0242
 1165loPI   C4B17972  19.043   8.060   6.856 -0.2742  0.0497  0.0175
 1166loPI    C117973  15.882   7.370   5.040 -0.3151 -0.1292  0.1892
 1166loPI    C217974  15.523   7.415   4.868 -0.2660  0.2028  0.1677
 1166loPI    C317975  15.760   7.733   4.923  0.0389 -0.0178  0.1552
 1166loPI   PO417976  15.838   7.202   5.258  0.5077  0.1391  0.0241
 1166loPI   GL117977  16.071   7.212   5.610 -0.0433 -0.1289  0.2424
 1166loPI   GL217978  16.013   7.598   5.642 -0.0160 -0.1556  0.2340
 1166loPI   C1A17979  16.174   7.237   6.040  0.2615  0.4013  0.1463
 1166loPI   C2A17980  16.002   7.200   6.409  0.0095 -0.0076 -0.3701
 1166loPI   C3A17981  15.741   7.312   6.802  0.1506  0.3898  0.0130
 1166loPI   C4A17982  15.759   7.259   7.194  0.1387  0.2037  0.3045
 1166loPI   C5A17983  15.445   7.572   7.359 -0.3316  0.1634  0.0305
 1166loPI   C6A17984  15.219   8.027   7.453  0.1402  0.2131 -0.2612
 1166loPI   C1B17985  15.920   7.708   6.114  0.0254 -0.3232  0.0148
 1166loPI   C2B17986  15.864   7.700   6.477  0.1522  0.0450  0.3573
 1166loPI   C3B17987  16.060   7.671   6.935  0.4796 -0.3250  0.0572
 1166loPI   C4B17988  16.334   7.853   7.259  0.3106 -0.0725 -0.0861
 1167loPI    C117989   1.681   5.549   4.787  0.2176 -0.0498 -0.3172
 1167loPI    C217990   1.353   5.688   4.605  0.0525 -0.0043  0.0077
 1167loPI    C317991   1.683   5.613   4.392 -0.1015  0.1469 -0.2908
 1167loPI   PO417992   1.612   5.639   5.045 -0.4372 -0.0555 -0.1748
 1167loPI   GL117993   1.473   5.621   5.430  0.2851 -0.0543  0.1332
 1167loPI   GL217994   1.724   5.778   5.472 -0.0177  0.0426  0.0504
 1167loPI   C1A17995   1.658   5.573   5.882 -0.4461 -0.0538  0.1533
 1167loPI   C2A17996   1.943   5.627   6.270 -0.0219  0.1205 -0.1727
 1167loPI   C3A17997   2.029   5.752   6.605 -0.1217 -0.1378  0.0216
 1167loPI   C4A17998   2.094   6.091   6.927 -0.1794 -0.0860  0.0946
 1167loPI   C5A17999   2.439   6.200   7.189 -0.2100  0.0484 -0.1525
 1167loPI   C6A18000   2.813   6.104   7.497  0.0155 -0.1411  0.3913
 1167loPI   C1B18001   1.407   6.105   5.667 -0.1226  0.0801  0.0071
 1167loPI   C2B18002   1.301   6.187   6.049  0.0290  0.3221  0.1132
 1167loPI   C3B18003   1.195   6.095   6.454  0.0641  0.5273 -0.0461
 1167loPI   C4B18004   1.038   5.741   6.593  0.1719  0.2963  0.1343
 1168loPI    C118005   8.802  14.299   4.960  0.2509  0.1806  0.2177
 1168loPI    C218006   8.585  14.207   5.283  0.0141  0.3244  0.1025
 1168loPI    C318007   8.420  14.414   4.984  0.1026 -0.1681 -0.3002
 1168loPI   PO418008   9.031  14.360   5.136  0.0305 -0.0556  0.2572
 1168loPI   GL118009   9.033  14.272   5.474  0.0268 -0.1377  0.0097
 1168loPI   GL218010   9.309  14.383   5.618  0.5068  0.0075  0.0582
 1168loPI   C1A18011   8.700  14.402   5.811  0.0563  0.3708  0.1470
 1168loPI   C2A18012   8.780  14.363   6.282 -0.3579  0.0107 -0.2271
 1168loPI   C3A18013   8.967  14.339   6.680  0.1292 -0.1932  0.0200
 1168loPI   C4A18014   8.945  14.414   7.164  0.2495 -0.2124  0.0482
 1168loPI   C5A18015   9.131  14.465   7.625 -0.0323 -0.0590  0.0440
 1168loPI   C6A18016   9.553  14.506   7.784  0.1166  0.1811 -0.3008
 1168loPI   C1B18017   9.108  14.660   6.000  0.3899 -0.1381 -0.0063
 1168loPI   C2B18018   9.155  14.680   6.410 -0.1735 -0.0550 -0.0849
 1168loPI   C3B18019   8.905  14.786   6.792 -0.0215 -0.1261 -0.0976
 1168loPI   C4B18020   8.636  15.029   6.978 -0.2192  0.4053 -0.1508
 1169loPI    C118021   1.711   4.333   5.114  0.1574  0.2492 -0.0340
 1169loPI    C218022   1.622   3.972   4.968 -0.0573  0.2666  0.0491
 1169loPI    C318023   1.571   4.297   4.741  0.3604  0.2278 -0.1089
 1169loPI   PO418024   1.658   4.253   5.371  0.3357  0.1091  0.0680
 1169loPI   GL118025   1.532   4.210   5.737 -0.0849 -0.0272  0.0297
 1169loPI   GL218026   1.234   4.151   5.651 -0.0431 -0.1873  0.0729
 1169loPI   C1A18027   1.263   4.321   6.079  0.0708 -0.3201 -0.4370
 1169loPI   C2A18028   0.988   4.087   6.380  0.0035  0.1499 -0.0593
 1169loPI   C3A18029   1.101   3.826   6.717 -0.1385  0.2361  0.0987
 1169loPI   C4A18030   1.016   3.516   7.090  0.1087 -0.1844  0.3257
 1169loPI   C5A18031   0.987   3.347   7.472  0.2205  0.0138  0.1940
 1169loPI   C6A18032   0.785   3.144   7.828 -0.1475  0.0624  0.1977
 1169loPI   C1B18033   0.784   4.208   5.941 -0.0602  0.0352  0.3772
 1169loPI   C2B18034   0.525   3.960   6.208  0.1022  0.1243 -0.4172
 1169loPI   C3B18035   0.159   3.789   6.204  0.0946 -0.0224  0.0432
 1169loPI   C4B18036   0.009   3.554   5.852 -0.0382 -0.0509  0.1495
 1170loPI    C118037   8.216   0.061   5.128  0.1414 -0.0491  0.0784
 1170loPI    C218038   8.196   0.263   4.783  0.4435  0.0420  0.1114
 1170loPI    C318039   8.162  -0.136   4.784  0.2237  0.0592  0.0025
 1170loPI   PO418040   7.985   0.187   5.279 -0.2597 -0.2166  0.3042
 1170loPI   GL118041   7.973   0.175   5.769 -0.1458  0.2695  0.2445
 1170loPI   GL218042   8.054  -0.089   5.696 -0.5041 -0.1713  0.0260
 1170loPI   C1A18043   7.910   0.269   6.298 -0.1075  0.1285 -0.2648
 1170loPI   C2A18044   7.785   0.255   6.705  0.1116 -0.0742  0.3605
 1170loPI   C3A18045   7.600   0.188   7.037 -0.0322  0.0424 -0.0072
 1170loPI   C4A18046   7.491  -0.172   7.399 -0.2679  0.0099  0.2743
 1170loPI   C5A18047   7.372  -0.333   7.716 -0.1279  0.0346  0.1236
 1170loPI   C6A18048   7.646  -0.537   8.025 -0.1558  0.0813 -0.1052
 1170loPI   C1B18049   8.095  -0.185   6.105 -0.1021  0.1606 -0.0742
 1170loPI   C2B18050   8.009  -0.203   6.552 -0.0629 -0.0537  0.1735
 1170loPI   C3B18051   7.987  -0.122   7.024  0.0848  0.5024 -0.1792
 1170loPI   C4B18052   7.929   0.089   7.474 -0.0432  0.0879 -0.1233
 1171loPI    C118053   0.270  12.460   4.408 -0.0530 -0.0174  0.0303
 1171loPI    C218054   0.297  12.087   4.267  0.0712 -0.0672  0.1823
 1171loPI    C318055   0.399  12.397   4.035 -0.1205 -0.1199  0.0239
 1171loPI   PO418056   0.449  12.414   4.612  0.0217 -0.0989 -0.2306
 1171loPI   GL118057   0.469  12.115   5.005  0.0446  0.1635 -0.4998
 1171loPI   GL218058   0.199  12.347   5.142  0.2971 -0.1215  0.0900
 1171loPI   C1A18059   0.694  11.936   5.384  0.3074 -0.3368  0.1592
 1171loPI   C2A18060   0.791  11.959   5.797 -0.0857 -0.0586  0.0921
 1171loPI   C3A18061   0.783  11.647   6.183  0.0238 -0.1756 -0.0292
 1171loPI   C4A18062   0.962  11.460   6.674  0.1552  0.0773 -0.1185
 1171loPI   C5A18063   1.086  11.331   7.068 -0.2236 -0.1045  0.1367
 1171loPI   C6A18064   1.427  11.041   7.270  0.1283 -0.4231  0.0988
 1171loPI   C1B18065   0.131  12.223   5.554  0.3381  0.2315  0.2723
 1171loPI   C2B18066   0.076  12.402   5.935  0.0131  0.1101  0.0903
 1171loPI   C3B18067  -0.028  12.523   6.383  0.0774  0.0720 -0.0135
 1171loPI   C4B18068   0.091  12.717   6.767  0.1852 -0.0956 -0.0879
 1172loPI    C118069   1.173  13.278   4.784  0.0112 -0.0455  0.0558
 1172loPI    C218070   1.507  13.435   4.939 -0.0563  0.3073 -0.1443
 1172loPI    C318071   1.366  13.570   4.589 -0.2268 -0.0716 -0.2270
 1172loPI   PO418072   1.207  13.026   5.037 -0.0812  0.2131  0.2050
 1172loPI   GL118073   1.211  12.621   5.339  0.0749  0.0974  0.4716
 1172loPI   GL218074   1.079  12.286   5.331 -0.4105  0.1766 -0.4281
 1172loPI   C1A18075   1.218  12.873   5.678  0.3966  0.0306  0.2050
 1172loPI   C2A18076   1.439  12.690   6.047  0.1181 -0.1845 -0.2365
 1172loPI   C3A18077   1.581  12.714   6.366 -0.0862  0.3094  0.0840
 1172loPI   C4A18078   1.797  12.581   6.808 -0.1714  0.2400  0.1309
 1172loPI   C5A18079   2.121  12.372   7.069  0.1813 -0.0120 -0.2242
 1172loPI   C6A18080   2.363  12.124   7.334 -0.3219  0.0805 -0.1796
 1172loPI   C1B18081   1.066  12.412   5.786  0.4475 -0.1573 -0.0568
 1172loPI   C2B18082   1.003  12.210   6.188 -0.1520  0.1053  0.2040
 1172loPI   C3B18083   0.875  11.992   6.525 -0.1467  0.1085 -0.2480
 1172loPI   C4B18084   1.050  11.837   6.982  0.0964 -0.0015 -0.1710
 1173loPI    C118085   5.286   8.190   4.878  0.2898  0.0046  0.2066
 1173loPI    C218086   5.376   8.438   4.577  0.0611 -0.0162  0.1192
 1173loPI    C318087   5.388   8.043   4.521  0.0095 -0.0201  0.1347
 1173loPI   PO418088   5.480   8.222   5.143  0.1210  0.0678  0.1693
 1173loPI   GL118089   5.240   8.436   5.518  0.0227  0.0064  0.0386
 1173loPI   GL218090   5.301   8.018   5.701  0.1533 -0.2387  0.0029
 1173loPI   C1A18091   5.060   8.644   5.853  0.2875 -0.0858  0.3389
 1173loPI   C2A18092   4.987   8.568   6.330 -0.2259  0.0453  0.1278
 1173loPI   C3A18093   5.064   8.585   6.761 -0.3449  0.0412  0.2327
 1173loPI   C4A18094   5.073   8.419   7.194 -0.1800 -0.2606  0.1059
 1173loPI   C5A18095   4.842   7.988   7.282  0.2541 -0.1073 -0.2140
 1173loPI   C6A18096   4.558   7.665   7.382  0.0793 -0.0039  0.1104
 1173loPI   C1B18097   5.169   7.721   6.052  0.1527  0.1840 -0.0410
 1173loPI   C2B18098   4.978   7.680   6.406 -0.1841 -0.1349  0.1922
 1173loPI   C3B18099   5.002   7.537   6.795 -0.1299 -0.2553 -0.2285
 1173loPI   C4B18100   5.018   7.461   7.217  0.4160  0.1543  0.1627
 1174loPI    C118101   1.358   0.950   5.530  0.0779  0.0809 -0.0347
 1174loPI    C218102   1.573   1.159   5.266 -0.0523  0.0710 -0.1499
 1174loPI    C318103   1.488   0.774   5.196 -0.0036  0.0410 -0.0458
 1174loPI   PO418104   1.139   1.090   5.554 -0.3058 -0.1908  0.1334
 1174loPI   GL118105   0.938   1.325   5.854 -0.0013  0.0924 -0.0575
 1174loPI   GL218106   0.884   1.679   5.883 -0.3733 -0.1151  0.1136
 1174loPI   C1A18107   1.043   1.353   6.202  0.0582 -0.2260 -0.2198
 1174loPI   C2A18108   0.932   1.795   6.391  0.1304  0.0897 -0.0082
 1174loPI   C3A18109   1.070   2.116   6.558  0.2523 -0.0380 -0.1545
 1174loPI   C4A18110   1.089   2.333   7.016  0.1518 -0.2699  0.0824
 1174loPI   C5A18111   1.199   2.611   7.331  0.0246  0.1220  0.1642
 1174loPI   C6A18112   1.204   2.918   7.576 -0.0111 -0.0361  0.1664
 1174loPI   C1B18113   0.555   1.469   6.209 -0.1041 -0.1662  0.3092
 1174loPI   C2B18114   0.370   1.628   6.650 -0.1327 -0.1909 -0.1209
 1174loPI   C3B18115   0.323   1.744   7.156 -0.1890 -0.1167 -0.0272
 1174loPI   C4B18116   0.159   1.618   7.557  0.2242  0.4221  0.1635
 1175loPI    C118117   2.416   4.609   5.181 -0.2562  0.0085  0.0236
 1175loPI    C218118   2.483   4.728   5.557  0.2209 -0.1257 -0.0119
 1175loPI    C318119   2.336   4.986   5.288  0.1375  0.0481  0.1973
 1175loPI   PO418120   2.560   4.321   5.270  0.1521  0.2707  0.1825
 1175loPI   GL118121   2.492   4.150   5.742  0.5759  0.0475  0.2509
 1175loPI   GL218122   2.713   4.390   5.926  0.1241 -0.0533 -0.0415
 1175loPI   C1A18123   2.286   4.192   6.230 -0.1116  0.3334 -0.1386
 1175loPI   C2A18124   2.253   4.507   6.503 -0.2853  0.0825 -0.1106
 1175loPI   C3A18125   2.038   4.769   6.820 -0.0304  0.3404  0.1162
 1175loPI   C4A18126   1.831   5.039   7.212  0.1621 -0.2294  0.2039
 1175loPI   C5A18127   1.848   5.250   7.553  0.1445 -0.0685 -0.1929
 1175loPI   C6A18128   1.915   5.642   7.793 -0.1650  0.1375 -0.0558
 1175loPI   C1B18129   2.690   4.643   6.191 -0.2850  0.0265  0.3085
 1175loPI   C2B18130   2.675   4.853   6.602  0.0849  0.2714 -0.1158
 1175loPI   C3B18131   2.820   4.811   7.064  0.0192  0.4613 -0.1112
 1175loPI   C4B18132   2.653   4.679   7.418  0.1181 -0.1670 -0.1931
 1176loPI    C118133  14.291  13.863   5.247  0.0794 -0.0505 -0.1116
 1176loPI    C218134  14.021  14.052   5.021  0.0035  0.1635  0.1518
 1176loPI    C318135  14.408  14.068   4.924 -0.0537  0.0292 -0.1102
 1176loPI   PO418136  14.243  13.913   5.485  0.0000  0.0633 -0.2935
 1176loPI   GL118137  14.451  14.020   5.855 -0.0916  0.1694  0.0348
 1176loPI   GL218138  14.714  14.043   5.984 -0.0797 -0.1203  0.0369
 1176loPI   C1A18139  14.223  14.144   6.177 -0.1279 -0.1013  0.0850
 1176loPI   C2A18140  14.064  14.214   6.517 -0.2093  0.0570  0.0116
 1176loPI   C3A18141  13.913  14.538   6.910 -0.3706 -0.1990  0.0234
 1176loPI   C4A18142  14.310  14.643   7.120 -0.4205  0.2254 -0.1085
 1176loPI   C5A18143  14.700  14.845   7.176  0.3096  0.1437  0.0364
 1176loPI   C6A18144  14.875  15.024   6.960 -0.2452  0.3112 -0.2458
 1176loPI   C1B18145  14.712  13.933   6.360 -0.2877  0.1872  0.1727
 1176loPI   C2B18146  14.550  13.870   6.685 -0.1759  0.0616  0.3427
 1176loPI   C3B18147  14.201  13.936   7.004  0.3731  0.1479 -0.1067
 1176loPI   C4B18148  14.189  14.137   7.348  0.1214  0.2509 -0.2774
 1177loPI    C118149   1.809   2.770   5.068 -0.0144  0.1958  0.1305
 1177loPI    C218150   1.966   3.124   4.967 -0.0294  0.1218 -0.1606
 1177loPI    C318151   2.122   2.786   4.820 -0.0290  0.0068  0.0984
 1177loPI   PO418152   1.692   2.828   5.302  0.0638 -0.0912  0.0911
 1177loPI   GL118153   1.719   2.783   5.648  0.0501  0.1120 -0.3749
 1177loPI   GL218154   1.596   2.460   5.820 -0.0967  0.0062 -0.0737
 1177loPI   C1A18155   1.647   2.941   6.145 -0.0280  0.2101 -0.0753
 1177loPI   C2A18156   1.687   3.151   6.494 -0.0722 -0.0728  0.0430
 1177loPI   C3A18157   1.936   3.307   6.901 -0.1706 -0.2138  0.0380
 1177loPI   C4A18158   1.980   3.321   7.373 -0.3865  0.0385 -0.1081
 1177loPI   C5A18159   1.999   3.012   7.690  0.1100  0.0293 -0.2279
 1177loPI   C6A18160   2.068   2.800   8.080  0.2854 -0.3770 -0.0692
 1177loPI   C1B18161   1.495   2.263   6.296 -0.2540 -0.1341 -0.3446
 1177loPI   C2B18162   1.445   2.038   6.811  0.2078  0.0071  0.3296
 1177loPI   C3B18163   1.242   1.904   7.224 -0.2118 -0.1328 -0.2129
 1177loPI   C4B18164   1.326   1.690   7.561  0.0899  0.2240  0.2807
 1178loPI    C118165  12.555  14.501   4.790  0.0712 -0.0498  0.0106
 1178loPI    C218166  12.199  14.541   4.614  0.0863 -0.0672 -0.0243
 1178loPI    C318167  12.481  14.315   4.444  0.0856 -0.1207  0.0453
 1178loPI   PO418168  12.510  14.363   5.018 -0.1265 -0.1091 -0.3546
 1178loPI   GL118169  12.682  14.377   5.603 -0.2199 -0.1273  0.5658
 1178loPI   GL218170  12.451  14.136   5.689  0.0101 -0.2536  0.0038
 1178loPI   C1A18171  12.847  14.405   5.926  0.2813 -0.3040 -0.3618
 1178loPI   C2A18172  12.776  14.434   6.419  0.0497  0.0711 -0.3582
 1178loPI   C3A18173  12.809  14.528   6.802 -0.3492  0.2502 -0.3474
 1178loPI   C4A18174  12.783  14.585   7.299 -0.2380 -0.1536  0.1860
 1178loPI   C5A18175  12.624  14.627   7.719 -0.0964 -0.2170 -0.1283
 1178loPI   C6A18176  12.627  14.755   8.200 -0.1289  0.2406 -0.1114
 1178loPI   C1B18177  12.651  13.934   6.156 -0.0473 -0.2766 -0.1769
 1178loPI   C2B18178  12.656  13.885   6.572 -0.0883  0.0308 -0.2660
 1178loPI   C3B18179  12.711  13.981   6.984 -0.0515  0.1991 -0.0540
 1178loPI   C4B18180  12.605  13.818   7.403 -0.0585  0.0575 -0.1948
 1179loPI    C118181   3.764  16.433   4.807  0.1215 -0.3382 -0.0269
 1179loPI    C218182   4.021  16.676   4.620 -0.0910 -0.1154 -0.0344
 1179loPI    C318183   3.802  16.416   4.409 -0.2927  0.0998 -0.0945
 1179loPI   PO418184   3.938  16.302   5.026  0.1510 -0.0187 -0.1892
 1179loPI   GL118185   4.005  16.121   5.332 -0.0080 -0.1204  0.0057
 1179loPI   GL218186   4.174  16.428   5.454 -0.0840 -0.0046 -0.0534
 1179loPI   C1A18187   4.164  15.981   5.819 -0.1382 -0.0364 -0.1040
 1179loPI   C2A18188   4.242  15.940   6.188 -0.1588 -0.0646 -0.1039
 1179loPI   C3A18189   4.464  15.840   6.521  0.2059  0.0332 -0.1477
 1179loPI   C4A18190   4.455  15.912   6.999  0.1374  0.2398 -0.1213
 1179loPI   C5A18191   4.384  15.589   7.204  0.2313  0.1536  0.1284
 1179loPI   C6A18192   4.297  15.458   7.616  0.1818 -0.0837  0.0088
 1179loPI   C1B18193   4.321  16.552   5.943 -0.3184 -0.0004 -0.2219
 1179loPI   C2B18194   4.367  16.408   6.393 -0.1431 -0.0765  0.0765
 1179loPI   C3B18195   4.180  16.385   6.794 -0.3806  0.0280 -0.1343
 1179loPI   C4B18196   4.239  16.311   7.208  0.3073 -0.2595  0.1284
 1180loPI    C118197  13.986   4.439   5.398  0.1462 -0.0854  0.0523
 1180loPI    C218198  14.309   4.388   5.628  0.2838 -0.0767 -0.1371
 1180loPI    C318199  14.351   4.485   5.242  0.0601 -0.2829 -0.2157
 1180loPI   PO418200  13.852   4.228   5.520 -0.0668 -0.0502 -0.1331
 1180loPI   GL118201  13.924   4.125   5.879  0.1450  0.1177  0.0775
 1180loPI   GL218202  13.922   3.742   5.821  0.1723  0.1499  0.4336
 1180loPI   C1A18203  13.967   4.221   6.235 -0.1684  0.0304  0.3083
 1180loPI   C2A18204  14.039   3.987   6.594 -0.2002  0.1164  0.3253
 1180loPI   C3A18205  14.117   3.886   7.043  0.0448  0.0353  0.0904
 1180loPI   C4A18206  14.061   3.769   7.453  0.2142 -0.0933  0.1284
 1180loPI   C5A18207  14.245   3.362   7.680 -0.1670 -0.1573  0.0618
 1180loPI   C6A18208  14.651   3.208   7.651  0.0678  0.1186  0.2317
 1180loPI   C1B18209  14.115   3.531   6.124  0.0888 -0.0247  0.0780
 1180loPI   C2B18210  14.336   3.543   6.490 -0.0102  0.2949 -0.2498
 1180loPI   C3B18211  14.528   3.731   6.808 -0.0603  0.2118 -0.2370
 1180loPI   C4B18212  14.560   4.239   6.976  0.0983  0.3418 -0.0109
 1181loPI    C118213   0.873  16.520   4.690  0.3620  0.0304 -0.0981
 1181loPI    C218214   0.655  16.698   4.406 -0.0399 -0.0099  0.1781
 1181loPI    C318215   0.709  16.302   4.398  0.4312  0.0530 -0.1544
 1181loPI   PO418216   0.830  16.730   4.867 -0.0134 -0.0147  0.1193
 1181loPI   GL118217   0.913  16.721   5.290  0.0142 -0.3268  0.1678
 1181loPI   GL218218   1.227  16.425   5.210 -0.1144  0.1202  0.1075
 1181loPI   C1A18219   1.115  16.698   5.696 -0.4058 -0.1672 -0.1168
 1181loPI   C2A18220   1.170  16.602   6.193 -0.1539 -0.0021 -0.1320
 1181loPI   C3A18221   1.071  16.478   6.586  0.1506  0.0852 -0.1115
 1181loPI   C4A18222   0.954  16.412   6.985 -0.0337 -0.2506 -0.2599
 1181loPI   C5A18223   0.645  16.631   7.189 -0.3466 -0.0843  0.2074
 1181loPI   C6A18224   0.682  17.078   7.248 -0.0933  0.0538  0.0555
 1181loPI   C1B18225   1.472  16.263   5.522  0.1592  0.0408 -0.0336
 1181loPI   C2B18226   1.298  16.169   5.953  0.0222  0.0676 -0.0268
 1181loPI   C3B18227   1.146  15.985   6.351 -0.3744  0.1677 -0.0294
 1181loPI   C4B18228   1.005  15.771   6.670 -0.1972 -0.1021  0.2187
 1182loPI    C118229   8.648  10.187   4.913 -0.0585 -0.1705  0.2109
 1182loPI    C218230   8.719  10.358   4.559 -0.4278  0.1144  0.2682
 1182loPI    C318231   9.012  10.163   4.749 -0.1698  0.1387 -0.0934
 1182loPI   PO418232   8.548  10.298   4.996  0.1204 -0.0714  0.0525
 1182loPI   GL118233   8.483  10.517   5.338 -0.0251  0.0157 -0.1442
 1182loPI   GL218234   8.188  10.561   5.392  0.0346  0.0241 -0.1590
 1182loPI   C1A18235   8.536  10.800   5.670 -0.3576  0.0318  0.0516
 1182loPI   C2A18236   8.579  10.989   6.087 -0.1312  0.0691 -0.3187
 1182loPI   C3A18237   8.662  10.904   6.474 -0.0565  0.2218 -0.3720
 1182loPI   C4A18238   8.664  10.775   6.850 -0.3766 -0.0952  0.1683
 1182loPI   C5A18239   8.548  10.936   7.250 -0.0298 -0.0542 -0.0259
 1182loPI   C6A18240   8.328  11.191   7.552  0.1092 -0.0352 -0.0962
 1182loPI   C1B18241   7.833  10.679   5.618  0.1000  0.0772 -0.1498
 1182loPI   C2B18242   7.739  10.532   6.002 -0.0793 -0.1707  0.1379
 1182loPI   C3B18243   7.734  10.717   6.366 -0.1666  0.0733 -0.0043
 1182loPI   C4B18244   7.754  10.806   6.782 -0.1509 -0.2485  0.0447
 1183loPI    C118245   1.190  17.569   5.313  0.0639  0.0324  0.2006
 1183loPI    C218246   1.272  17.422   4.950 -0.1439  0.2144  0.0775
 1183loPI    C318247   1.527  17.675   5.126  0.0048  0.0492  0.1034
 1183loPI   PO418248   0.962  17.653   5.342 -0.3021 -0.1339 -0.1081
 1183loPI   GL118249   0.918  17.821   5.703 -0.2597 -0.0035  0.2425
 1183loPI   GL218250   0.758  18.168   5.598  0.0020 -0.0422  0.2917
 1183loPI   C1A18251   1.183  17.735   6.043  0.0416 -0.3220  0.0900
 1183loPI   C2A18252   1.605  17.776   6.232 -0.1559 -0.1151  0.2989
 1183loPI   C3A18253   1.932  17.507   6.270  0.2318  0.2946 -0.1133
 1183loPI   C4A18254   2.273  17.545   6.554 -0.1123 -0.0096  0.1553
 1183loPI   C5A18255   2.593  17.640   6.809  0.1090  0.2184  0.2091
 1183loPI   C6A18256   2.770  17.374   7.176 -0.3194  0.3044 -0.1443
 1183loPI   C1B18257   0.835  18.174   6.070 -0.1571  0.2827 -0.0082
 1183loPI   C2B18258   0.916  18.007   6.449  0.0856 -0.1690  0.0952
 1183loPI   C3B18259   1.134  17.831   6.860 -0.0200  0.1371  0.1378
 1183loPI   C4B18260   1.472  17.568   7.131  0.4367  0.1676 -0.0288
 1184loPI    C118261   4.877  14.135   4.687 -0.1094  0.1819 -0.1484
 1184loPI    C218262   4.920  13.840   4.421 -0.0770  0.0994 -0.0527
 1184loPI    C318263   4.688  14.155   4.335  0.0042  0.1168 -0.2133
 1184loPI   PO418264   4.807  14.033   4.851  0.0383  0.2732 -0.3622
 1184loPI   GL118265   4.700  14.223   5.324 -0.1801 -0.0666  0.2093
 1184loPI   GL218266   4.238  14.180   5.297  0.4402 -0.0872 -0.1141
 1184loPI   C1A18267   4.627  13.848   5.642 -0.0651  0.2088 -0.2931
 1184loPI   C2A18268   4.651  13.775   6.046 -0.0046  0.1810  0.1670
 1184loPI   C3A18269   4.719  13.660   6.426  0.0696 -0.3230 -0.2125
 1184loPI   C4A18270   4.695  13.399   6.768  0.1045 -0.0209  0.2962
 1184loPI   C5A18271   4.492  13.369   7.230  0.1027  0.1382 -0.0072
 1184loPI   C6A18272   4.185  13.498   7.545  0.0982  0.1877  0.3526
 1184loPI   C1B18273   4.342  14.228   5.759  0.2136  0.5147 -0.1403
 1184loPI   C2B18274   4.261  14.358   6.242  0.0237 -0.1774 -0.0244
 1184loPI   C3B18275   4.151  14.271   6.642 -0.1554 -0.0870 -0.1055
 1184loPI   C4B18276   3.832  14.296   7.109 -0.2937 -0.2363  0.0265
 1185loPI    C118277  17.118   1.188   4.693  0.0951 -0.2032  0.0661
 1185loPI    C218278  17.482   1.024   4.687  0.0065 -0.3979 -0.2444
 1185loPI    C318279  17.358   1.247   4.379 -0.0562 -0.1458 -0.0403
 1185loPI   PO418280  17.100   1.260   4.902  0.1807 -0.4742 -0.2378
 1185loPI   GL118281  17.289   1.014   5.191  0.1987  0.1618 -0.1366
 1185loPI   GL218282  17.102   0.989   5.498  0.1392  0.0784  0.0414
 1185loPI   C1A18283  17.601   1.106   5.567 -0.0258 -0.1947 -0.0108
 1185loPI   C2A18284  17.596   1.104   6.038  0.4225  0.1129 -0.1172
 1185loPI   C3A18285  17.782   1.188   6.439 -0.1576 -0.1093 -0.1008
 1185loPI   C4A18286  17.846   1.211   6.880 -0.0294 -0.1579  0.0156
 1185loPI   C5A18287  17.994   1.322   7.273 -0.0184 -0.0149 -0.0183
 1185loPI   C6A18288  18.282   1.429   7.665  0.0104  0.1353 -0.1027
 1185loPI   C1B18289  17.068   1.082   5.899 -0.4196  0.0123  0.1387
 1185loPI   C2B18290  17.206   1.119   6.320  0.0903 -0.0316  0.3872
 1185loPI   C3B18291  17.397   1.392   6.728 -0.1832  0.1633 -0.1833
 1185loPI   C4B18292  17.541   1.568   7.020 -0.6756 -0.2735  0.0533
 1186loPI    C118293   3.269  15.596   4.338  0.2113 -0.0616 -0.0748
 1186loPI    C218294   3.240  15.322   4.049 -0.0411  0.0616 -0.1697
 1186loPI    C318295   3.288  15.707   3.954  0.1459  0.0711 -0.0403
 1186loPI   PO418296   3.383  15.459   4.574 -0.2947 -0.3928 -0.2448
 1186loPI   GL118297   3.289  15.246   4.882  0.1106 -0.1579  0.3786
 1186loPI   GL218298   3.094  15.071   5.041 -0.1711  0.1623  0.2270
 1186loPI   C1A18299   3.499  15.155   5.288 -0.1620 -0.1135 -0.2737
 1186loPI   C2A18300   3.771  15.204   5.559  0.0345  0.0658 -0.2450
 1186loPI   C3A18301   3.811  15.114   6.076 -0.1972  0.2232  0.1847
 1186loPI   C4A18302   3.713  15.149   6.529  0.1398 -0.0549 -0.3143
 1186loPI   C5A18303   3.852  15.156   7.029 -0.2227  0.1664  0.1195
 1186loPI   C6A18304   4.210  15.048   7.322  0.1597  0.1030 -0.0753
 1186loPI   C1B18305   2.990  15.063   5.438 -0.1448 -0.1874  0.0636
 1186loPI   C2B18306   3.021  14.963   5.924  0.0975  0.1042  0.2306
 1186loPI   C3B18307   2.838  14.876   6.312 -0.2796  0.0389  0.0554
 1186loPI   C4B18308   2.792  15.184   6.817 -0.2674  0.1366 -0.1485
 1187loPI    C118309  18.501   1.484   4.954  0.0340  0.0876  0.1069
 1187loPI    C218310  18.795   1.417   4.691 -0.1136 -0.0021 -0.0373
 1187loPI    C318311  18.583   1.111   4.835 -0.0501  0.0492  0.1686
 1187loPI   PO418312  18.532   1.684   5.147 -0.0831  0.2191 -0.0949
 1187loPI   GL118313  18.447   1.800   5.545 -0.0792 -0.1614  0.1574
 1187loPI   GL218314  18.773   1.815   5.621  0.3437  0.3391  0.0473
 1187loPI   C1A18315  18.438   1.446   5.740 -0.1612 -0.3767  0.2565
 1187loPI   C2A18316  18.548   1.336   6.080 -0.1481 -0.3101 -0.3001
 1187loPI   C3A18317  18.770   1.532   6.465  0.1534  0.1066  0.2157
 1187loPI   C4A18318  18.843   1.379   6.884 -0.0166 -0.0145 -0.0585
 1187loPI   C5A18319  18.936   1.113   7.263 -0.0611  0.1225 -0.1032
 1187loPI   C6A18320  19.098   1.088   7.736 -0.1054 -0.2084  0.4457
 1187loPI   C1B18321  18.831   1.796   6.058 -0.0419 -0.2917 -0.1752
 1187loPI   C2B18322  18.907   1.995   6.527  0.3138 -0.0079  0.1251
 1187loPI   C3B18323  18.733   1.952   6.976  0.2527  0.1445 -0.0417
 1187loPI   C4B18324  18.551   1.588   7.283 -0.2043 -0.1062  0.2450
 1188loPI    C118325   9.610  15.250   4.969  0.0957 -0.0184 -0.0105
 1188loPI    C218326   9.672  15.278   4.575  0.0962  0.1449  0.0006
 1188loPI    C318327   9.411  15.523   4.755  0.0416  0.0220  0.0904
 1188loPI   PO418328   9.757  15.126   5.133  0.2161  0.0052  0.0839
 1188loPI   GL118329   9.782  15.207   5.544 -0.1162 -0.2586  0.0022
 1188loPI   GL218330  10.053  15.360   5.625 -0.0522 -0.2360 -0.0647
 1188loPI   C1A18331   9.586  15.575   5.718 -0.0082  0.1738 -0.0505
 1188loPI   C2A18332   9.575  15.729   6.166 -0.3493  0.0126 -0.0237
 1188loPI   C3A18333   9.431  15.748   6.615  0.0460  0.1718  0.1613
 1188loPI   C4A18334   9.322  15.677   7.020  0.0405 -0.0294 -0.1903
 1188loPI   C5A18335   8.954  15.398   7.220  0.0011  0.0210  0.0094
 1188loPI   C6A18336   8.601  15.295   7.430 -0.3186 -0.1535  0.0956
 1188loPI   C1B18337   9.980  15.379   6.106  0.2471  0.0666 -0.0616
 1188loPI   C2B18338   9.985  15.385   6.534  0.0606  0.0303 -0.1183
 1188loPI   C3B18339   9.706  15.356   6.763 -0.0225 -0.0632  0.2954
 1188loPI   C4B18340   9.631  15.163   7.160 -0.0975 -0.2944 -0.1499
 1189loPI    C118341  16.450   4.042   5.294  0.1128 -0.0532 -0.2270
 1189loPI    C218342  16.540   4.291   4.994  0.0910  0.1550 -0.0633
 1189loPI    C318343  16.736   4.317   5.342  0.1320 -0.1004 -0.0649
 1189loPI   PO418344  16.181   4.010   5.283 -0.1020 -0.2615  0.0899
 1189loPI   GL118345  15.899   4.151   5.638  0.0146  0.1423  0.0308
 1189loPI   GL218346  15.607   4.167   5.613  0.0712 -0.1139 -0.1769
 1189loPI   C1A18347  16.079   4.147   5.943 -0.1412  0.0208  0.4276
 1189loPI   C2A18348  15.983   4.288   6.287  0.2859 -0.2245 -0.1814
 1189loPI   C3A18349  15.812   4.675   6.579 -0.0787  0.0358 -0.2047
 1189loPI   C4A18350  15.683   4.891   6.935  0.2298 -0.0981 -0.1673
 1189loPI   C5A18351  15.814   5.104   7.279 -0.0754 -0.2027  0.0833
 1189loPI   C6A18352  15.986   5.297   7.677 -0.0169  0.0333  0.0992
 1189loPI   C1B18353  15.544   4.149   6.058 -0.3643 -0.1200 -0.1354
 1189loPI   C2B18354  15.538   4.235   6.582 -0.0416  0.1235 -0.1236
 1189loPI   C3B18355  15.505   4.320   7.047  0.0728  0.1723  0.4235
 1189loPI   C4B18356  15.740   4.298   7.466 -0.0350 -0.1457  0.2311
 1190loPI    C118357   1.289   2.765   4.915 -0.0249  0.1745 -0.0826
 1190loPI    C218358   1.141   2.397   4.865  0.2472  0.0688 -0.1286
 1190loPI    C318359   1.513   2.481   4.744  0.1384  0.3977 -0.2463
 1190loPI   PO418360   1.151   2.823   5.129  0.0352 -0.1735  0.1224
 1190loPI   GL118361   1.213   2.861   5.530 -0.4678 -0.1385  0.4019
 1190loPI   GL218362   1.054   3.012   5.674 -0.0682  0.1451 -0.0518
 1190loPI   C1A18363   1.205   2.694   6.057  0.0810 -0.0043  0.1985
 1190loPI   C2A18364   1.280   2.764   6.510  0.3430  0.2114 -0.0010
 1190loPI   C3A18365   1.379   3.001   6.925  0.1836 -0.4316 -0.0795
 1190loPI   C4A18366   1.495   3.354   7.182  0.1763 -0.0697  0.2780
 1190loPI   C5A18367   1.438   3.338   7.638  0.2225  0.0055 -0.1600
 1190loPI   C6A18368   1.516   3.620   8.101  0.1006 -0.1694 -0.1480
 1190loPI   C1B18369   1.257   3.201   6.068 -0.1123  0.1682  0.0220
 1190loPI   C2B18370   1.262   3.346   6.508  0.3967  0.1640  0.0369
 1190loPI   C3B18371   1.587   3.592   6.724  0.2272 -0.0108  0.1284
 1190loPI   C4B18372   1.612   3.898   7.085 -0.0810  0.1809 -0.0381
 1191loPI    C118373  16.580   1.245   4.859  0.0289 -0.2473 -0.1940
 1191loPI    C218374  16.308   0.980   4.984 -0.1285 -0.1317 -0.2859
 1191loPI    C318375  16.273   1.145   4.622 -0.0958  0.1004 -0.1848
 1191loPI   PO418376  16.598   1.366   5.088  0.3495  0.1986  0.0857
 1191loPI   GL118377  16.925   1.482   5.380  0.2860  0.0403  0.0924
 1191loPI   GL218378  17.304   1.501   5.342  0.0531  0.1957  0.1441
 1191loPI   C1A18379  16.804   1.508   5.751  0.1852 -0.2872  0.0990
 1191loPI   C2A18380  16.854   1.557   6.121  0.0731 -0.0949 -0.0692
 1191loPI   C3A18381  16.905   1.470   6.601 -0.0672  0.0866 -0.1461
 1191loPI   C4A18382  16.999   1.620   7.016  0.0666 -0.0349  0.0694
 1191loPI   C5A18383  17.151   1.971   7.216 -0.2058 -0.1619  0.1095
 1191loPI   C6A18384  17.315   1.915   7.590  0.3518  0.0597 -0.2566
 1191loPI   C1B18385  17.334   1.591   5.828 -0.1081  0.2739 -0.1025
 1191loPI   C2B18386  17.382   1.622   6.303 -0.0135 -0.0671 -0.0779
 1191loPI   C3B18387  17.484   1.917   6.637  0.0596 -0.1337  0.1678
 1191loPI   C4B18388  17.400   2.258   6.978 -0.0584 -0.0678  0.2298
 1192loPI    C118389   5.352  15.680   4.825  0.0853  0.1599  0.1515
 1192loPI    C218390   5.050  15.534   4.607  0.1326 -0.0807  0.2438
 1192loPI    C318391   5.417  15.558   4.449  0.0758  0.1721  0.1460
 1192loPI   PO418392   5.252  15.746   5.001 -0.0335 -0.2579 -0.0428
 1192loPI   GL118393   4.965  15.627   5.150  0.2324 -0.1080 -0.2788
 1192loPI   GL218394   4.989  15.894   5.412 -0.1592  0.2077  0.1495
 1192loPI   C1A18395   4.968  15.481   5.663 -0.1724 -0.0778 -0.0545
 1192loPI   C2A18396   5.255  15.458   6.085  0.1220  0.0765  0.4939
 1192loPI   C3A18397   5.589  15.285   6.238 -0.2394  0.3007 -0.0154
 1192loPI   C4A18398   5.918  15.335   6.497 -0.3187  0.0519  0.1031
 1192loPI   C5A18399   6.040  15.365   6.877 -0.1547  0.0388 -0.0755
 1192loPI   C6A18400   6.313  15.574   7.075 -0.0010 -0.2255  0.1211
 1192loPI   C1B18401   5.118  15.945   5.813 -0.1873  0.0952 -0.1374
 1192loPI   C2B18402   5.184  16.051   6.269 -0.1284  0.2030 -0.0859
 1192loPI   C3B18403   5.605  16.159   6.454  0.2752  0.1479  0.0786
 1192loPI   C4B18404   5.700  16.349   6.767 -0.0345  0.1336  0.0006
 1193loPI    C118405   9.318   2.369   5.181  0.0600  0.0289  0.1658
 1193loPI    C218406   9.428   2.621   4.891  0.0553  0.0453  0.1781
 1193loPI    C318407   9.050   2.494   4.912  0.1073 -0.1364  0.0405
 1193loPI   PO418408   9.459   2.516   5.404 -0.0699 -0.0099  0.2128
 1193loPI   GL118409   9.422   2.358   5.888  0.1358  0.1582 -0.1207
 1193loPI   GL218410   9.797   2.382   5.765  0.3377  0.1968 -0.1740
 1193loPI   C1A18411   9.474   2.438   6.313  0.1054  0.2578 -0.0891
 1193loPI   C2A18412   9.362   2.674   6.708  0.0174  0.1619 -0.0137
 1193loPI   C3A18413   9.605   2.676   7.035  0.0887  0.1199  0.3166
 1193loPI   C4A18414   9.744   2.946   7.399  0.1153  0.0811 -0.1765
 1193loPI   C5A18415   9.643   3.311   7.608 -0.1224  0.2287 -0.0317
 1193loPI   C6A18416   9.284   3.633   7.737  0.3785 -0.1777 -0.0863
 1193loPI   C1B18417  10.045   2.407   6.216 -0.0513  0.0267  0.2690
 1193loPI   C2B18418   9.913   2.427   6.669 -0.1138  0.1802 -0.1084
 1193loPI   C3B18419   9.688   2.206   6.871 -0.0493  0.1176  0.2454
 1193loPI   C4B18420   9.620   1.902   7.210 -0.0758  0.1165 -0.0409
 1194loPI    C118421  16.803   8.856   4.470  0.0237  0.0026 -0.0758
 1194loPI    C218422  17.164   8.998   4.570  0.0343 -0.1235  0.0688
 1194loPI    C318423  17.132   8.705   4.299  0.0359 -0.0708  0.0115
 1194loPI   PO418424  16.674   8.809   4.717  0.1517  0.0043 -0.1332
 1194loPI   GL118425  16.638   8.927   5.182  0.1955  0.1077  0.0605
 1194loPI   GL218426  16.784   9.250   5.245  0.1559  0.0314 -0.0426
 1194loPI   C1A18427  16.589   8.834   5.582  0.2449 -0.2956  0.0922
 1194loPI   C2A18428  16.761   8.659   6.000  0.0037  0.0646  0.1280
 1194loPI   C3A18429  16.771   8.581   6.428 -0.1699  0.1846 -0.3300
 1194loPI   C4A18430  16.839   8.664   6.863 -0.0223  0.0573  0.2056
 1194loPI   C5A18431  16.712   8.954   7.098 -0.0333 -0.0726 -0.1318
 1194loPI   C6A18432  16.664   9.227   7.396  0.1198  0.0813  0.0570
 1194loPI   C1B18433  16.889   9.304   5.664 -0.1329  0.0597  0.1694
 1194loPI   C2B18434  16.759   9.139   6.051  0.1800  0.0637 -0.4035
 1194loPI   C3B18435  16.942   9.174   6.341  0.0543  0.3464  0.0126
 1194loPI   C4B18436  17.021   9.184   6.732  0.0591  0.0584 -0.0890
 1195loPI    C118437   5.646  17.824   5.146 -0.1594 -0.1757 -0.0165
 1195loPI    C218438   5.786  17.525   4.920 -0.1511 -0.1699 -0.0188
 1195loPI    C318439   5.678  17.871   4.750  0.2141 -0.0280  0.0271
 1195loPI   PO418440   5.778  17.891   5.389 -0.1297  0.0328 -0.2934
 1195loPI   GL118441   5.921  17.631   5.837  0.7181 -0.0465 -0.2571
 1195loPI   GL218442   6.025  17.932   5.864  0.1803  0.1054  0.2127
 1195loPI   C1A18443   6.042  17.621   6.300 -0.0886 -0.2101 -0.0949
 1195loPI   C2A18444   6.183  17.539   6.673 -0.2039 -0.1777  0.0378
 1195loPI   C3A18445   6.382  17.647   7.091 -0.2872 -0.1324  0.0288
 1195loPI   C4A18446   6.492  17.362   7.347  0.3973  0.1887  0.3500
 1195loPI   C5A18447   6.593  16.893   7.328  0.4516 -0.1489  0.1052
 1195loPI   C6A18448   6.524  16.598   7.021 -0.1673 -0.3054 -0.0234
 1195loPI   C1B18449   6.422  18.213   6.007 -0.2744 -0.0748  0.2718
 1195loPI   C2B18450   6.708  18.426   6.306  0.0671  0.2300  0.0677
 1195loPI   C3B18451   6.925  18.399   6.629 -0.0384  0.1920 -0.1368
 1195loPI   C4B18452   7.149  18.276   7.026 -0.2616 -0.4173 -0.1947
 1196loPI    C118453   9.970  17.764   5.112  0.1667  0.0450  0.0005
 1196loPI    C218454  10.106  17.925   4.772  0.1498  0.0622  0.0016
 1196loPI    C318455   9.729  17.992   4.888  0.2181  0.2292  0.1308
 1196loPI   PO418456  10.032  17.531   5.072  0.2854  0.4197  0.1757
 1196loPI   GL118457  10.269  17.256   5.358  0.0949 -0.2089  0.0765
 1196loPI   GL218458  10.515  17.208   5.500 -0.0586  0.3156 -0.0909
 1196loPI   C1A18459  10.147  17.048   5.754  0.2222  0.3048 -0.0796
 1196loPI   C2A18460   9.834  16.857   6.001 -0.1214  0.2846  0.0817
 1196loPI   C3A18461   9.739  16.767   6.513  0.2252 -0.0472 -0.2293
 1196loPI   C4A18462   9.543  17.109   6.734 -0.0050 -0.3761  0.1816
 1196loPI   C5A18463   9.193  17.296   6.831  0.0889 -0.1251 -0.1920
 1196loPI   C6A18464   8.907  17.602   7.071 -0.3571  0.1758  0.1377
 1196loPI   C1B18465  10.632  17.130   5.908 -0.0017  0.2325 -0.1636
 1196loPI   C2B18466  10.626  16.955   6.315 -0.2753 -0.2052  0.0367
 1196loPI   C3B18467  10.576  16.594   6.645  0.1243 -0.5004  0.0357
 1196loPI   C4B18468  10.447  16.488   7.080 -0.1328  0.0169  0.1757
 1197loPI    C118469  18.028  17.434   5.281 -0.0670 -0.1523  0.2738
 1197loPI    C218470  18.332  17.392   5.025 -0.2236  0.1553  0.0303
 1197loPI    C318471  18.403  17.403   5.418  0.0401 -0.1219 -0.0052
 1197loPI   PO418472  17.774  17.190   5.249 -0.1769 -0.0852  0.0846
 1197loPI   GL118473  17.687  16.938   5.667  0.1267 -0.2850  0.0344
 1197loPI   GL218474  17.648  16.607   5.541 -0.0418 -0.0517  0.0769
 1197loPI   C1A18475  17.681  17.117   6.064 -0.1263 -0.2060  0.1712
 1197loPI   C2A18476  17.567  17.176   6.530  0.0004  0.0881 -0.0462
 1197loPI   C3A18477  17.478  17.353   6.963 -0.1213 -0.0936  0.0674
 1197loPI   C4A18478  17.276  17.513   7.330  0.1532  0.0665  0.0218
 1197loPI   C5A18479  17.123  17.888   7.555 -0.1255 -0.1072  0.0605
 1197loPI   C6A18480  16.796  18.049   7.785 -0.2656 -0.3992  0.1872
 1197loPI   C1B18481  17.887  16.298   5.866  0.2601  0.2260 -0.0013
 1197loPI   C2B18482  17.910  16.260   6.310  0.1257 -0.1076 -0.0035
 1197loPI   C3B18483  17.983  16.399   6.563  0.0881 -0.0969 -0.0040
 1197loPI   C4B18484  18.228  16.445   6.980  0.0787  0.0705 -0.0773
 1198loPI    C118485   7.252   6.475   5.120  0.1205  0.0668 -0.0417
 1198loPI    C218486   7.471   6.254   4.868 -0.3241 -0.1618 -0.2391
 1198loPI    C318487   7.340   6.615   4.756 -0.1872 -0.0934 -0.1813
 1198loPI   PO418488   7.375   6.320   5.368 -0.2226  0.0622  0.1644
 1198loPI   GL118489   7.575   6.269   5.794  0.0749  0.2511 -0.1850
 1198loPI   GL218490   7.627   6.583   5.767 -0.0324 -0.2066  0.2410
 1198loPI   C1A18491   7.689   6.169   6.251  0.4935  0.0855  0.0736
 1198loPI   C2A18492   7.719   6.111   6.701 -0.0471  0.1552  0.0512
 1198loPI   C3A18493   7.796   6.003   7.155 -0.0150 -0.0368 -0.2538
 1198loPI   C4A18494   7.822   6.117   7.645 -0.1063 -0.1031  0.1083
 1198loPI   C5A18495   7.965   6.325   7.948  0.1973 -0.2777 -0.0025
 1198loPI   C6A18496   8.342   6.580   7.996 -0.0714  0.0826  0.1174
 1198loPI   C1B18497   7.758   6.740   6.065 -0.1687 -0.1178 -0.0577
 1198loPI   C2B18498   7.643   6.591   6.527 -0.1280  0.0522  0.0676
 1198loPI   C3B18499   7.681   6.500   7.000  0.0840  0.0133  0.0618
 1198loPI   C4B18500   7.609   6.693   7.336  0.3067  0.3574  0.2564
 1199loPI    C118501  11.774  13.501   4.855  0.1038  0.0851 -0.0056
 1199loPI    C218502  11.489  13.755   4.735 -0.1787 -0.1393  0.1733
 1199loPI    C318503  11.648  13.495   4.476 -0.2269 -0.0988  0.1028
 1199loPI   PO418504  11.636  13.395   5.120  0.0302 -0.1500  0.0010
 1199loPI   GL118505  11.718  13.284   5.586  0.0879 -0.2129 -0.2156
 1199loPI   GL218506  11.452  13.533   5.718  0.1242  0.5258 -0.1187
 1199loPI   C1A18507  11.568  12.931   5.847 -0.0876  0.0515 -0.5458
 1199loPI   C2A18508  11.300  12.766   6.141  0.2698 -0.1964 -0.0762
 1199loPI   C3A18509  11.248  12.596   6.581 -0.1301  0.0410  0.0925
 1199loPI   C4A18510  11.389  12.683   6.942  0.0472 -0.3442  0.0966
 1199loPI   C5A18511  11.793  12.967   7.018  0.0096  0.3004 -0.3541
 1199loPI   C6A18512  11.971  13.298   7.181  0.1859 -0.2739  0.0403
 1199loPI   C1B18513  11.083  13.253   6.026  0.0867  0.2450 -0.0345
 1199loPI   C2B18514  11.204  13.176   6.434  0.0172 -0.1480  0.0056
 1199loPI   C3B18515  11.282  13.177   6.941  0.1774  0.0800  0.1831
 1199loPI   C4B18516  11.437  13.232   7.283 -0.1416 -0.3506 -0.0659
 1200loPI    C118517   1.003  18.782   5.094 -0.1193 -0.0629  0.0807
 1200loPI    C218518   0.876  18.815   4.716  0.0971 -0.1972 -0.0059
 1200loPI    C318519   0.886  19.137   4.952  0.2267 -0.0559 -0.2008
 1200loPI   PO418520   0.815  18.521   5.217 -0.0032 -0.2352 -0.1451
 1200loPI   GL118521   0.645  18.731   5.600 -0.4270  0.3616  0.0068
 1200loPI   GL218522   0.277  18.802   5.616  0.2778 -0.2285 -0.1607
 1200loPI   C1A18523   0.775  18.930   5.944  0.0881 -0.1351  0.0834
 1200loPI   C2A18524   0.821  19.022   6.354  0.0334  0.3014 -0.0621
 1200loPI   C3A18525   0.739  19.055   6.728 -0.1777  0.1406  0.0267
 1200loPI   C4A18526   0.532  18.945   7.169 -0.1723  0.0844  0.1247
 1200loPI   C5A18527   0.152  19.138   7.376 -0.1398 -0.2528 -0.1982
 1200loPI   C6A18528  -0.206  18.984   7.589  0.0136  0.1620  0.4834
 1200loPI   C1B18529   0.279  19.014   6.092 -0.2171  0.4377 -0.2376
 1200loPI   C2B18530   0.297  18.903   6.502 -0.0415  0.3186  0.1166
 1200loPI   C3B18531   0.203  18.626   6.883  0.1140  0.0263  0.0989
 1200loPI   C4B18532   0.157  18.252   7.089  0.4007  0.0219  0.2274
 1201loPI    C118533   0.160   7.421   4.904  0.5304  0.4005  0.0403
 1201loPI    C218534   0.509   7.324   4.735  0.3174  0.2119 -0.3025
 1201loPI    C318535   0.166   7.249   4.543  0.0618 -0.0634  0.2388
 1201loPI   PO418536   0.346   7.714   5.035  0.1341 -0.0232 -0.2948
 1201loPI   GL118537   0.323   8.130   5.226 -0.0084 -0.4014 -0.1554
 1201loPI   GL218538   0.122   8.011   5.483  0.1003 -0.1101  0.2366
 1201loPI   C1A18539   0.314   8.467   5.475 -0.3436 -0.2766 -0.1687
 1201loPI   C2A18540   0.240   8.879   5.673 -0.0214 -0.3339 -0.2282
 1201loPI   C3A18541  -0.004   9.088   6.037 -0.1532 -0.0411 -0.0823
 1201loPI   C4A18542  -0.117   9.231   6.442 -0.4286  0.0173  0.1697
 1201loPI   C5A18543  -0.054   9.326   6.792 -0.0131 -0.0884  0.1571
 1201loPI   C6A18544  -0.220   9.531   7.127  0.1274 -0.2394  0.1622
 1201loPI   C1B18545   0.120   8.056   5.853  0.1910 -0.1097 -0.0326
 1201loPI   C2B18546   0.143   8.203   6.296  0.0376  0.0556 -0.1185
 1201loPI   C3B18547   0.313   8.468   6.626 -0.1067  0.0132 -0.1633
 1201loPI   C4B18548   0.440   8.483   7.075  0.2537 -0.2645  0.0641
 1202loPI    C118549   5.698   0.762   5.207  0.0042  0.0068 -0.2176
 1202loPI    C218550   5.627   0.369   5.181 -0.1247  0.0251 -0.1526
 1202loPI    C318551   5.835   0.554   4.894  0.0243 -0.1091 -0.1328
 1202loPI   PO418552   5.470   0.819   5.302  0.2476 -0.1779  0.0500
 1202loPI   GL118553   5.287   0.802   5.695  0.3220 -0.2430 -0.3853
 1202loPI   GL218554   5.049   0.678   5.781 -0.0183 -0.1384 -0.1817
 1202loPI   C1A18555   5.453   0.458   5.967  0.2295  0.1777  0.0863
 1202loPI   C2A18556   5.540   0.259   6.370  0.0481 -0.0044  0.2246
 1202loPI   C3A18557   5.730   0.177   6.757 -0.1635  0.1970 -0.1798
 1202loPI   C4A18558   5.479  -0.158   6.971  0.1377 -0.2019 -0.0148
 1202loPI   C5A18559   5.388  -0.324   7.402  0.0002  0.1407 -0.0818
 1202loPI   C6A18560   5.391  -0.576   7.779  0.0201 -0.4361 -0.1217
 1202loPI   C1B18561   5.048   0.485   6.247 -0.4284  0.1109 -0.0230
 1202loPI   C2B18562   5.092   0.338   6.689  0.0537  0.1990  0.2951
 1202loPI   C3B18563   5.138   0.132   7.151  0.2938 -0.1110  0.1240
 1202loPI   C4B18564   4.872  -0.001   7.412 -0.0552 -0.1646 -0.2201
 1203loPI    C118565  15.474  13.149   4.860 -0.1373  0.1725  0.1613
 1203loPI    C218566  15.440  12.911   4.540  0.0320  0.3659 -0.0035
 1203loPI    C318567  15.228  13.250   4.562 -0.0186  0.3272  0.1139
 1203loPI   PO418568  15.391  12.973   5.107  0.0090  0.3515 -0.0458
 1203loPI   GL118569  15.489  12.963   5.502  0.0698  0.0435 -0.1273
 1203loPI   GL218570  15.645  13.219   5.625  0.2502 -0.1077  0.4692
 1203loPI   C1A18571  15.438  12.722   5.902  0.1886 -0.1584  0.1218
 1203loPI   C2A18572  15.433  12.712   6.366 -0.0016 -0.1802 -0.0422
 1203loPI   C3A18573  15.524  12.711   6.724  0.0526  0.2103  0.1208
 1203loPI   C4A18574  15.642  12.839   7.068  0.1029 -0.1841 -0.1476
 1203loPI   C5A18575  15.770  13.158   7.305  0.1224  0.1436 -0.1424
 1203loPI   C6A18576  15.740  13.390   7.708  0.0760  0.1606  0.0430
 1203loPI   C1B18577  15.571  13.193   6.093 -0.1095 -0.1815 -0.1758
 1203loPI   C2B18578  15.832  13.032   6.430 -0.0684 -0.2682  0.0061
 1203loPI   C3B18579  15.945  13.078   6.806  0.0085  0.0046 -0.1340
 1203loPI   C4B18580  16.276  12.879   6.968 -0.2722  0.0028 -0.2022
 1204loPI    C118581  13.281  18.306   4.468 -0.1521 -0.0178 -0.3673
 1204loPI    C218582  13.200  17.933   4.587  0.0207  0.0703  0.0447
 1204loPI    C318583  13.512  18.003   4.346  0.1368 -0.0237  0.1661
 1204loPI   PO418584  13.232  18.447   4.699  0.1795  0.1292  0.0739
 1204loPI   GL118585  13.336  18.499   5.181  0.2203 -0.1489  0.4024
 1204loPI   GL218586  13.317  18.266   5.365 -0.3777 -0.1917 -0.0703
 1204loPI   C1A18587  13.411  18.798   5.502 -0.1509 -0.0697  0.0649
 1204loPI   C2A18588  13.413  18.824   5.996  0.2633 -0.2451  0.2224
 1204loPI   C3A18589  13.566  18.887   6.464 -0.0029  0.1446  0.2409
 1204loPI   C4A18590  13.758  18.962   6.958 -0.0776 -0.0935 -0.0452
 1204loPI   C5A18591  14.143  19.164   7.213 -0.1325 -0.1147  0.1860
 1204loPI   C6A18592  14.115  19.364   7.655  0.1368  0.2070  0.1812
 1204loPI   C1B18593  13.143  18.242   5.847  0.0397  0.0165 -0.1869
 1204loPI   C2B18594  13.161  18.406   6.247 -0.1828 -0.2610 -0.1071
 1204loPI   C3B18595  13.448  18.384   6.610 -0.1238  0.1576  0.1413
 1204loPI   C4B18596  13.640  18.052   6.774  0.0674  0.0927  0.0857
 1205loPI    C118597  14.959  16.745   4.881  0.3854 -0.0319  0.2632
 1205loPI    C218598  14.709  17.056   4.853  0.1530 -0.2146  0.2707
 1205loPI    C318599  15.072  17.075   4.686 -0.0643 -0.1440 -0.2106
 1205loPI   PO418600  15.032  16.647   5.076 -0.0009 -0.2881 -0.1244
 1205loPI   GL118601  14.924  16.887   5.573  0.1248 -0.0835 -0.0195
 1205loPI   GL218602  15.015  16.611   5.526  0.3298 -0.0258 -0.0623
 1205loPI   C1A18603  15.025  17.064   6.015  0.1662  0.1465  0.1130
 1205loPI   C2A18604  15.365  17.151   6.137  0.3156  0.0213  0.0644
 1205loPI   C3A18605  15.421  17.474   6.442  0.2880  0.0421 -0.0789
 1205loPI   C4A18606  15.481  17.473   6.865  0.2115  0.0346  0.0348
 1205loPI   C5A18607  15.658  17.290   7.147 -0.0562 -0.1440  0.0009
 1205loPI   C6A18608  15.927  17.090   7.326  0.2143  0.3220  0.2676
 1205loPI   C1B18609  14.805  16.647   5.985  0.0074 -0.1865  0.2914
 1205loPI   C2B18610  14.883  16.797   6.350 -0.0060  0.1098 -0.0993
 1205loPI   C3B18611  15.106  17.044   6.529  0.1780 -0.0015  0.2785
 1205loPI   C4B18612  15.319  16.985   6.920  0.1524  0.1035 -0.2781
 1206loPI    C118613   8.255   2.714   5.322 -0.1593  0.1133  0.0282
 1206loPI    C218614   8.173   2.373   5.513 -0.5791  0.2456  0.0945
 1206loPI    C318615   8.203   2.377   5.114 -0.2171  0.0683  0.1154
 1206loPI   PO418616   7.994   2.893   5.375 -0.0477 -0.2080  0.0653
 1206loPI   GL118617   7.661   2.870   5.746  0.0332  0.1359 -0.0188
 1206loPI   GL218618   7.815   3.128   5.847 -0.4874  0.1230  0.1872
 1206loPI   C1A18619   7.614   2.723   6.168 -0.3052  0.0745  0.0878
 1206loPI   C2A18620   7.911   2.699   6.492 -0.0834 -0.0079 -0.3674
 1206loPI   C3A18621   8.141   2.702   6.946  0.1725 -0.0132  0.1029
 1206loPI   C4A18622   7.949   2.497   7.256 -0.1280  0.3357 -0.4127
 1206loPI   C5A18623   7.761   2.654   7.606  0.0912 -0.2494  0.0391
 1206loPI   C6A18624   7.741   2.465   7.951  0.2198  0.0781  0.1782
 1206loPI   C1B18625   7.791   3.319   6.258  0.2814  0.1418 -0.1293
 1206loPI   C2B18626   7.943   3.221   6.719 -0.1599 -0.1905  0.2704
 1206loPI   C3B18627   7.862   3.111   7.192 -0.1868 -0.2501  0.2935
 1206loPI   C4B18628   8.121   3.018   7.471  0.0044  0.0362  0.2262
 1207loPI    C118629   7.146   5.927   5.025 -0.1752 -0.1166  0.2679
 1207loPI    C218630   7.055   5.619   4.785  0.1418  0.0198 -0.0365
 1207loPI    C318631   7.121   5.982   4.630  0.1713  0.1535  0.2791
 1207loPI   PO418632   7.179   5.794   5.221 -0.0934 -0.0700 -0.0977
 1207loPI   GL118633   7.186   5.907   5.716  0.0092 -0.0412  0.0373
 1207loPI   GL218634   7.063   5.652   5.779 -0.1649 -0.1980 -0.0879
 1207loPI   C1A18635   7.486   5.726   6.038  0.2335  0.0777 -0.0828
 1207loPI   C2A18636   7.557   5.647   6.456 -0.1400 -0.2564 -0.1338
 1207loPI   C3A18637   7.403   5.657   6.926  0.1003  0.1031  0.2630
 1207loPI   C4A18638   7.349   5.646   7.384  0.0435  0.0168  0.1968
 1207loPI   C5A18639   7.528   5.772   7.831 -0.0122 -0.0932  0.0056
 1207loPI   C6A18640   7.798   5.828   8.144 -0.0554 -0.2373 -0.3944
 1207loPI   C1B18641   7.038   5.806   6.264  0.0706  0.2854  0.1789
 1207loPI   C2B18642   7.160   5.991   6.563 -0.0906 -0.3352 -0.0476
 1207loPI   C3B18643   7.292   6.144   6.926 -0.1929 -0.2837  0.0525
 1207loPI   C4B18644   7.231   6.153   7.392  0.2246 -0.0644  0.0298
 1208loPI    C118645  11.782  17.396   5.074  0.1273 -0.0663  0.0510
 1208loPI    C218646  11.797  17.016   5.197  0.1102 -0.1339 -0.1502
 1208loPI    C318647  11.739  17.098   4.810  0.3549  0.0713 -0.1460
 1208loPI   PO418648  11.764  17.517   5.318 -0.1072 -0.2989  0.2297
 1208loPI   GL118649  11.952  17.350   5.683  0.2852 -0.0700  0.0751
 1208loPI   GL218650  11.588  17.233   5.659 -0.1399 -0.0192  0.0100
 1208loPI   C1A18651  11.950  17.327   6.095 -0.0629  0.0995 -0.0188
 1208loPI   C2A18652  11.877  17.287   6.561  0.2008 -0.1394  0.0260
 1208loPI   C3A18653  11.780  17.278   6.920  0.0877  0.2875 -0.0712
 1208loPI   C4A18654  11.692  17.069   7.404 -0.3381  0.0300 -0.0780
 1208loPI   C5A18655  11.614  16.795   7.686 -0.2228  0.1165  0.1620
 1208loPI   C6A18656  11.408  16.698   8.063 -0.0858 -0.1861  0.1337
 1208loPI   C1B18657  11.524  17.122   6.175 -0.2046 -0.1771 -0.1026
 1208loPI   C2B18658  11.476  16.987   6.645  0.1596  0.1040  0.0672
 1208loPI   C3B18659  11.343  17.033   7.042  0.1521 -0.0005  0.0293
 1208loPI   C4B18660  11.207  16.882   7.440  0.3449 -0.1577 -0.0741
 1209loPI    C118661  16.069  16.242   5.103 -0.0609 -0.0089 -0.0759
 1209loPI    C218662  16.329  16.544   5.079 -0.2301  0.1592  0.1546
 1209loPI    C318663  16.090  16.461   4.769 -0.0291  0.1174  0.0082
 1209loPI   PO418664  16.013  16.297   5.368  0.0377  0.1331 -0.3429
 1209loPI   GL118665  16.093  16.220   5.755  0.1686  0.2023 -0.0292
 1209loPI   GL218666  16.190  16.370   5.947  0.0855 -0.1268  0.2564
 1209loPI   C1A18667  16.074  15.973   6.185  0.2336  0.0462  0.2958
 1209loPI   C2A18668  16.117  15.898   6.660  0.2786 -0.0507  0.0228
 1209loPI   C3A18669  16.147  16.037   7.065 -0.2677  0.2188  0.0089
 1209loPI   C4A18670  16.364  15.801   7.257  0.0647  0.0977  0.0282
 1209loPI   C5A18671  16.334  15.513   7.598  0.3232  0.1532 -0.3599
 1209loPI   C6A18672  16.373  15.252   7.974  0.1747 -0.2033  0.1566
 1209loPI   C1B18673  16.387  16.352   6.340  0.3259  0.0226  0.1608
 1209loPI   C2B18674  16.493  16.274   6.735 -0.1300  0.1213 -0.0572
 1209loPI   C3B18675  16.641  16.229   7.123  0.2550  0.1106 -0.1614
 1209loPI   C4B18676  16.879  16.023   7.390  0.1279 -0.0549 -0.1220
 1210loPI    C118677   6.105   3.894   5.266 -0.0625  0.1165  0.2439
 1210loPI    C218678   6.130   4.194   5.002  0.0155 -0.1906 -0.1056
 1210loPI    C318679   5.813   3.951   4.999  0.0814 -0.2790 -0.0067
 1210loPI   PO418680   6.290   3.961   5.419  0.1808 -0.2634  0.0276
 1210loPI   GL118681   6.252   3.940   5.824 -0.1675  0.0204 -0.0119
 1210loPI   GL218682   6.653   3.841   5.759  0.2200 -0.0317 -0.0531
 1210loPI   C1A18683   6.228   3.844   6.284 -0.2672 -0.0260 -0.0157
 1210loPI   C2A18684   6.105   3.781   6.704  0.0640  0.0537 -0.2834
 1210loPI   C3A18685   6.004   3.695   7.188 -0.2601  0.1466  0.1321
 1210loPI   C4A18686   6.210   3.796   7.560 -0.0504 -0.0602  0.2261
 1210loPI   C5A18687   6.295   4.073   7.936 -0.0630 -0.1353  0.1500
 1210loPI   C6A18688   6.672   4.265   8.161  0.0699 -0.2050  0.1987
 1210loPI   C1B18689   6.753   3.913   6.194  0.1005 -0.2680 -0.2041
 1210loPI   C2B18690   6.669   3.854   6.497  0.1239 -0.0556  0.3248
 1210loPI   C3B18691   6.691   4.001   6.879  0.2711 -0.2781 -0.1827
 1210loPI   C4B18692   6.587   3.979   7.289  0.1103  0.3102 -0.1180
 1211loPI    C118693   3.858  13.916   4.669  0.1731  0.1294 -0.0403
 1211loPI    C218694   3.485  14.062   4.663  0.1709  0.1237 -0.0410
 1211loPI    C318695   3.608  13.815   4.373  0.0667 -0.1427  0.1377
 1211loPI   PO418696   3.925  13.820   4.932  0.0236 -0.1277 -0.4646
 1211loPI   GL118697   3.986  13.526   5.183 -0.0112  0.1041 -0.1863
 1211loPI   GL218698   3.598  13.371   5.102 -0.0517  0.1037  0.0349
 1211loPI   C1A18699   4.144  13.550   5.557  0.0855 -0.1072 -0.3426
 1211loPI   C2A18700   4.104  13.806   5.853 -0.1076  0.4011  0.2220
 1211loPI   C3A18701   4.215  13.875   6.287 -0.1716  0.1510 -0.0889
 1211loPI   C4A18702   4.327  13.817   6.673  0.1226 -0.1803  0.1800
 1211loPI   C5A18703   4.135  13.676   7.097 -0.0302  0.0856  0.0427
 1211loPI   C6A18704   3.795  13.409   7.224  0.2187 -0.1667  0.3616
 1211loPI   C1B18705   3.710  13.249   5.531 -0.1185  0.1977 -0.2042
 1211loPI   C2B18706   3.902  13.306   5.973  0.0455 -0.1168 -0.0552
 1211loPI   C3B18707   3.952  13.093   6.322  0.1113  0.1090 -0.1438
 1211loPI   C4B18708   4.062  13.344   6.748  0.1100  0.0195 -0.1950
 1212loPI    C118709  12.588   6.288   4.989  0.2352  0.2127  0.0547
 1212loPI    C218710  12.916   6.065   5.039  0.1276  0.0805  0.1788
 1212loPI    C318711  12.904   6.340   4.749  0.2396 -0.1151 -0.0142
 1212loPI   PO418712  12.528   6.341   5.237 -0.0894 -0.1881 -0.1429
 1212loPI   GL118713  12.455   6.388   5.660  0.0156 -0.1481  0.1471
 1212loPI   GL218714  12.297   6.254   5.909 -0.1415 -0.0356  0.2152
 1212loPI   C1A18715  12.610   6.631   6.083  0.1354 -0.1375 -0.2932
 1212loPI   C2A18716  12.822   6.839   6.474 -0.2080 -0.2261  0.0003
 1212loPI   C3A18717  12.878   6.625   6.796 -0.2509  0.1483 -0.1499
 1212loPI   C4A18718  12.645   6.267   7.089 -0.2700  0.3579  0.0290
 1212loPI   C5A18719  12.453   5.853   7.025 -0.2735  0.0927  0.1825
 1212loPI   C6A18720  12.386   5.712   6.609  0.0746 -0.0662  0.1883
 1212loPI   C1B18721  12.109   6.426   6.231 -0.1052  0.2158 -0.1523
 1212loPI   C2B18722  12.018   6.696   6.672 -0.1459 -0.1478 -0.1397
 1212loPI   C3B18723  11.908   6.710   7.114  0.0681 -0.0449  0.1855
 1212loPI   C4B18724  11.786   6.536   7.531  0.1594  0.1198 -0.0935
 1213loPI    C118725   1.872   7.514   5.132 -0.1332 -0.0131  0.2327
 1213loPI    C218726   1.895   7.767   5.441 -0.1038  0.0486  0.1801
 1213loPI    C318727   1.983   7.893   5.072 -0.0619 -0.0456  0.1574
 1213loPI   PO418728   1.659   7.329   5.246  0.0357  0.0788  0.1957
 1213loPI   GL118729   1.463   7.509   5.605 -0.1917  0.2025 -0.1938
 1213loPI   GL218730   1.288   7.219   5.711  0.1142  0.1295 -0.0299
 1213loPI   C1A18731   1.761   7.436   5.907 -0.1859  0.1722  0.2051
 1213loPI   C2A18732   1.938   7.435   6.345 -0.0679  0.0012  0.0271
 1213loPI   C3A18733   1.922   7.585   6.795  0.0042 -0.3052  0.2829
 1213loPI   C4A18734   1.710   7.476   7.169  0.0037  0.2151  0.0870
 1213loPI   C5A18735   1.305   7.709   7.282 -0.2454  0.1795 -0.1449
 1213loPI   C6A18736   1.123   7.998   7.638  0.2018  0.0599 -0.0158
 1213loPI   C1B18737   1.207   7.088   6.176 -0.2747 -0.2251 -0.0130
 1213loPI   C2B18738   1.056   6.896   6.542  0.1423  0.0595  0.4691
 1213loPI   C3B18739   0.798   6.822   6.839 -0.1387  0.3376 -0.2916
 1213loPI   C4B18740   0.419   6.902   6.681  0.2178  0.0246  0.0674
 1214POPI    C118741  14.899  15.652   5.265 -0.1388  0.2102  0.1825
 1214POPI    C218742  14.786  15.773   4.901  0.0270 -0.1130  0.0188
 1214POPI    C318743  14.925  15.402   4.954  0.0378 -0.0581  0.4076
 1214POPI   PO418744  14.667  15.719   5.440 -0.0121 -0.3567  0.2579
 1214POPI   GL118745  14.418  15.519   5.812  0.1162 -0.0469 -0.2351
 1214POPI   GL218746  14.291  15.319   5.980  0.1013  0.0819 -0.1250
 1214POPI   C1A18747  14.525  15.807   6.237  0.2848  0.1193  0.1148
 1214POPI   D2A18748  14.595  16.040   6.646 -0.2027  0.1303 -0.0318
 1214POPI   C3A18749  14.413  16.277   7.029 -0.0429  0.1970  0.0269
 1214POPI   C4A18750  14.478  16.390   7.393  0.0931  0.2029 -0.1722
 1214POPI   C1B18751  14.185  15.426   6.442  0.0112  0.2203  0.1202
 1214POPI   C2B18752  14.169  15.598   6.778 -0.0851  0.0467 -0.1820
 1214POPI   C3B18753  14.253  15.626   7.192 -0.0955 -0.0621 -0.1794
 1214POPI   C4B18754  14.049  15.863   7.474 -0.1455 -0.0754  0.3931
 1215POPI    C118755   3.756   0.493   5.132 -0.0689  0.0167  0.0800
 1215POPI    C218756   3.819   0.189   4.880 -0.1222  0.1781 -0.1308
 1215POPI    C318757   3.548   0.470   4.792 -0.0624  0.2959  0.0544
 1215POPI   PO418758   3.769   0.326   5.396 -0.2315 -0.1840 -0.0903
 1215POPI   GL118759   3.636   0.224   5.749 -0.1851  0.2094  0.2787
 1215POPI   GL218760   3.864  -0.008   5.749  0.2366  0.1713  0.0178
 1215POPI   C1A18761   3.778   0.410   6.147  0.1989  0.1912 -0.1311
 1215POPI   D2A18762   3.617   0.372   6.481 -0.0788  0.1150 -0.2525
 1215POPI   C3A18763   3.818   0.577   6.787 -0.1940 -0.1572  0.3381
 1215POPI   C4A18764   4.167   0.656   7.028  0.4020 -0.0624  0.1773
 1215POPI   C1B18765   3.686  -0.157   6.158 -0.3350 -0.2297  0.0130
 1215POPI   C2B18766   3.650  -0.168   6.622  0.1538 -0.2576 -0.2713
 1215POPI   C3B18767   3.676  -0.488   6.825 -0.1322  0.0155  0.1879
 1215POPI   C4B18768   3.580  -0.850   7.143 -0.2536  0.4147  0.0091
 1216POPI    C118769  18.847  13.487   4.957 -0.1268  0.1085  0.1109
 1216POPI    C218770  18.834  13.583   4.568  0.1073 -0.1551  0.0343
 1216POPI    C318771  18.567  13.327   4.721  0.1098 -0.1711  0.0121
 1216POPI   PO418772  19.100  13.329   5.006 -0.2735 -0.2246 -0.0823
 1216POPI   GL118773  19.351  13.214   5.331 -0.1372  0.2527  0.0802
 1216POPI   GL218774  19.689  12.991   5.381  0.0565 -0.0786  0.1980
 1216POPI   C1A18775  19.339  13.353   5.766 -0.1214  0.0478 -0.2040
 1216POPI   D2A18776  19.530  13.379   6.156 -0.0530  0.0791 -0.2399
 1216POPI   C3A18777  19.575  13.465   6.598  0.0837 -0.1508 -0.3425
 1216POPI   C4A18778  19.504  13.636   7.060 -0.3669 -0.0978 -0.2113
 1216POPI   C1B18779  19.581  12.902   5.826 -0.2944 -0.0469 -0.1297
 1216POPI   C2B18780  19.822  12.757   6.212  0.2780 -0.2604  0.2148
 1216POPI   C3B18781  19.892  12.570   6.521  0.0415  0.0104  0.1342
 1216POPI   C4B18782  20.104  12.725   6.850  0.0702 -0.3516 -0.2200
 1217POPI    C118783  14.210  16.252   5.294 -0.1168 -0.0987 -0.4392
 1217POPI    C218784  14.223  15.945   5.550  0.2489  0.1269 -0.1774
 1217POPI    C318785  14.240  15.878   5.156  0.4726 -0.1823 -0.1194
 1217POPI   PO418786  14.275  16.479   5.541  0.3205  0.2515  0.1361
 1217POPI   GL118787  14.181  16.473   6.022 -0.0600  0.2714 -0.2937
 1217POPI   GL218788  14.398  16.297   5.966  0.3297 -0.0042  0.0816
 1217POPI   C1A18789  14.037  16.744   6.389 -0.1612 -0.0303  0.0412
 1217POPI   D2A18790  14.193  17.080   6.587  0.0281 -0.1141  0.2174
 1217POPI   C3A18791  13.993  17.156   6.976  0.0140  0.0313 -0.2852
 1217POPI   C4A18792  14.014  17.135   7.508 -0.0742 -0.0875  0.1106
 1217POPI   C1B18793  14.487  16.491   6.422 -0.2933 -0.2083  0.2437
 1217POPI   C2B18794  14.690  16.706   6.772  0.0024  0.3995 -0.1601
 1217POPI   C3B18795  14.794  16.868   7.137 -0.1933 -0.2851 -0.0558
 1217POPI   C4B18796  15.046  16.869   7.504 -0.1072  0.1699 -0.1632
 1218POPI    C118797   6.986  10.148   4.812  0.1637  0.0118  0.0854
 1218POPI    C218798   7.020   9.896   4.503  0.0390  0.1664 -0.0561
 1218POPI    C318799   7.293  10.183   4.558  0.3322 -0.1622  0.2607
 1218POPI   PO418800   6.906  10.012   4.972 -0.1862 -0.3347 -0.0160
 1218POPI   GL118801   6.914  10.297   5.326  0.0394 -0.2906  0.1067
 1218POPI   GL218802   6.673  10.193   5.400 -0.0382  0.3514  0.0188
 1218POPI   C1A18803   7.155  10.421   5.652  0.0562  0.0880 -0.2990
 1218POPI   D2A18804   7.326  10.262   6.031  0.2163 -0.1367  0.2073
 1218POPI   C3A18805   7.304  10.497   6.460  0.2884 -0.0599  0.1498
 1218POPI   C4A18806   7.218  10.564   6.862 -0.0300  0.0460 -0.0725
 1218POPI   C1B18807   6.657  10.478   5.735 -0.0646 -0.0336 -0.0853
 1218POPI   C2B18808   6.843  10.506   6.180 -0.1865  0.1292 -0.2319
 1218POPI   C3B18809   6.757  10.655   6.564  0.0174  0.2981 -0.3417
 1218POPI   C4B18810   6.840  10.857   6.894 -0.0871 -0.3186 -0.3847
 1219POPI    C118811  10.266  16.369   4.773 -0.2926  0.0552 -0.3256
 1219POPI    C218812  10.444  16.727   4.754 -0.1870  0.0084 -0.2285
 1219POPI    C318813  10.484  16.467   4.452 -0.0034 -0.0416 -0.1623
 1219POPI   PO418814  10.318  16.284   5.051 -0.0061  0.0573 -0.1959
 1219POPI   GL118815  10.247  16.146   5.455 -0.1839 -0.2824 -0.1865
 1219POPI   GL218816  10.041  15.911   5.559 -0.1033 -0.0771 -0.0728
 1219POPI   C1A18817  10.608  16.010   5.747  0.1511  0.0707  0.0743
 1219POPI   D2A18818  10.965  15.968   6.077  0.1395 -0.2142  0.0675
 1219POPI   C3A18819  10.970  15.701   6.439  0.0013  0.0312  0.0678
 1219POPI   C4A18820  10.913  15.726   6.906  0.0455 -0.1917 -0.0159
 1219POPI   C1B18821  10.022  15.866   5.924  0.3989  0.0981  0.0794
 1219POPI   C2B18822  10.021  15.856   6.325 -0.0834 -0.0603 -0.0481
 1219POPI   C3B18823   9.868  15.912   6.707  0.1604 -0.0212  0.2959
 1219POPI   C4B18824   9.836  15.811   7.200 -0.0634  0.1971  0.1568
 1220POPI    C118825   0.134  15.821   5.037  0.0331 -0.1509 -0.0678
 1220POPI    C218826   0.057  15.554   4.749 -0.0642 -0.2005  0.0038
 1220POPI    C318827  -0.161  15.555   5.084 -0.1547  0.0576 -0.0537
 1220POPI   PO418828   0.399  15.965   4.921 -0.1333 -0.2429  0.2762
 1220POPI   GL118829   0.570  16.227   5.356 -0.0996  0.2524 -0.2561
 1220POPI   GL218830   0.858  16.174   5.414  0.0216 -0.0875  0.2812
 1220POPI   C1A18831   0.569  16.221   5.817  0.4287  0.2284  0.1432
 1220POPI   D2A18832   0.215  16.305   6.071 -0.1672 -0.0985  0.0464
 1220POPI   C3A18833   0.242  16.332   6.474 -0.0393 -0.1743 -0.0751
 1220POPI   C4A18834   0.317  16.402   6.917  0.3051 -0.1412  0.0292
 1220POPI   C1B18835   0.820  15.804   5.785 -0.1036 -0.2397 -0.0576
 1220POPI   C2B18836   1.307  15.718   5.797  0.1223  0.2561 -0.0970
 1220POPI   C3B18837   1.669  15.836   6.060  0.3994 -0.0003 -0.2600
 1220POPI   C4B18838   1.742  15.774   6.420  0.0290 -0.1328 -0.0486
 1221POPI    C118839   3.141  14.734   4.627  0.1815 -0.0785 -0.0278
 1221POPI    C218840   3.382  14.990   4.436  0.0147  0.1246  0.0305
 1221POPI    C318841   3.107  14.784   4.231  0.0869  0.0609 -0.0028
 1221POPI   PO418842   3.348  14.609   4.795  0.1808  0.1979 -0.3619
 1221POPI   GL118843   3.328  14.619   5.198 -0.1907 -0.0361  0.0827
 1221POPI   GL218844   2.946  14.612   5.200  0.0004  0.1034 -0.0084
 1221POPI   C1A18845   3.504  14.694   5.611  0.2248 -0.0714 -0.3083
 1221POPI   D2A18846   3.447  14.541   6.124  0.2494  0.0282  0.0570
 1221POPI   C3A18847   3.357  14.742   6.446  0.0430  0.3729 -0.2773
 1221POPI   C4A18848   3.181  14.826   6.898 -0.2577  0.1824 -0.0330
 1221POPI   C1B18849   2.922  14.487   5.614  0.0369 -0.2567  0.2121
 1221POPI   C2B18850   2.802  14.470   5.989  0.2336 -0.1955 -0.0429
 1221POPI   C3B18851   2.450  14.527   6.304  0.2663  0.2936 -0.2350
 1221POPI   C4B18852   2.386  14.808   6.734 -0.4516  0.0468  0.2520
 1222POPI    C118853   9.531  11.190   5.036  0.1765 -0.1645  0.0327
 1222POPI    C218854   9.494  11.246   4.642 -0.1104  0.3272  0.1219
 1222POPI    C318855   9.846  11.134   4.795 -0.0822 -0.2070 -0.3036
 1222POPI   PO418856   9.368  11.414   5.081  0.0574  0.1573 -0.2655
 1222POPI   GL118857   9.218  11.509   5.485 -0.1922  0.1806  0.1188
 1222POPI   GL218858   9.272  11.797   5.441 -0.0886 -0.2861 -0.1388
 1222POPI   C1A18859   9.474  11.799   5.893 -0.1820 -0.0812 -0.1289
 1222POPI   D2A18860   9.466  11.865   6.312  0.1038  0.0860 -0.0531
 1222POPI   C3A18861   9.483  12.330   6.499 -0.0700  0.0714 -0.0984
 1222POPI   C4A18862   9.444  12.708   6.676 -0.0637 -0.1831  0.1502
 1222POPI   C1B18863   9.165  12.084   5.636  0.0472 -0.1410 -0.4257
 1222POPI   C2B18864   9.166  12.216   6.076  0.1936 -0.1079  0.1652
 1222POPI   C3B18865   9.024  12.200   6.520  0.3329  0.1882 -0.1681
 1222POPI   C4B18866   9.176  12.127   6.847 -0.3107 -0.0614 -0.0133
 1223POPI    C118867  16.945  14.002   4.497 -0.0207  0.2665 -0.2163
 1223POPI    C218868  17.301  14.182   4.470  0.0094  0.2044 -0.2367
 1223POPI    C318869  17.232  13.845   4.267  0.1308 -0.0949  0.2043
 1223POPI   PO418870  16.911  14.058   4.785  0.0149 -0.2142  0.2333
 1223POPI   GL118871  17.035  14.132   5.260 -0.2801  0.2612 -0.1912
 1223POPI   GL218872  17.304  14.305   5.426  0.0866  0.0121 -0.1801
 1223POPI   C1A18873  16.902  13.833   5.475  0.1867 -0.1352 -0.1937
 1223POPI   D2A18874  16.940  13.475   5.740 -0.0367  0.1291  0.2392
 1223POPI   C3A18875  16.843  13.406   6.132 -0.1056 -0.0693 -0.0805
 1223POPI   C4A18876  16.882  13.457   6.564  0.0541 -0.1580  0.1991
 1223POPI   C1B18877  17.408  14.379   5.877 -0.0936  0.2728  0.0233
 1223POPI   C2B18878  17.413  14.440   6.351 -0.0010 -0.4315  0.2854
 1223POPI   C3B18879  17.378  14.323   6.768  0.2374 -0.1802  0.0052
 1223POPI   C4B18880  17.567  14.402   7.103  0.0119 -0.1454  0.4689
 1224POPI    C118881  11.039   6.255   5.253  0.1835 -0.0182  0.0592
 1224POPI    C218882  11.133   6.200   4.868  0.0799 -0.0820  0.0426
 1224POPI    C318883  11.259   5.940   5.145  0.3790  0.1067  0.0882
 1224POPI   PO418884  11.036   6.498   5.280  0.0348  0.1538  0.1738
 1224POPI   GL118885  11.250   6.750   5.568  0.4077  0.2460  0.1015
 1224POPI   GL218886  11.313   6.417   5.644  0.0532 -0.1684 -0.0104
 1224POPI   C1A18887  11.187   6.791   6.027 -0.0855  0.0439  0.0838
 1224POPI   D2A18888  11.188   6.931   6.458 -0.2307  0.4252  0.1949
 1224POPI   C3A18889  11.498   6.989   6.734  0.0903 -0.1101 -0.2647
 1224POPI   C4A18890  11.533   6.924   7.243  0.3801 -0.0883  0.1442
 1224POPI   C1B18891  11.247   6.287   6.084 -0.0354  0.0809 -0.1671
 1224POPI   C2B18892  11.179   5.922   6.318 -0.0093 -0.0859 -0.0775
 1224POPI   C3B18893  11.138   5.459   6.347 -0.2887  0.1520  0.0274
 1224POPI   C4B18894  10.937   5.050   6.501 -0.0241  0.0220 -0.1751
 1225POPI    C118895  15.445   1.512   4.639  0.0239  0.1773 -0.0358
 1225POPI    C218896  15.703   1.263   4.462  0.0074  0.0756  0.0823
 1225POPI    C318897  15.559   1.577   4.261 -0.0440 -0.0625 -0.0993
 1225POPI   PO418898  15.577   1.496   4.876  0.1304  0.0336 -0.0544
 1225POPI   GL118899  15.482   1.352   5.309 -0.2272 -0.0402  0.3300
 1225POPI   GL218900  15.350   1.709   5.390 -0.0284 -0.1177  0.1605
 1225POPI   C1A18901  15.491   1.284   5.748  0.0467 -0.1749  0.1286
 1225POPI   D2A18902  15.331   1.124   6.200  0.2998  0.1258  0.1768
 1225POPI   C3A18903  14.921   1.299   6.485  0.0487 -0.1354 -0.0137
 1225POPI   C4A18904  14.603   1.552   6.663  0.3761 -0.2746 -0.1947
 1225POPI   C1B18905  15.354   2.022   5.704 -0.0384  0.3391  0.0630
 1225POPI   C2B18906  15.714   2.116   6.018  0.3839 -0.1681  0.1425
 1225POPI   C3B18907  16.114   1.867   6.222 -0.2089  0.1283  0.3464
 1225POPI   C4B18908  16.274   1.595   5.935 -0.2498  0.3391  0.0924
 1226POPI    C118909  14.269   0.328   4.640  0.1398 -0.0026  0.0803
 1226POPI    C218910  14.521   0.029   4.556  0.1327 -0.0240  0.1354
 1226POPI    C318911  14.311   0.200   4.263 -0.1591 -0.3386  0.1550
 1226POPI   PO418912  14.348   0.432   4.858  0.2001 -0.0315 -0.0284
 1226POPI   GL118913  14.364   0.425   5.200 -0.2094  0.2138  0.0461
 1226POPI   GL218914  14.308   0.732   5.286  0.0421 -0.1130 -0.2359
 1226POPI   C1A18915  14.157   0.386   5.569 -0.2682  0.0565 -0.2288
 1226POPI   D2A18916  13.912   0.557   5.908 -0.0257  0.0910  0.2105
 1226POPI   C3A18917  13.880   0.916   6.066  0.2006 -0.0595 -0.1055
 1226POPI   C4A18918  13.788   1.273   6.337  0.1581 -0.0738  0.1080
 1226POPI   C1B18919  14.267   0.926   5.698 -0.0604  0.1059 -0.1550
 1226POPI   C2B18920  14.361   1.101   6.113  0.0878 -0.3901 -0.0366
 1226POPI   C3B18921  14.333   1.183   6.491  0.2718  0.1635 -0.1394
 1226POPI   C4B18922  14.371   1.234   6.969 -0.1593  0.4804 -0.1531
 1227POPI    C118923  11.330  14.278   4.953  0.1986 -0.0681 -0.0612
 1227POPI    C218924  11.018  14.459   4.780  0.0831 -0.1233  0.0876
 1227POPI    C318925  11.305  14.295   4.554 -0.0368 -0.1441 -0.0509
 1227POPI   PO418926  11.189  14.177   5.136 -0.2157 -0.3418 -0.1943
 1227POPI   GL118927  11.125  14.120   5.678 -0.1031 -0.4373 -0.0307
 1227POPI   GL218928  11.091  14.425   5.830 -0.1561 -0.0565  0.0737
 1227POPI   C1A18929  11.026  13.791   5.936 -0.1769  0.1325  0.0609
 1227POPI   D2A18930  10.915  13.697   6.331  0.0833 -0.1434  0.1543
 1227POPI   C3A18931  10.507  13.739   6.547  0.1398 -0.0489  0.0477
 1227POPI   C4A18932  10.375  13.823   7.013  0.0408 -0.1450 -0.0025
 1227POPI   C1B18933  11.075  14.194   6.214 -0.1186  0.1116  0.5459
 1227POPI   C2B18934  11.304  14.056   6.594  0.0181  0.0608  0.1665
 1227POPI   C3B18935  11.264  14.028   7.018  0.1729  0.0639  0.0430
 1227POPI   C4B18936  11.164  13.822   7.344 -0.1998  0.0728 -0.1847
 1228POPI    C118937  15.038   7.586   4.890  0.0112 -0.1465  0.1435
 1228POPI    C218938  14.682   7.517   5.059 -0.1081 -0.0129 -0.0482
 1228POPI    C318939  14.740   7.430   4.673  0.0300  0.0786 -0.0489
 1228POPI   PO418940  15.181   7.762   5.044  0.1462  0.1280  0.2235
 1228POPI   GL118941  14.987   7.962   5.392  0.2394  0.0736  0.2869
 1228POPI   GL218942  14.749   8.243   5.451 -0.0911 -0.2084 -0.2948
 1228POPI   C1A18943  15.065   7.870   5.827 -0.0189 -0.2403  0.0059
 1228POPI   D2A18944  15.415   7.833   6.133  0.0272  0.0356  0.0632
 1228POPI   C3A18945  15.358   7.849   6.572 -0.0688 -0.2852  0.1050
 1228POPI   C4A18946  15.575   7.900   6.891 -0.3711  0.3683  0.2058
 1228POPI   C1B18947  14.742   8.261   5.957  0.0615 -0.1136 -0.0271
 1228POPI   C2B18948  14.868   8.094   6.300  0.1059 -0.2312  0.0195
 1228POPI   C3B18949  14.981   8.203   6.665  0.1247  0.2605 -0.2250
 1228POPI   C4B18950  15.166   8.163   6.973  0.0369  0.0892 -0.1157
 1229POPI    C118951   2.833   8.238   4.668  0.0871 -0.0372  0.1464
 1229POPI    C218952   2.582   8.525   4.548  0.0309 -0.2114 -0.1634
 1229POPI    C318953   2.849   8.373   4.292  0.1723 -0.3203  0.0456
 1229POPI   PO418954   2.930   8.377   4.871 -0.0534  0.0645  0.2911
 1229POPI   GL118955   2.948   8.467   5.226  0.1226 -0.0743 -0.0749
 1229POPI   GL218956   3.110   8.774   5.355  0.0423 -0.0688 -0.2179
 1229POPI   C1A18957   2.565   8.698   5.555 -0.1181 -0.0770  0.2825
 1229POPI   D2A18958   2.340   8.784   5.927 -0.3055  0.1471 -0.3710
 1229POPI   C3A18959   2.177   8.679   6.349  0.1473  0.1732 -0.1706
 1229POPI   C4A18960   1.954   8.331   6.437  0.0017 -0.0953  0.1232
 1229POPI   C1B18961   3.099   8.567   5.742  0.2958  0.0381 -0.1071
 1229POPI   C2B18962   2.964   8.583   6.146 -0.2664 -0.1740 -0.0240
 1229POPI   C3B18963   2.950   8.602   6.592 -0.0041  0.1192  0.1745
 1229POPI   C4B18964   2.825   8.415   6.916 -0.1939  0.0962  0.3448
 1230POPI    C118965   4.542  15.432   4.469  0.0923  0.0700 -0.0995
 1230POPI    C218966   4.341  15.771   4.401  0.2385  0.1404 -0.1831
 1230POPI    C318967   4.325  15.473   4.135 -0.3770 -0.1575  0.1662
 1230POPI   PO418968   4.554  15.515   4.787 -0.1995 -0.3780  0.3187
 1230POPI   GL118969   4.273  15.378   5.101  0.2499  0.3387  0.0397
 1230POPI   GL218970   4.128  15.088   5.220  0.0574 -0.1553 -0.1201
 1230POPI   C1A18971   4.050  15.623   5.508  0.0987  0.0563  0.1544
 1230POPI   D2A18972   4.070  15.517   5.818 -0.0575  0.2955  0.0704
 1230POPI   C3A18973   4.080  15.461   6.254 -0.3580 -0.0905 -0.0492
 1230POPI   C4A18974   4.139  15.499   6.718  0.2098 -0.0740 -0.2178
 1230POPI   C1B18975   4.332  15.163   5.564 -0.0397 -0.0900 -0.1328
 1230POPI   C2B18976   4.308  15.121   6.001  0.0456  0.1405 -0.2517
 1230POPI   C3B18977   4.245  15.028   6.468  0.0011  0.2042 -0.0732
 1230POPI   C4B18978   4.221  14.796   6.783  0.1813  0.3100 -0.2784
 1231POPI    C118979   9.792  12.421   4.952  0.0880  0.0423  0.0371
 1231POPI    C218980   9.554  12.336   4.642 -0.0715 -0.0916  0.1937
 1231POPI    C318981   9.883  12.119   4.708 -0.1105 -0.1498  0.1966
 1231POPI   PO418982   9.601  12.404   5.200  0.0296 -0.0295  0.0324
 1231POPI   GL118983   9.659  12.275   5.660  0.0681 -0.1456  0.2690
 1231POPI   GL218984   9.395  12.515   5.672  0.4213 -0.0456 -0.0419
 1231POPI   C1A18985   9.807  12.145   6.024 -0.1906  0.1100 -0.1526
 1231POPI   D2A18986   9.942  12.181   6.505  0.0845  0.2105 -0.3887
 1231POPI   C3A18987   9.753  12.226   6.961 -0.0223 -0.0129 -0.1083
 1231POPI   C4A18988   9.502  12.533   7.158 -0.0937  0.1810 -0.1503
 1231POPI   C1B18989   9.487  12.599   6.025  0.0017 -0.0558 -0.1537
 1231POPI   C2B18990   9.772  12.661   6.278  0.1446 -0.2859 -0.0893
 1231POPI   C3B18991   9.922  12.669   6.732 -0.0943  0.1105 -0.3094
 1231POPI   C4B18992   9.836  12.976   7.082 -0.2708 -0.1439  0.1927
 1232POPI    C118993  12.541  13.226   4.992 -0.0488  0.1319 -0.0265
 1232POPI    C218994  12.937  13.208   5.045 -0.0462 -0.0647 -0.1059
 1232POPI    C318995  12.720  12.872   5.044 -0.2235  0.0479  0.0093
 1232POPI   PO418996  12.522  13.469   5.194 -0.1642 -0.2768  0.1244
 1232POPI   GL118997  12.430  13.403   5.561  0.2332 -0.1226 -0.2987
 1232POPI   GL218998  12.471  13.661   5.660 -0.2916  0.0180  0.0131
 1232POPI   C1A18999  12.074  13.447   5.828  0.1672  0.1437 -0.2015
 1232POPI   D2A19000  11.668  13.339   6.180  0.1631 -0.0399  0.1312
 1232POPI   C3A19001  11.373  13.634   6.319 -0.1687  0.3371 -0.1359
 1232POPI   C4A19002  11.218  13.607   6.734 -0.0832 -0.2761 -0.2148
 1232POPI   C1B19003  12.407  13.410   6.129  0.0966 -0.1661 -0.0505
 1232POPI   C2B19004  12.323  13.456   6.545 -0.2254 -0.2338  0.0383
 1232POPI   C3B19005  12.433  13.426   6.936 -0.2818 -0.1053 -0.3006
 1232POPI   C4B19006  12.455  13.169   7.394  0.2292 -0.2780 -0.1667
 1233POPI    C119007   6.117   6.965   4.814 -0.1850  0.2638  0.1141
 1233POPI    C219008   6.180   7.022   4.423 -0.4067  0.0072  0.0375
 1233POPI    C319009   5.935   6.731   4.545 -0.1554 -0.0685  0.3769
 1233POPI   PO419010   6.477   6.991   5.010  0.1178  0.1812 -0.0298
 1233POPI   GL119011   6.528   6.892   5.497 -0.3527  0.1066  0.0082
 1233POPI   GL219012   6.160   6.840   5.641 -0.0837  0.0906 -0.0688
 1233POPI   C1A19013   6.551   6.583   5.853 -0.1717  0.0355 -0.1272
 1233POPI   D2A19014   6.389   6.674   6.228  0.1013  0.0857 -0.5613
 1233POPI   C3A19015   6.722   6.771   6.538 -0.0407  0.0967 -0.0268
 1233POPI   C4A19016   6.731   7.117   6.788 -0.1224 -0.0478  0.0361
 1233POPI   C1B19017   6.000   7.055   6.067 -0.3066 -0.0267 -0.1260
 1233POPI   C2B19018   5.977   7.432   6.424 -0.1115 -0.3083 -0.2604
 1233POPI   C3B19019   5.996   7.697   6.813  0.0051  0.2942 -0.1159
 1233POPI   C4B19020   6.354   7.911   7.016 -0.4234 -0.0795  0.1598
 1234POPI    C119021  13.389   1.685   4.945 -0.1109 -0.0461 -0.2050
 1234POPI    C219022  13.394   1.999   5.193 -0.0212 -0.1748 -0.0412
 1234POPI    C319023  13.540   2.034   4.822 -0.1125  0.0059 -0.0612
 1234POPI   PO419024  13.259   1.490   5.129  0.1541 -0.1676 -0.0265
 1234POPI   GL119025  13.299   1.278   5.576 -0.1223  0.1341 -0.1102
 1234POPI   GL219026  13.101   1.056   5.684  0.1321  0.2688 -0.0957
 1234POPI   C1A19027  13.408   1.096   6.066 -0.0424 -0.4279  0.1665
 1234POPI   D2A19028  13.321   1.041   6.516 -0.0178  0.2543  0.1230
 1234POPI   C3A19029  13.448   0.949   6.990  0.1134 -0.0975  0.1602
 1234POPI   C4A19030  13.424   0.847   7.423 -0.3314  0.1407 -0.2847
 1234POPI   C1B19031  13.102   0.737   5.920  0.0184  0.0798 -0.0632
 1234POPI   C2B19032  12.972   0.662   6.241 -0.1499  0.0476 -0.0316
 1234POPI   C3B19033  12.998   0.581   6.672 -0.0616 -0.2542  0.0605
 1234POPI   C4B19034  13.316   0.432   6.841 -0.1311  0.3875  0.1397
 1235POPI    C119035   0.418   3.633   5.260  0.3349 -0.2413  0.2561
 1235POPI    C219036   0.448   4.027   5.323  0.2120 -0.1271 -0.3352
 1235POPI    C319037   0.093   3.847   5.352  0.2871 -0.2230  0.0495
 1235POPI   PO419038   0.528   3.497   5.463  0.0509  0.1176 -0.1799
 1235POPI   GL119039   0.667   3.371   5.932 -0.0757  0.0314  0.0527
 1235POPI   GL219040   0.912   3.560   5.742  0.3256  0.2325  0.0025
 1235POPI   C1A19041   0.404   3.284   6.194 -0.4311 -0.0085  0.1979
 1235POPI   D2A19042   0.033   3.363   6.421 -0.1307 -0.0041  0.2546
 1235POPI   C3A19043  -0.074   3.126   6.798 -0.0739  0.0666 -0.3425
 1235POPI   C4A19044   0.104   2.833   6.983  0.0325 -0.0874 -0.2133
 1235POPI   C1B19045   0.960   3.633   6.168 -0.0547 -0.4530 -0.0376
 1235POPI   C2B19046   0.667   3.516   6.563 -0.1506 -0.0510 -0.1644
 1235POPI   C3B19047   0.268   3.642   6.763 -0.1316  0.0051  0.1816
 1235POPI   C4B19048   0.058   4.021   6.688 -0.1424  0.0100 -0.1285
 1236POPI    C119049   4.412   0.417   4.870  0.1573 -0.1685  0.2231
 1236POPI    C219050   4.078   0.582   4.725  0.1386 -0.1780  0.2554
 1236POPI    C319051   4.271   0.303   4.513  0.0522 -0.2695  0.2958
 1236POPI   PO419052   4.287   0.301   5.088  0.2069 -0.1225 -0.2279
 1236POPI   GL119053   4.239   0.282   5.588  0.0756 -0.0153  0.2247
 1236POPI   GL219054   4.349   0.004   5.709  0.0981  0.2447 -0.0725
 1236POPI   C1A19055   4.242   0.490   5.895  0.2767 -0.1012  0.1202
 1236POPI   D2A19056   4.123   0.725   6.302  0.3110  0.3356 -0.1300
 1236POPI   C3A19057   4.300   0.881   6.577  0.1656 -0.0846 -0.1628
 1236POPI   C4A19058   4.481   1.044   6.887  0.0810  0.0505  0.2742
 1236POPI   C1B19059   4.178   0.039   6.126 -0.0146  0.3228  0.3173
 1236POPI   C2B19060   4.101   0.108   6.566 -0.0659  0.1257  0.0134
 1236POPI   C3B19061   3.884   0.135   6.948  0.0221 -0.1356  0.0673
 1236POPI   C4B19062   3.691   0.402   7.254  0.0734  0.1321 -0.0027
 1237POPI    C119063  17.457   7.924   5.014  0.0306  0.1751 -0.1637
 1237POPI    C219064  17.596   8.144   4.710 -0.1849  0.1212 -0.3036
 1237POPI    C319065  17.204   8.070   4.740 -0.1487  0.0108 -0.0879
 1237POPI   PO419066  17.595   7.728   5.201 -0.0042  0.1679 -0.2925
 1237POPI   GL119067  17.517   7.566   5.606  0.3648 -0.0826 -0.0779
 1237POPI   GL219068  17.487   7.903   5.648 -0.0573  0.1523 -0.1491
 1237POPI   C1A19069  17.708   7.584   5.992 -0.2121 -0.3427 -0.0664
 1237POPI   D2A19070  17.507   7.390   6.399  0.0541  0.0915 -0.0696
 1237POPI   C3A19071  17.466   7.582   6.821  0.1758 -0.1356  0.1215
 1237POPI   C4A19072  17.721   7.450   7.177 -0.0702  0.2090 -0.3539
 1237POPI   C1B19073  17.208   7.875   6.034 -0.0420  0.0230 -0.0289
 1237POPI   C2B19074  16.836   7.634   6.263  0.2648 -0.0509 -0.1099
 1237POPI   C3B19075  16.541   7.297   6.326 -0.0887 -0.0909 -0.1596
 1237POPI   C4B19076  16.390   7.316   6.779  0.1792  0.0793  0.1330
 1238POPI    C119077   1.547   9.483   4.681 -0.0036  0.1181  0.0495
 1238POPI    C219078   1.354   9.145   4.772  0.1713  0.0103  0.0250
 1238POPI    C319079   1.222   9.377   4.474  0.0034  0.0064  0.0951
 1238POPI   PO419080   1.600   9.663   4.856  0.2651 -0.3530 -0.1244
 1238POPI   GL119081   1.311   9.844   5.298  0.0298 -0.2320  0.0120
 1238POPI   GL219082   1.130  10.063   5.343  0.1523  0.0961 -0.0645
 1238POPI   C1A19083   1.320   9.717   5.770 -0.0408 -0.0039  0.1633
 1238POPI   D2A19084   1.351   9.692   6.085 -0.0385  0.1983 -0.2233
 1238POPI   C3A19085   1.404   9.802   6.570  0.0295 -0.3180 -0.0921
 1238POPI   C4A19086   1.473   9.897   6.974  0.3329 -0.0597 -0.2726
 1238POPI   C1B19087   1.120  10.162   5.862  0.0696 -0.0242  0.1499
 1238POPI   C2B19088   1.131  10.263   6.299 -0.3720  0.3343 -0.0539
 1238POPI   C3B19089   1.218  10.394   6.706 -0.1988  0.1274 -0.0655
 1238POPI   C4B19090   1.168  10.548   7.149  0.0926  0.0822  0.0519
 1239POPI    C119091   9.530  14.142   5.127 -0.3333  0.5141  0.0317
 1239POPI    C219092   9.717  14.294   4.807  0.1259  0.0364  0.0599
 1239POPI    C319093   9.408  14.045   4.759 -0.0146  0.2202 -0.0013
 1239POPI   PO419094   9.720  14.237   5.299  0.2167 -0.0624 -0.1399
 1239POPI   GL119095   9.786  14.193   5.681 -0.1353 -0.4286  0.2805
 1239POPI   GL219096  10.038  14.063   5.865 -0.2511 -0.2670 -0.4297
 1239POPI   C1A19097   9.571  14.053   6.062  0.2500 -0.3917  0.0352
 1239POPI   D2A19098   9.361  13.997   6.451  0.0172 -0.0572  0.1881
 1239POPI   C3A19099   9.412  14.172   6.872  0.1040  0.1923 -0.2191
 1239POPI   C4A19100   9.484  14.381   7.278 -0.0691 -0.1708 -0.0297
 1239POPI   C1B19101  10.109  13.932   6.200  0.0517 -0.4882 -0.1167
 1239POPI   C2B19102  10.103  14.059   6.611 -0.0817 -0.0292 -0.1863
 1239POPI   C3B19103   9.940  14.281   6.973  0.0553  0.0175 -0.1250
 1239POPI   C4B19104   9.989  14.412   7.435 -0.1513 -0.2038 -0.0789
 1240POPI    C119105  13.089   4.273   5.488  0.0481 -0.0416  0.1673
 1240POPI    C219106  12.918   4.327   5.131 -0.1525  0.0227  0.2719
 1240POPI    C319107  13.130   3.995   5.203  0.0652  0.1049  0.0259
 1240POPI   PO419108  12.886   4.336   5.613 -0.2303  0.1108  0.2817
 1240POPI   GL119109  12.744   4.418   5.980  0.2113  0.0150 -0.0258
 1240POPI   GL219110  12.445   4.281   5.901  0.0558  0.1712 -0.3678
 1240POPI   C1A19111  12.714   4.371   6.344 -0.0110 -0.0206 -0.2234
 1240POPI   D2A19112  12.544   4.317   6.751  0.3489 -0.1444  0.1735
 1240POPI   C3A19113  12.746   4.327   7.107 -0.0944 -0.1616  0.0040
 1240POPI   C4A19114  12.744   4.645   7.438  0.0007 -0.1620  0.1141
 1240POPI   C1B19115  12.167   4.335   6.265 -0.0694 -0.2537  0.0346
 1240POPI   C2B19116  12.072   4.228   6.705 -0.0883  0.1516 -0.2099
 1240POPI   C3B19117  12.239   4.177   7.085 -0.1390  0.2859 -0.2258
 1240POPI   C4B19118  12.326   4.373   7.426 -0.4068  0.4420 -0.3344
 1241POPI    C119119  13.076  13.737   5.101 -0.1822 -0.1747 -0.0556
 1241POPI    C219120  12.886  14.042   5.277 -0.1224  0.0229 -0.3269
 1241POPI    C319121  12.736  13.877   4.945 -0.1199 -0.2024 -0.2180
 1241POPI   PO419122  13.215  13.655   5.343 -0.0495  0.2856 -0.0625
 1241POPI   GL119123  13.305  13.424   5.582 -0.1315  0.0598  0.3821
 1241POPI   GL219124  13.316  13.140   5.404  0.1280  0.0184  0.4154
 1241POPI   C1A19125  12.903  13.440   5.875  0.0680 -0.1076  0.1174
 1241POPI   D2A19126  12.908  13.536   6.252 -0.1030 -0.0068 -0.1767
 1241POPI   C3A19127  13.169  13.233   6.437 -0.1178  0.0187 -0.1801
 1241POPI   C4A19128  13.430  13.071   6.519  0.0465  0.1161 -0.2294
 1241POPI   C1B19129  12.798  12.965   5.521  0.2298  0.3096 -0.1540
 1241POPI   C2B19130  12.564  12.911   5.764  0.1467 -0.1390  0.0610
 1241POPI   C3B19131  12.758  12.977   6.239 -0.1567 -0.0977 -0.0638
 1241POPI   C4B19132  12.710  12.992   6.710 -0.2497 -0.0268 -0.0430
 1242POPI    C119133  17.617  18.233   4.998  0.2577  0.0420 -0.2336
 1242POPI    C219134  17.306  17.990   4.930  0.2678  0.0148 -0.1823
 1242POPI    C319135  17.390  18.285   4.673  0.1519  0.0720 -0.1554
 1242POPI   PO419136  17.539  18.287   5.234 -0.1762  0.0655  0.0782
 1242POPI   GL119137  17.442  18.292   5.688  0.0689 -0.1618 -0.0640
 1242POPI   GL219138  17.502  17.986   5.642 -0.1663  0.0487 -0.1046
 1242POPI   C1A19139  17.284  18.088   6.106 -0.0391  0.0668 -0.0028
 1242POPI   D2A19140  17.245  18.085   6.432 -0.2166  0.0858  0.2171
 1242POPI   C3A19141  17.540  18.317   6.734  0.0600  0.2187  0.0122
 1242POPI   C4A19142  17.569  18.411   7.113 -0.1940 -0.1846 -0.0270
 1242POPI   C1B19143  17.798  18.157   6.021 -0.1387  0.0051 -0.1134
 1242POPI   C2B19144  17.901  18.317   6.405 -0.1122 -0.1028  0.0294
 1242POPI   C3B19145  18.010  18.309   6.783 -0.0427 -0.0321 -0.2557
 1242POPI   C4B19146  17.987  18.226   7.301 -0.0032 -0.0391  0.1422
 1243POPI    C119147   5.530  16.558   4.958  0.2471 -0.0616  0.1211
 1243POPI    C219148   5.596  16.197   4.801  0.2385 -0.0358  0.0579
 1243POPI    C319149   5.334  16.444   4.629  0.0199 -0.1146  0.2727
 1243POPI   PO419150   5.799  16.677   5.124  0.0695  0.1110 -0.0187
 1243POPI   GL119151   5.989  16.705   5.543  0.2975 -0.1341 -0.0151
 1243POPI   GL219152   5.730  16.919   5.560  0.1907  0.0771  0.0840
 1243POPI   C1A19153   5.959  16.378   5.768  0.1492  0.0070 -0.2065
 1243POPI   D2A19154   6.035  16.100   6.041  0.2157  0.3771 -0.0667
 1243POPI   C3A19155   5.991  15.833   6.388  0.2363  0.0584 -0.3795
 1243POPI   C4A19156   5.955  15.889   6.835  0.3920 -0.0016  0.0842
 1243POPI   C1B19157   5.814  16.867   6.006 -0.3094 -0.1332 -0.1244
 1243POPI   C2B19158   5.727  16.700   6.430 -0.0132  0.2105  0.1859
 1243POPI   C3B19159   5.410  16.771   6.731 -0.1724  0.2870  0.2591
 1243POPI   C4B19160   5.391  16.903   7.067 -0.1208  0.0592 -0.0371
 1244POPI    C119161  11.501  16.675   4.879 -0.0457 -0.2967 -0.0399
 1244POPI    C219162  11.681  16.582   4.534  0.1635  0.1958 -0.0711
 1244POPI    C319163  11.354  16.813   4.534  0.0161 -0.0090  0.0466
 1244POPI   PO419164  11.360  16.447   4.986  0.1001  0.0300  0.0445
 1244POPI   GL119165  11.209  16.285   5.362 -0.0582 -0.0069  0.0713
 1244POPI   GL219166  10.891  16.425   5.514  0.2994 -0.1624  0.1156
 1244POPI   C1A19167  11.248  16.343   5.825 -0.0927  0.1540 -0.1891
 1244POPI   D2A19168  11.543  16.492   6.187 -0.1927  0.2906 -0.2889
 1244POPI   C3A19169  11.552  16.423   6.671 -0.1156  0.0198 -0.0178
 1244POPI   C4A19170  11.586  16.629   7.056  0.0150 -0.1879  0.1632
 1244POPI   C1B19171  10.824  16.461   6.024 -0.2518 -0.0440  0.0340
 1244POPI   C2B19172  10.601  16.199   6.304  0.4000 -0.3205  0.0121
 1244POPI   C3B19173  10.493  16.065   6.734  0.1628  0.0898 -0.0061
 1244POPI   C4B19174  10.297  15.928   7.134  0.1368 -0.3942 -0.1270
 1245POPI    C119175   8.357  11.536   4.974 -0.1185 -0.1741  0.0402
 1245POPI    C219176   8.415  11.215   4.743  0.0633 -0.0301 -0.1189
 1245POPI    C319177   8.213  11.529   4.601 -0.1030 -0.0674  0.0317
 1245POPI   PO419178   8.299  11.453   5.225 -0.1248  0.1291 -0.1571
 1245POPI   GL119179   8.531  11.437   5.660  0.1944 -0.2876  0.1811
 1245POPI   GL219180   8.669  11.757   5.613 -0.1404 -0.3153 -0.0440
 1245POPI   C1A19181   8.525  11.557   6.063  0.3053  0.1683 -0.3324
 1245POPI   D2A19182   8.526  11.399   6.478 -0.1629  0.0436  0.2892
 1245POPI   C3A19183   8.677  11.294   6.871 -0.2968  0.4811  0.0051
 1245POPI   C4A19184   8.760  11.384   7.347  0.1766  0.0145  0.1544
 1245POPI   C1B19185   8.955  11.635   5.905  0.1985  0.1115  0.2052
 1245POPI   C2B19186   8.975  11.676   6.286  0.1708 -0.0091  0.5050
 1245POPI   C3B19187   9.198  11.607   6.618 -0.0053 -0.0676 -0.2036
 1245POPI   C4B19188   9.154  11.526   7.099  0.4867  0.1248 -0.3098
 1246POPI    C119189   7.586  11.982   4.805 -0.4075  0.1569  0.0821
 1246POPI    C219190   7.463  11.652   4.616 -0.0931  0.0246  0.1013
 1246POPI    C319191   7.383  12.012   4.461  0.1208 -0.0804 -0.2642
 1246POPI   PO419192   7.373  11.907   5.050  0.0230  0.1147  0.4653
 1246POPI   GL119193   7.448  11.923   5.412 -0.2627  0.0378  0.2049
 1246POPI   GL219194   7.184  11.961   5.506 -0.1661  0.0185 -0.1922
 1246POPI   C1A19195   7.651  12.029   5.743  0.1864  0.2710  0.0120
 1246POPI   D2A19196   7.851  12.407   5.871  0.0219  0.0491  0.0223
 1246POPI   C3A19197   7.759  12.427   6.267 -0.3152  0.0556 -0.3426
 1246POPI   C4A19198   7.602  12.315   6.683 -0.0401 -0.0518 -0.0790
 1246POPI   C1B19199   7.199  11.922   5.975 -0.1340  0.0110 -0.0999
 1246POPI   C2B19200   7.229  12.009   6.456 -0.0404 -0.3418 -0.1926
 1246POPI   C3B19201   7.208  12.051   6.907  0.0867 -0.1100 -0.0440
 1246POPI   C4B19202   7.082  12.121   7.251 -0.1680 -0.1764  0.2046
 1247DPPI    C119203  11.387  10.975   4.954  0.2011  0.1715 -0.3474
 1247DPPI    C219204  11.357  10.595   5.076 -0.2288  0.3129  0.0158
 1247DPPI    C319205  11.671  10.710   4.856  0.0114 -0.2019  0.0730
 1247DPPI   PO419206  11.333  11.159   5.190  0.2956 -0.0605 -0.1091
 1247DPPI   GL119207  11.229  11.101   5.645 -0.1778 -0.0288 -0.1078
 1247DPPI   GL219208  10.864  11.023   5.504  0.0410 -0.0461 -0.0360
 1247DPPI   C1A19209  11.186  11.354   6.094 -0.0082 -0.1939 -0.0160
 1247DPPI   C2A19210  11.257  11.498   6.519 -0.0080  0.1743 -0.0850
 1247DPPI   C3A19211  11.213  11.659   6.926 -0.0894 -0.2544  0.0087
 1247DPPI   C4A19212  11.013  12.018   7.237  0.2943 -0.2370  0.0996
 1247DPPI   C1B19213  10.804  11.138   5.856 -0.0361  0.2650 -0.0909
 1247DPPI   C2B19214  10.738  11.215   6.326  0.0580  0.1136  0.1864
 1247DPPI   C3B19215  10.586  11.066   6.731 -0.3599  0.0096 -0.2216
 1247DPPI   C4B19216  10.509  10.841   7.052  0.0796 -0.0428 -0.1734
 1248DPPI    C119217  11.261  17.985   4.796 -0.4012  0.1741 -0.1240
 1248DPPI    C219218  11.388  17.610   4.860 -0.1103  0.2975  0.0454
 1248DPPI    C319219  10.999  17.683   4.801 -0.1591 -0.0396 -0.0694
 1248DPPI   PO419220  11.318  18.108   5.057  0.0549 -0.2572  0.1752
 1248DPPI   GL119221  11.160  18.238   5.386  0.0745  0.0521 -0.0878
 1248DPPI   GL219222  10.967  18.144   5.617 -0.0007 -0.3139 -0.2154
 1248DPPI   C1A19223  11.407  18.198   5.861 -0.0949 -0.1513  0.3353
 1248DPPI   C2A19224  11.301  18.166   6.289 -0.0006 -0.1678  0.2336
 1248DPPI   C3A19225  11.270  18.111   6.643 -0.3507  0.1996  0.0330
 1248DPPI   C4A19226  11.215  18.075   7.003 -0.0789 -0.0199 -0.2514
 1248DPPI   C1B19227  10.961  17.918   6.044  0.1737 -0.2020 -0.1429
 1248DPPI   C2B19228  10.941  17.777   6.434  0.2747  0.2326  0.3686
 1248DPPI   C3B19229  10.861  17.718   6.937  0.0684  0.0952  0.0211
 1248DPPI   C4B19230  10.846  17.706   7.348 -0.0446  0.0602 -0.0290
 1249DPPI    C119231   9.225  13.303   5.196  0.2874 -0.3388 -0.1896
 1249DPPI    C219232   9.410  13.644   5.098 -0.1081  0.0499  0.3547
 1249DPPI    C319233   9.609  13.357   5.292  0.1635  0.0664  0.1071
 1249DPPI   PO419234   8.950  13.336   5.361  0.1301 -0.1710  0.4718
 1249DPPI   GL119235   8.967  13.071   5.594 -0.4213  0.0687  0.0533
 1249DPPI   GL219236   8.984  12.763   5.585  0.0140 -0.1621 -0.0637
 1249DPPI   C1A19237   9.072  13.061   6.050 -0.1432 -0.2505  0.3489
 1249DPPI   C2A19238   9.084  13.117   6.590 -0.0295  0.1426  0.3992
 1249DPPI   C3A19239   9.201  13.046   7.020 -0.0609 -0.0242 -0.1734
 1249DPPI   C4A19240   9.385  12.937   7.357  0.1554 -0.0667 -0.2872
 1249DPPI   C1B19241   8.847  12.600   5.998 -0.2559 -0.0829 -0.0195
 1249DPPI   C2B19242   9.043  12.644   6.371 -0.2295  0.0598 -0.0141
 1249DPPI   C3B19243   9.008  12.557   6.858  0.2119 -0.4138  0.1227
 1249DPPI   C4B19244   9.036  12.452   7.285  0.1393 -0.1348 -0.0181
 1250DPPI    C119245   9.902  10.351   5.229 -0.4447 -0.0449  0.1480
 1250DPPI    C219246   9.916   9.954   5.185 -0.0767 -0.0104 -0.0883
 1250DPPI    C319247   9.851  10.188   4.868 -0.3982  0.1174  0.0672
 1250DPPI   PO419248  10.127  10.387   5.367 -0.1104 -0.0081 -0.0334
 1250DPPI   GL119249  10.163  10.050   5.706 -0.0528  0.1148  0.1762
 1250DPPI   GL219250  10.256  10.345   5.834 -0.1389  0.1651  0.3084
 1250DPPI   C1A19251  10.012   9.875   6.124 -0.1545  0.1352  0.0765
 1250DPPI   C2A19252   9.966   9.636   6.420  0.3400 -0.0776 -0.0796
 1250DPPI   C3A19253  10.016   9.495   6.838 -0.1695  0.1378 -0.0317
 1250DPPI   C4A19254  10.169   9.473   7.200  0.2351  0.0305 -0.1054
 1250DPPI   C1B19255  10.298  10.265   6.307  0.1088  0.0064  0.0566
 1250DPPI   C2B19256  10.026  10.101   6.612  0.1034 -0.1247 -0.1130
 1250DPPI   C3B19257  10.044  10.041   6.997  0.2270 -0.1861  0.0581
 1250DPPI   C4B19258  10.065   9.932   7.408 -0.1043  0.0903  0.1705
 1251DPPI    C119259   0.252  10.950   4.344 -0.1060 -0.1920  0.1327
 1251DPPI    C219260  -0.140  10.977   4.269 -0.0881  0.0053  0.1062
 1251DPPI    C319261   0.076  10.685   4.101 -0.1657  0.0784 -0.1248
 1251DPPI   PO419262   0.222  10.973   4.605  0.0564 -0.3660 -0.0872
 1251DPPI   GL119263   0.232  10.896   5.022  0.2340  0.0879  0.0778
 1251DPPI   GL219264  -0.021  11.157   5.053  0.3667 -0.0386  0.0716
 1251DPPI   C1A19265   0.235  11.146   5.530  0.4094  0.0578 -0.2058
 1251DPPI   C2A19266   0.100  11.003   5.925  0.0590  0.4622  0.2663
 1251DPPI   C3A19267   0.028  10.984   6.396 -0.0165 -0.0404  0.2476
 1251DPPI   C4A19268  -0.010  11.168   6.857  0.2449  0.3134 -0.1531
 1251DPPI   C1B19269  -0.305  11.149   5.412 -0.2887 -0.1809  0.1495
 1251DPPI   C2B19270  -0.382  11.154   5.834 -0.0213 -0.3278 -0.3387
 1251DPPI   C3B19271  -0.560  11.178   6.204 -0.1711 -0.0739  0.0325
 1251DPPI   C4B19272  -0.474  11.141   6.673  0.1377 -0.1992  0.2734
 1252DPPI    C119273  14.484  11.899   4.977  0.0200  0.2500 -0.1580
 1252DPPI    C219274  14.250  12.039   4.685  0.0048  0.2245 -0.1581
 1252DPPI    C319275  14.619  11.912   4.601 -0.0802  0.0034 -0.2043
 1252DPPI   PO419276  14.274  11.634   5.077 -0.2641  0.1699  0.0585
 1252DPPI   GL119277  14.327  11.445   5.449  0.1169  0.1561 -0.2819
 1252DPPI   GL219278  14.111  11.209   5.332 -0.0298 -0.1431 -0.0801
 1252DPPI   C1A19279  13.915  11.542   5.660  0.2374  0.0176 -0.3811
 1252DPPI   C2A19280  13.807  11.726   6.099 -0.1493 -0.2628 -0.0436
 1252DPPI   C3A19281  13.515  11.661   6.496 -0.2243 -0.3337  0.0611
 1252DPPI   C4A19282  13.445  11.385   6.836 -0.0302  0.0304 -0.1391
 1252DPPI   C1B19283  14.220  11.154   5.808 -0.2039 -0.2996  0.0658
 1252DPPI   C2B19284  14.249  11.079   6.252  0.0086  0.1911  0.1605
 1252DPPI   C3B19285  14.497  10.846   6.489 -0.3076 -0.2797 -0.1912
 1252DPPI   C4B19286  14.735  10.781   6.883  0.3577  0.0767  0.2269
 1253DPPI    C119287   9.010  15.809   4.796 -0.0815 -0.0726  0.2599
 1253DPPI    C219288   8.733  15.973   4.558 -0.0371  0.0371  0.2832
 1253DPPI    C319289   9.047  15.783   4.399 -0.0503  0.0387  0.2552
 1253DPPI   PO419290   8.855  15.621   4.894  0.0569  0.2122  0.1296
 1253DPPI   GL119291   8.947  15.301   5.111 -0.0044 -0.0476 -0.0474
 1253DPPI   GL219292   9.191  15.136   5.192  0.0731  0.3313  0.0715
 1253DPPI   C1A19293   8.785  15.195   5.549  0.0196  0.0099  0.1023
 1253DPPI   C2A19294   8.822  15.105   5.976  0.1359  0.1518 -0.0355
 1253DPPI   C3A19295   8.810  15.102   6.436 -0.3055 -0.0260  0.2376
 1253DPPI   C4A19296   8.829  15.428   6.749  0.1872 -0.1096  0.0147
 1253DPPI   C1B19297   9.271  15.133   5.610 -0.0103  0.1952  0.1784
 1253DPPI   C2B19298   9.516  14.994   5.920  0.2404  0.0072 -0.1643
 1253DPPI   C3B19299   9.628  14.604   6.084  0.0068 -0.0494  0.0686
 1253DPPI   C4B19300   9.738  14.362   6.500 -0.0136 -0.0548 -0.0071
 1254DPPI    C119301  10.585  18.438   5.143 -0.1701  0.0715  0.2291
 1254DPPI    C219302  10.750  18.084   5.053 -0.0633  0.1176  0.2417
 1254DPPI    C319303  10.545  18.286   4.775  0.1496  0.1960  0.1396
 1254DPPI   PO419304  10.632  18.457   5.399 -0.0943 -0.2330  0.1259
 1254DPPI   GL119305  10.449  18.437   5.657 -0.0383  0.0166  0.1515
 1254DPPI   GL219306  10.107  18.289   5.668 -0.0828  0.2887 -0.1133
 1254DPPI   C1A19307  10.309  18.417   6.067  0.1721  0.3450  0.3070
 1254DPPI   C2A19308   9.997  18.429   6.430 -0.2865  0.0336 -0.0292
 1254DPPI   C3A19309   9.930  18.598   6.746  0.1784  0.3185 -0.1628
 1254DPPI   C4A19310   9.822  18.563   7.191  0.1347 -0.2221 -0.0111
 1254DPPI   C1B19311   9.688  18.346   5.927  0.3151 -0.1162  0.0904
 1254DPPI   C2B19312   9.254  18.334   6.156  0.2476 -0.0697 -0.0065
 1254DPPI   C3B19313   9.082  17.921   6.323  0.0335  0.1473  0.0030
 1254DPPI   C4B19314   8.842  17.694   6.578  0.0047 -0.2489 -0.0814
 1255DPPI    C119315  11.103  12.685   4.808  0.2647 -0.0691 -0.0997
 1255DPPI    C219316  11.103  12.969   4.527  0.2527  0.0219 -0.0084
 1255DPPI    C319317  11.308  12.631   4.469  0.3513  0.0922 -0.0744
 1255DPPI   PO419318  11.215  12.795   5.092  0.1552  0.0584  0.1417
 1255DPPI   GL119319  11.116  12.617   5.584 -0.0179 -0.0566 -0.1924
 1255DPPI   GL219320  11.041  12.844   5.731  0.2556  0.0900  0.2111
 1255DPPI   C1A19321  11.202  12.342   5.884 -0.2437  0.2768 -0.1857
 1255DPPI   C2A19322  11.235  12.164   6.255  0.1653 -0.2868 -0.1813
 1255DPPI   C3A19323  11.346  12.105   6.672 -0.0568 -0.0307  0.4860
 1255DPPI   C4A19324  11.470  12.155   6.987 -0.0454 -0.0220  0.1135
 1255DPPI   C1B19325  10.786  12.743   6.105 -0.1333  0.0077  0.0831
 1255DPPI   C2B19326  10.683  12.732   6.515  0.1182  0.0561  0.2743
 1255DPPI   C3B19327  10.876  12.904   6.772 -0.0650 -0.1896 -0.3262
 1255DPPI   C4B19328  10.829  12.855   7.264  0.2072  0.1803 -0.5428
 1256DPPI    C119329   5.617  11.190   4.773 -0.0691 -0.0002  0.1300
 1256DPPI    C219330   5.637  10.808   4.890 -0.0518 -0.1298 -0.2786
 1256DPPI    C319331   5.478  10.900   4.535  0.1570  0.2227 -0.2851
 1256DPPI   PO419332   5.657  11.251   5.022  0.2260 -0.0881 -0.2365
 1256DPPI   GL119333   5.514  11.073   5.373 -0.0649  0.2216 -0.0484
 1256DPPI   GL219334   5.222  11.306   5.386 -0.0721  0.1490 -0.0283
 1256DPPI   C1A19335   5.648  10.813   5.724 -0.1884 -0.3470  0.2539
 1256DPPI   C2A19336   5.807  10.809   6.167 -0.2519 -0.0630 -0.0918
 1256DPPI   C3A19337   5.856  10.953   6.626 -0.3479 -0.2944 -0.3074
 1256DPPI   C4A19338   5.902  11.299   6.878  0.2432 -0.2660 -0.0026
 1256DPPI   C1B19339   5.132  11.192   5.735  0.0436  0.1369  0.0742
 1256DPPI   C2B19340   5.121  11.017   6.185 -0.2325 -0.1779  0.0493
 1256DPPI   C3B19341   5.385  10.932   6.453 -0.0443 -0.0587  0.3004
 1256DPPI   C4B19342   5.453  11.005   6.874  0.2707  0.2233 -0.1857
 1257DPPI    C119343  10.090  18.353   5.012  0.3824 -0.2176 -0.1411
 1257DPPI    C219344   9.883  18.474   4.691  0.0614 -0.1419  0.0895
 1257DPPI    C319345  10.240  18.636   4.772  0.0757 -0.0529 -0.1439
 1257DPPI   PO419346   9.947  18.354   5.194 -0.1222  0.0208  0.0518
 1257DPPI   GL119347   9.665  18.164   5.426  0.0421  0.0768 -0.2338
 1257DPPI   GL219348   9.776  17.837   5.616 -0.0026  0.2160 -0.1297
 1257DPPI   C1A19349   9.260  18.253   5.605  0.0102  0.0352  0.0370
 1257DPPI   C2A19350   8.977  18.095   5.854  0.2758  0.5671 -0.1298
 1257DPPI   C3A19351   8.613  17.903   6.142 -0.0054  0.0487 -0.2298
 1257DPPI   C4A19352   8.268  18.203   6.163 -0.1382 -0.1482 -0.2493
 1257DPPI   C1B19353   9.960  17.953   6.015 -0.1649  0.1265  0.4771
 1257DPPI   C2B19354  10.372  17.956   6.240  0.0163  0.0679 -0.0500
 1257DPPI   C3B19355  10.463  17.878   6.668 -0.2344 -0.1860  0.0579
 1257DPPI   C4B19356  10.447  17.588   7.081 -0.1832 -0.0155  0.2609
 1258DPPI    C119357  15.159  18.365   5.233  0.1456  0.2309  0.1283
 1258DPPI    C219358  15.077  18.541   4.883  0.0044  0.1312  0.1102
 1258DPPI    C319359  15.060  18.143   4.915  0.2375  0.1247  0.1732
 1258DPPI   PO419360  15.028  18.493   5.362 -0.0365  0.0790 -0.2017
 1258DPPI   GL119361  14.787  18.382   5.816  0.2052  0.1620  0.2336
 1258DPPI   GL219362  14.946  18.216   5.770  0.1231 -0.0960  0.0195
 1258DPPI   C1A19363  14.927  18.576   6.167 -0.0390  0.1624  0.0141
 1258DPPI   C2A19364  15.054  18.480   6.602  0.1479 -0.4777  0.1717
 1258DPPI   C3A19365  15.276  18.465   6.885  0.2066 -0.0314 -0.1967
 1258DPPI   C4A19366  15.455  18.673   7.228 -0.0407  0.0147 -0.0040
 1258DPPI   C1B19367  15.123  18.124   6.163  0.0170  0.0332 -0.0862
 1258DPPI   C2B19368  15.300  18.033   6.474  0.1606 -0.2112  0.4161
 1258DPPI   C3B19369  15.257  17.903   6.978  0.2178  0.3276  0.4552
 1258DPPI   C4B19370  15.311  18.159   7.303 -0.2650  0.0519  0.1176
 1259DPPI    C119371   3.740   7.636   4.630 -0.0906 -0.0957  0.0612
 1259DPPI    C219372   3.933   7.829   4.923 -0.0852  0.0151 -0.0147
 1259DPPI    C319373   4.049   7.874   4.543 -0.3660  0.2197 -0.0800
 1259DPPI   PO419374   3.479   7.651   4.743  0.1360 -0.1175  0.0008
 1259DPPI   GL119375   3.345   7.562   5.096  0.0760 -0.0026 -0.0989
 1259DPPI   GL219376   3.504   7.821   5.266 -0.2712 -0.1501  0.1562
 1259DPPI   C1A19377   3.104   7.514   5.456 -0.2326  0.0735 -0.3157
 1259DPPI   C2A19378   2.842   7.782   5.709 -0.1653 -0.0488  0.0386
 1259DPPI   C3A19379   2.695   7.822   6.161 -0.0097  0.1913 -0.1493
 1259DPPI   C4A19380   2.729   7.959   6.568  0.1062  0.0139 -0.0975
 1259DPPI   C1B19381   3.535   7.900   5.731  0.0849 -0.1406 -0.0570
 1259DPPI   C2B19382   3.603   7.833   6.181 -0.0756  0.2511  0.1491
 1259DPPI   C3B19383   3.685   8.040   6.595  0.0298 -0.1297 -0.1561
 1259DPPI   C4B19384   3.550   8.159   6.923  0.0879  0.0453  0.0994
 1260DPPI    C119385   6.463  14.336   4.328  0.0148  0.2080 -0.0463
 1260DPPI    C219386   6.244  14.106   4.085  0.2025  0.1615 -0.1735
 1260DPPI    C319387   6.272  14.499   4.016  0.0344  0.1933 -0.0661
 1260DPPI   PO419388   6.391  14.191   4.675  0.0691  0.0359 -0.1811
 1260DPPI   GL119389   6.580  14.210   5.104  0.1980 -0.1406  0.1716
 1260DPPI   GL219390   6.527  13.926   5.190 -0.3897  0.4815 -0.1729
 1260DPPI   C1A19391   6.692  14.437   5.481  0.2966  0.0238 -0.0594
 1260DPPI   C2A19392   6.811  14.750   5.851 -0.0328  0.1966 -0.0490
 1260DPPI   C3A19393   6.868  15.017   6.178 -0.1772  0.1291 -0.2123
 1260DPPI   C4A19394   6.772  15.282   6.472  0.1633 -0.0428  0.1317
 1260DPPI   C1B19395   6.421  13.978   5.646 -0.1436  0.3210  0.1520
 1260DPPI   C2B19396   6.338  13.929   6.039  0.0677 -0.1448 -0.2756
 1260DPPI   C3B19397   6.348  14.024   6.451  0.1222  0.2016  0.0245
 1260DPPI   C4B19398   6.309  13.873   6.858 -0.0672  0.1434  0.2724
 1261DPPI    C119399  11.846  13.958   5.011  0.0928 -0.0990  0.0624
 1261DPPI    C219400  11.774  14.164   4.676 -0.0265  0.1923  0.2629
 1261DPPI    C319401  12.150  14.112   4.801  0.0430 -0.1972 -0.0837
 1261DPPI   PO419402  11.640  13.987   5.191 -0.0520 -0.0831  0.3783
 1261DPPI   GL119403  11.639  13.974   5.628  0.0416  0.3035 -0.1546
 1261DPPI   GL219404  11.990  13.970   5.765  0.0569 -0.1952  0.1279
 1261DPPI   C1A19405  11.540  14.014   6.063  0.1001  0.1058  0.3227
 1261DPPI   C2A19406  11.766  14.202   6.383 -0.1563  0.0116  0.4236
 1261DPPI   C3A19407  11.817  14.151   6.878  0.0948  0.0203  0.2447
 1261DPPI   C4A19408  11.759  14.136   7.262  0.2080  0.0540  0.1025
 1261DPPI   C1B19409  12.107  13.829   6.200  0.1460  0.1556 -0.0158
 1261DPPI   C2B19410  11.777  13.762   6.545  0.0666  0.0295  0.1290
 1261DPPI   C3B19411  11.669  13.356   6.684 -0.1522  0.3642  0.2470
 1261DPPI   C4B19412  11.669  12.946   6.464 -0.3037 -0.3912  0.1232
 1262DPPI    C119413   8.273   3.992   5.119 -0.1468 -0.0710 -0.0093
 1262DPPI    C219414   8.201   4.032   4.727  0.1368 -0.1914 -0.0766
 1262DPPI    C319415   8.198   4.353   4.965 -0.1772 -0.1361 -0.1498
 1262DPPI   PO419416   8.153   3.819   5.225  0.3382  0.1440 -0.1906
 1262DPPI   GL119417   8.264   3.679   5.602  0.2021  0.2578  0.0694
 1262DPPI   GL219418   8.227   3.975   5.722 -0.2243  0.2289 -0.0545
 1262DPPI   C1A19419   8.234   3.378   5.953  0.1021  0.1110 -0.1795
 1262DPPI   C2A19420   8.275   3.086   6.295 -0.1618  0.1232  0.0709
 1262DPPI   C3A19421   8.457   3.058   6.679  0.0086  0.0954 -0.0227
 1262DPPI   C4A19422   8.609   3.081   7.200  0.2038  0.1941 -0.1552
 1262DPPI   C1B19423   8.320   3.818   6.150  0.2958  0.2194  0.1227
 1262DPPI   C2B19424   8.326   3.583   6.501  0.1850 -0.0167  0.2745
 1262DPPI   C3B19425   8.440   3.499   6.898  0.2740  0.1112 -0.3325
 1262DPPI   C4B19426   8.205   3.507   7.305 -0.1393 -0.2495  0.1572
 1263DPPI    C119427  15.444  12.523   4.804 -0.0717  0.0570 -0.1031
 1263DPPI    C219428  15.708  12.456   4.511  0.1010 -0.0676  0.0780
 1263DPPI    C319429  15.799  12.707   4.808 -0.2053  0.3207 -0.1457
 1263DPPI   PO419430  15.400  12.180   4.841 -0.1507  0.0539 -0.0230
 1263DPPI   GL119431  15.408  11.942   5.260 -0.3133  0.2241  0.0204
 1263DPPI   GL219432  15.544  11.845   5.613  0.0592 -0.0801 -0.1620
 1263DPPI   C1A19433  15.142  12.163   5.677  0.2531 -0.1144  0.0457
 1263DPPI   C2A19434  15.359  12.236   6.040 -0.1098  0.1280 -0.0972
 1263DPPI   C3A19435  15.380  12.202   6.544  0.0447 -0.2918 -0.1732
 1263DPPI   C4A19436  15.488  12.199   6.918  0.0856  0.1324  0.0029
 1263DPPI   C1B19437  15.689  11.823   6.124 -0.2050  0.1446  0.2558
 1263DPPI   C2B19438  15.586  11.733   6.603  0.0765 -0.0375 -0.2459
 1263DPPI   C3B19439  15.340  11.590   7.036 -0.2101  0.0387  0.0557
 1263DPPI   C4B19440  15.307  11.273   7.427  0.1133  0.2548 -0.2362
 1264DPPI    C119441  14.044  16.624   4.869  0.0598  0.1032 -0.0224
 1264DPPI    C219442  14.352  16.634   4.613 -0.0082  0.0585 -0.1062
 1264DPPI    C319443  14.259  16.294   4.802 -0.0889  0.0378 -0.1828
 1264DPPI   PO419444  14.032  16.736   5.151  0.1594 -0.1518 -0.0471
 1264DPPI   GL119445  13.934  16.860   5.499  0.0974  0.0692  0.1855
 1264DPPI   GL219446  13.785  16.665   5.666  0.0984  0.1746  0.1911
 1264DPPI   C1A19447  13.931  17.070   5.958  0.1879  0.3340 -0.0889
 1264DPPI   C2A19448  13.758  17.210   6.361  0.0804  0.0536 -0.2449
 1264DPPI   C3A19449  13.596  16.982   6.561  0.1235  0.2672 -0.0683
 1264DPPI   C4A19450  13.570  16.811   6.976  0.0698  0.4974 -0.0331
 1264DPPI   C1B19451  13.485  16.843   6.043  0.1247 -0.1965 -0.0721
 1264DPPI   C2B19452  13.185  16.657   6.385  0.2301 -0.1837  0.1824
 1264DPPI   C3B19453  13.020  16.913   6.785 -0.3575  0.1308 -0.0709
 1264DPPI   C4B19454  13.110  16.915   7.223 -0.1895  0.1154 -0.0347
 1265DPPI    C119455   8.198  13.145   4.911 -0.1682  0.0318 -0.0805
 1265DPPI    C219456   8.117  12.763   5.000 -0.1475  0.0304 -0.0673
 1265DPPI    C319457   7.897  13.057   5.159 -0.2999  0.0140 -0.2439
 1265DPPI   PO419458   8.460  13.194   4.960  0.1916  0.2216  0.1362
 1265DPPI   GL119459   8.485  13.208   5.336 -0.3466  0.1813 -0.0908
 1265DPPI   GL219460   8.379  12.969   5.466  0.3686  0.0098 -0.0607
 1265DPPI   C1A19461   8.348  13.462   5.677  0.1036  0.1085 -0.2274
 1265DPPI   C2A19462   8.242  13.417   6.123 -0.1994 -0.0745 -0.3353
 1265DPPI   C3A19463   8.194  13.271   6.481 -0.1958 -0.1685 -0.0013
 1265DPPI   C4A19464   8.186  13.060   6.862  0.0599 -0.5557 -0.3391
 1265DPPI   C1B19465   8.563  13.049   5.879  0.1751 -0.0957  0.0467
 1265DPPI   C2B19466   8.512  12.923   6.262  0.0184 -0.2156 -0.2941
 1265DPPI   C3B19467   8.617  12.862   6.654  0.0775 -0.0109 -0.1591
 1265DPPI   C4B19468   8.676  12.946   7.066 -0.3808 -0.1950  0.1331
 1266DPPI    C119469   3.410  18.012   5.198 -0.1342  0.1883 -0.0061
 1266DPPI    C219470   3.414  18.310   4.932 -0.0279  0.2042  0.0132
 1266DPPI    C319471   3.338  17.937   4.812 -0.2164  0.2466 -0.0025
 1266DPPI   PO419472   3.701  17.992   5.302  0.3646  0.0172  0.1399
 1266DPPI   GL119473   3.920  17.912   5.757 -0.0102 -0.1614 -0.0379
 1266DPPI   GL219474   4.172  17.695   5.711  0.0679  0.0958  0.0260
 1266DPPI   C1A19475   3.724  17.636   6.083 -0.0369 -0.2011 -0.4477
 1266DPPI   C2A19476   3.668  17.431   6.382 -0.1973 -0.0705  0.0534
 1266DPPI   C3A19477   3.838  17.038   6.539  0.1740 -0.2044  0.2434
 1266DPPI   C4A19478   3.779  16.892   6.932 -0.0073  0.0199 -0.1665
 1266DPPI   C1B19479   4.199  17.429   6.065  0.1211 -0.0280 -0.1663
 1266DPPI   C2B19480   4.181  17.453   6.497 -0.1754  0.1790 -0.0626
 1266DPPI   C3B19481   4.135  17.322   6.947  0.4326  0.1339  0.2331
 1266DPPI   C4B19482   3.991  17.125   7.296 -0.1280 -0.3147 -0.1109
 1267PYPI    C119483  13.679   4.788   5.352 -0.4652  0.0972  0.1830
 1267PYPI    C219484  13.810   5.159   5.280 -0.1355 -0.0225  0.1511
 1267PYPI    C319485  13.510   5.007   5.063 -0.0488  0.1048 -0.0611
 1267PYPI   PO419486  13.658   4.801   5.562 -0.1094 -0.0262 -0.2788
 1267PYPI   GL119487  13.663   4.969   5.966 -0.2723  0.1190  0.3276
 1267PYPI   GL219488  13.913   5.162   5.836 -0.1921 -0.2050  0.1569
 1267PYPI   C1A19489  13.934   4.933   6.294 -0.0095  0.1385 -0.0123
 1267PYPI   C2A19490  14.039   4.908   6.784 -0.2005 -0.0256 -0.1093
 1267PYPI   D3A19491  14.367   4.722   6.997 -0.1112 -0.0035  0.0473
 1267PYPI   C4A19492  14.692   4.675   7.195  0.0110 -0.1248 -0.1575
 1267PYPI   C1B19493  14.267   5.313   6.076 -0.0137 -0.0901  0.0342
 1267PYPI   C2B19494  14.480   5.626   6.398  0.1104 -0.0382  0.0273
 1267PYPI   C3B19495  14.473   5.861   6.673 -0.0254  0.0272 -0.0158
 1267PYPI   C4B19496  14.415   5.747   7.068  0.3597 -0.2816  0.3080
 1268PYPI    C119497   9.205  18.429   4.627 -0.0197  0.2084  0.0844
 1268PYPI    C219498   9.334  18.054   4.579 -0.0659  0.1959  0.0575
 1268PYPI    C319499   9.173  18.251   4.270 -0.1153  0.2097  0.0918
 1268PYPI   PO419500   9.063  18.459   4.888  0.0697  0.2054  0.0521
 1268PYPI   GL119501   8.916  18.481   5.273  0.0851  0.0058 -0.0523
 1268PYPI   GL219502   8.775  18.166   5.260  0.2310 -0.1259  0.1751
 1268PYPI   C1A19503   9.051  18.676   5.725  0.1726  0.3338 -0.1356
 1268PYPI   C2A19504   8.948  18.857   6.150 -0.1486  0.1025 -0.1867
 1268PYPI   D3A19505   9.030  18.734   6.485 -0.2811 -0.1691 -0.0709
 1268PYPI   C4A19506   8.855  18.828   6.884  0.0208  0.0847 -0.3495
 1268PYPI   C1B19507   8.796  17.930   5.444  0.2947 -0.2101 -0.1699
 1268PYPI   C2B19508   8.851  17.535   5.757  0.2161 -0.0649  0.0171
 1268PYPI   C3B19509   8.988  17.331   6.177 -0.1121 -0.0119  0.2347
 1268PYPI   C4B19510   9.298  17.467   6.386 -0.2633  0.1313  0.2270
 1269PYPI    C119511  13.548   2.585   5.146  0.0043 -0.1292 -0.2853
 1269PYPI    C219512  13.315   2.522   4.827  0.1324 -0.0108 -0.4036
 1269PYPI    C319513  13.585   2.817   4.823  0.0323  0.0879 -0.1282
 1269PYPI   PO419514  13.394   2.479   5.339  0.2225  0.0420 -0.1178
 1269PYPI   GL119515  13.462   2.634   5.757 -0.2556 -0.2785  0.1825
 1269PYPI   GL219516  13.252   2.442   5.820  0.2721  0.0849 -0.1070
 1269PYPI   C1A19517  13.403   2.775   6.221 -0.1736  0.0423  0.0706
 1269PYPI   C2A19518  13.548   3.018   6.544 -0.1996 -0.1608  0.1958
 1269PYPI   D3A19519  13.599   2.985   6.956 -0.0865  0.0307  0.1970
 1269PYPI   C4A19520  13.899   2.903   7.189 -0.3522  0.1374  0.1090
 1269PYPI   C1B19521  13.349   2.195   6.104 -0.1050  0.1727 -0.1043
 1269PYPI   C2B19522  13.502   2.384   6.512 -0.0464 -0.3620 -0.0989
 1269PYPI   C3B19523  13.379   2.440   6.973  0.2149 -0.2041  0.0681
 1269PYPI   C4B19524  13.331   2.185   7.346  0.3463  0.2188  0.0327
 1270PYPI    C119525  16.498   6.173   4.824  0.1559 -0.0285  0.1573
 1270PYPI    C219526  16.393   6.467   4.575  0.1774 -0.0710  0.0980
 1270PYPI    C319527  16.648   6.184   4.454  0.0225 -0.2110  0.0964
 1270PYPI   PO419528  16.542   6.250   5.001  0.0007  0.0757  0.0437
 1270PYPI   GL119529  16.421   6.597   5.165  0.0361  0.0938 -0.2341
 1270PYPI   GL219530  16.153   6.735   5.352  0.0951  0.1711  0.0817
 1270PYPI   C1A19531  16.529   6.527   5.634  0.2598  0.1253  0.1743
 1270PYPI   C2A19532  16.628   6.259   6.070 -0.0342 -0.1297 -0.1109
 1270PYPI   D3A19533  16.890   6.065   6.375 -0.1602  0.1029  0.1367
 1270PYPI   C4A19534  16.854   5.847   6.750  0.0326 -0.1823  0.2096
 1270PYPI   C1B19535  16.124   6.752   5.821 -0.2767 -0.2662 -0.0899
 1270PYPI   C2B19536  16.376   6.766   6.144 -0.1764 -0.0949 -0.1874
 1270PYPI   C3B19537  16.250   6.784   6.583 -0.0401 -0.0328 -0.0768
 1270PYPI   C4B19538  16.113   6.947   6.934  0.0744  0.0274  0.0359
 1271PYPI    C119539   6.269  16.160   4.707  0.2670  0.0976 -0.0946
 1271PYPI    C219540   6.521  15.928   4.502  0.0815 -0.1024 -0.1004
 1271PYPI    C319541   6.151  15.991   4.364 -0.0134 -0.1616  0.1233
 1271PYPI   PO419542   6.455  16.151   4.945  0.1858  0.0656  0.1974
 1271PYPI   GL119543   6.767  15.997   5.325 -0.1285  0.1991 -0.0331
 1271PYPI   GL219544   6.459  15.850   5.388 -0.1602  0.0058  0.1915
 1271PYPI   C1A19545   6.990  15.878   5.661 -0.0732  0.1595 -0.1877
 1271PYPI   C2A19546   7.283  15.766   5.999 -0.3865 -0.2478 -0.2044
 1271PYPI   D3A19547   7.647  15.981   5.938 -0.2124 -0.1226 -0.1123
 1271PYPI   C4A19548   7.609  16.209   6.228  0.1040  0.1445 -0.0187
 1271PYPI   C1B19549   6.468  15.684   5.715  0.0724 -0.1262  0.0377
 1271PYPI   C2B19550   6.788  15.645   6.087  0.0132  0.1933 -0.0578
 1271PYPI   C3B19551   7.018  15.846   6.452  0.1931 -0.0337  0.1088
 1271PYPI   C4B19552   7.223  16.066   6.494 -0.1696 -0.2182 -0.1685
 1272PYPI    C119553   3.144   0.280   5.184 -0.1686 -0.1663  0.0991
 1272PYPI    C219554   3.182   0.402   5.563 -0.0998 -0.1014  0.0715
 1272PYPI    C319555   3.302   0.639   5.264 -0.1555 -0.1518  0.0090
 1272PYPI   PO419556   2.814   0.259   5.177 -0.2187 -0.1814  0.1272
 1272PYPI   GL119557   2.471   0.183   5.562 -0.1158  0.2998  0.0013
 1272PYPI   GL219558   2.117   0.060   5.496  0.2834 -0.1378 -0.3533
 1272PYPI   C1A19559   2.742  -0.078   5.730 -0.1673 -0.1505 -0.2003
 1272PYPI   C2A19560   2.789  -0.132   6.227  0.0922  0.0420  0.0824
 1272PYPI   D3A19561   2.546  -0.271   6.523  0.0770  0.0108  0.3571
 1272PYPI   C4A19562   2.088  -0.290   6.494 -0.0551 -0.5345  0.0661
 1272PYPI   C1B19563   2.216  -0.027   5.944  0.0874 -0.1561  0.1277
 1272PYPI   C2B19564   2.240   0.208   6.376 -0.0664 -0.1020 -0.0697
 1272PYPI   C3B19565   2.366   0.416   6.742 -0.1731  0.0748  0.3695
 1272PYPI   C4B19566   2.515   0.268   7.112  0.3311  0.0683 -0.1687
 1273PYPI    C119567   5.774  15.751   5.081 -0.1106 -0.3755  0.0111
 1273PYPI    C219568   6.138  15.634   4.964  0.1211  0.4473 -0.1533
 1273PYPI    C319569   5.880  15.782   4.697 -0.1333  0.3827  0.0525
 1273PYPI   PO419570   5.694  15.574   5.228  0.0726  0.1127  0.0164
 1273PYPI   GL119571   5.512  15.572   5.599 -0.0882 -0.1439  0.1836
 1273PYPI   GL219572   5.731  15.350   5.744 -0.2882  0.1584  0.2528
 1273PYPI   C1A19573   5.559  15.802   6.032  0.1532 -0.2302  0.1941
 1273PYPI   C2A19574   5.440  15.714   6.510 -0.0035 -0.0769 -0.1816
 1273PYPI   D3A19575   5.459  15.825   6.949 -0.1797  0.4343  0.0398
 1273PYPI   C4A19576   5.846  15.601   7.285  0.1154 -0.2097 -0.1328
 1273PYPI   C1B19577   6.001  15.454   6.000  0.4033  0.1400  0.0413
 1273PYPI   C2B19578   6.357  15.456   6.226  0.3019 -0.3556  0.2377
 1273PYPI   C3B19579   6.509  15.722   6.502 -0.3100  0.2059 -0.2239
 1273PYPI   C4B19580   6.674  15.967   6.911  0.0895  0.2348  0.0786
 1274PYPI    C119581  17.768   3.678   4.574  0.3442 -0.0466  0.1008
 1274PYPI    C219582  17.809   3.913   4.253 -0.0615  0.0846  0.1392
 1274PYPI    C319583  18.102   3.659   4.353  0.0904  0.0746 -0.3045
 1274PYPI   PO419584  17.670   3.833   4.814  0.0535 -0.2815 -0.0817
 1274PYPI   GL119585  17.818   3.760   5.129 -0.0148 -0.0477 -0.0698
 1274PYPI   GL219586  17.518   3.699   5.259 -0.5482 -0.0824 -0.3208
 1274PYPI   C1A19587  17.936   3.917   5.520 -0.0283  0.0147  0.1349
 1274PYPI   C2A19588  18.075   3.983   5.971 -0.5968 -0.0688 -0.1395
 1274PYPI   D3A19589  18.211   4.379   6.177  0.0916  0.1070 -0.2767
 1274PYPI   C4A19590  18.345   4.502   5.832 -0.0241  0.2434 -0.2412
 1274PYPI   C1B19591  17.641   3.427   5.612 -0.0123 -0.2702  0.0386
 1274PYPI   C2B19592  17.466   3.424   6.038  0.3004 -0.0562  0.0657
 1274PYPI   C3B19593  17.318   3.483   6.486  0.0894 -0.0038  0.0030
 1274PYPI   C4B19594  17.407   3.620   6.947 -0.1454  0.0576 -0.0375
 1275PYPI    C119595  11.746   1.229   4.917  0.0933  0.2311 -0.1569
 1275PYPI    C219596  11.485   0.951   4.798  0.0403  0.1610  0.1173
 1275PYPI    C319597  11.857   0.951   4.652  0.0758 -0.1259  0.2004
 1275PYPI   PO419598  11.699   1.241   5.161 -0.1469 -0.1107 -0.1268
 1275PYPI   GL119599  11.744   1.028   5.678  0.1686  0.1207 -0.0835
 1275PYPI   GL219600  11.793   1.345   5.665 -0.0641 -0.0143  0.2290
 1275PYPI   C1A19601  11.861   0.919   5.957 -0.3436  0.1082  0.1621
 1275PYPI   C2A19602  12.053   0.837   6.327 -0.1459 -0.2295 -0.1477
 1275PYPI   D3A19603  12.073   0.986   6.730 -0.1186  0.0068 -0.2993
 1275PYPI   C4A19604  12.116   0.897   7.199  0.0275 -0.1540  0.1361
 1275PYPI   C1B19605  11.776   1.402   6.017  0.0942 -0.0108  0.0128
 1275PYPI   C2B19606  11.911   1.443   6.395  0.2295  0.0217 -0.0962
 1275PYPI   C3B19607  11.970   1.446   6.904 -0.2002  0.1993 -0.2698
 1275PYPI   C4B19608  12.186   1.370   7.369  0.0422 -0.3605  0.1300
 1276PYPI    C119609   9.698   8.175   5.032  0.1580  0.0076 -0.1285
 1276PYPI    C219610   9.863   8.226   4.671 -0.0293 -0.1122 -0.2331
 1276PYPI    C319611   9.601   7.929   4.731 -0.1435  0.0234 -0.0482
 1276PYPI   PO419612   9.877   8.349   5.181  0.0447  0.1302 -0.0370
 1276PYPI   GL119613   9.619   8.511   5.514  0.2062 -0.1718  0.3555
 1276PYPI   GL219614   9.454   8.172   5.544 -0.2005  0.0807 -0.2154
 1276PYPI   C1A19615   9.662   8.531   5.941  0.2369 -0.0168  0.1104
 1276PYPI   C2A19616   9.489   8.479   6.388 -0.2628  0.0578  0.1106
 1276PYPI   D3A19617   9.269   8.444   6.748  0.0960  0.2174  0.2549
 1276PYPI   C4A19618   9.516   8.189   6.972 -0.0311 -0.0760  0.0229
 1276PYPI   C1B19619   9.667   8.022   5.914 -0.1372 -0.0366  0.0646
 1276PYPI   C2B19620   9.449   7.971   6.398 -0.1202 -0.0444  0.1501
 1276PYPI   C3B19621   9.580   7.754   6.815  0.0935  0.1569  0.0774
 1276PYPI   C4B19622   9.793   7.756   7.170  0.0599 -0.0487  0.2066
 1277PYPI    C119623  13.254  10.115   5.032  0.0508 -0.2608  0.0009
 1277PYPI    C219624  13.140   9.965   4.679 -0.2322  0.0087 -0.0267
 1277PYPI    C319625  12.979  10.306   4.813  0.1160  0.0849  0.2121
 1277PYPI   PO419626  13.471  10.052   5.104 -0.0584 -0.0302 -0.0867
 1277PYPI   GL119627  13.655  10.178   5.491  0.1006 -0.1964  0.1654
 1277PYPI   GL219628  13.688  10.440   5.628 -0.1245 -0.2098 -0.1155
 1277PYPI   C1A19629  13.696  10.025   5.915 -0.0258  0.2953  0.2142
 1277PYPI   C2A19630  13.750  10.294   6.234 -0.2661  0.2311  0.2812
 1277PYPI   D3A19631  13.646  10.336   6.606  0.0057  0.3095 -0.2666
 1277PYPI   C4A19632  13.895  10.410   6.925 -0.0511 -0.1621  0.2566
 1277PYPI   C1B19633  13.419  10.449   5.840  0.1447  0.0267 -0.2690
 1277PYPI   C2B19634  13.185  10.220   6.358 -0.1047  0.2182 -0.0653
 1277PYPI   C3B19635  13.205  10.379   6.799  0.4257 -0.2115  0.1229
 1277PYPI   C4B19636  13.413  10.344   7.203  0.0812  0.0902 -0.2663
 1278PYPI    C119637   1.902  11.191   4.470 -0.0887  0.5364 -0.1762
 1278PYPI    C219638   1.899  10.912   4.184 -0.2132  0.1396  0.2015
 1278PYPI    C319639   2.247  11.051   4.323 -0.1439 -0.0492  0.2199
 1278PYPI   PO419640   1.666  11.135   4.598 -0.2491 -0.0273  0.0410
 1278PYPI   GL119641   1.639  11.090   5.119 -0.1635  0.1972  0.3701
 1278PYPI   GL219642   1.846  10.977   5.314  0.1157 -0.2052 -0.1982
 1278PYPI   C1A19643   1.500  11.361   5.432 -0.2579  0.0120 -0.0836
 1278PYPI   C2A19644   1.698  11.733   5.496  0.2995  0.0477 -0.0657
 1278PYPI   D3A19645   1.654  12.115   5.322  0.1422  0.2753  0.0404
 1278PYPI   C4A19646   1.579  12.408   5.638 -0.1844 -0.0155 -0.1954
 1278PYPI   C1B19647   1.695  10.747   5.677  0.0190  0.3868 -0.2565
 1278PYPI   C2B19648   1.490  10.573   6.124  0.0341  0.0125  0.0970
 1278PYPI   C3B19649   1.395  10.777   6.423 -0.0907 -0.0812 -0.0594
 1278PYPI   C4B19650   1.340  11.096   6.690  0.0181 -0.0556  0.1052
 1279PYPI    C119651  14.736   4.866   5.294  0.0084 -0.0232 -0.1420
 1279PYPI    C219652  14.723   4.889   4.895  0.0690  0.0301 -0.1410
 1279PYPI    C319653  15.075   4.886   5.084  0.0409 -0.0169 -0.0890
 1279PYPI   PO419654  14.628   5.012   5.391 -0.2468  0.4268 -0.2154
 1279PYPI   GL119655  14.536   4.919   5.864 -0.0025  0.0709  0.3084
 1279PYPI   GL219656  14.774   5.217   5.868  0.2927 -0.3190  0.1859
 1279PYPI   C1A19657  14.406   4.783   6.283 -0.1516  0.0786  0.3334
 1279PYPI   C2A19658  14.292   4.427   6.528  0.0613  0.0357  0.0693
 1279PYPI   D3A19659  14.491   4.096   6.482  0.0712  0.1731 -0.2036
 1279PYPI   C4A19660  14.469   3.897   6.080 -0.1090 -0.1881  0.3822
 1279PYPI   C1B19661  14.672   5.157   6.322 -0.3835  0.1325  0.0006
 1279PYPI   C2B19662  14.375   5.218   6.656 -0.2458  0.2674  0.2779
 1279PYPI   C3B19663  14.249   5.204   7.093  0.2165 -0.2156 -0.0221
 1279PYPI   C4B19664  14.022   4.865   7.330 -0.0636 -0.0650 -0.0089
 1280ERGO   ROH19665  18.525  12.411   5.132  0.0292 -0.0542  0.1516
 1280ERGO    R119666  18.464  12.587   5.345 -0.0034 -0.0294  0.1225
 1280ERGO    R219667  18.403  12.497   5.599  0.0517  0.0030  0.1506
 1280ERGO    R319668  18.604  12.666   5.671  0.0082  0.0800  0.0905
 1280ERGO    R419669  18.406  12.692   5.885  0.0938 -0.0408  0.1797
 1280ERGO    R519670  18.493  12.854   5.768 -0.0297  0.0147  0.1694
 1280ERGO    C119671  18.596  12.964   6.118  0.0775  0.0061  0.1403
 1280ERGO    C219672  18.670  13.059   6.489  0.0469 -0.2694 -0.3851
 1281ERGO   ROH19673   8.322  10.468   5.876 -0.0691 -0.1150 -0.0196
 1281ERGO    R119674   8.217  10.557   6.123 -0.2635 -0.2332 -0.0570
 1281ERGO    R219675   8.123  10.384   6.317  0.1378 -0.3650  0.0276
 1281ERGO    R319676   8.299  10.517   6.476 -0.1471  0.1164 -0.0405
 1281ERGO    R419677   8.103  10.402   6.662  0.2761 -0.5179  0.0448
 1281ERGO    R519678   8.163  10.611   6.649 -0.3383 -0.3217  0.0615
 1281ERGO    C119679   8.257  10.537   7.011  0.0893 -0.1551 -0.0090
 1281ERGO    C219680   8.232  10.452   7.353  0.0037  0.0050  0.3509
 1282ERGO   ROH19681   3.321   0.596   6.025 -0.0256 -0.2585  0.0806
 1282ERGO    R119682   3.281   0.725   6.273 -0.1540 -0.0507 -0.0452
 1282ERGO    R219683   3.035   0.731   6.400 -0.1528 -0.2092 -0.0312
 1282ERGO    R319684   3.177   0.628   6.608 -0.0100  0.1640  0.0636
 1282ERGO    R419685   2.906   0.663   6.713 -0.1417 -0.3909 -0.0649
 1282ERGO    R519686   3.090   0.740   6.801 -0.3390  0.0424 -0.0093
 1282ERGO    C119687   2.963   0.527   7.091 -0.0011 -0.1464  0.0045
 1282ERGO    C219688   3.046   0.219   7.353 -0.1790  0.0555  0.0566
 1283ERGO   ROH19689   7.759  13.729   5.523 -0.0754  0.2756 -0.0402
 1283ERGO    R119690   7.901  13.758   5.767  0.0203  0.0843 -0.0704
 1283ERGO    R219691   7.870  13.977   5.933  0.1725  0.0160  0.0618
 1283ERGO    R319692   7.816  13.787   6.120  0.1477 -0.0642 -0.0283
 1283ERGO    R419693   7.893  14.022   6.275 -0.2385 -0.0300  0.1000
 1283ERGO    R519694   7.978  13.823   6.291 -0.0732  0.0519  0.1550
 1283ERGO    C119695   7.856  13.869   6.649 -0.5010 -0.1321  0.0376
 1283ERGO    C219696   7.700  13.812   7.020  0.2061  0.2895 -0.1034
 1284ERGO   ROH19697  13.747   5.580   6.019  0.3311  0.0070 -0.0513
 1284ERGO    R119698  13.769   5.434   6.260  0.1747 -0.0345 -0.0616
 1284ERGO    R219699  13.969   5.480   6.444  0.0648 -0.0776  0.0676
 1284ERGO    R319700  13.760   5.507   6.616 -0.0388 -0.0946 -0.0525
 1284ERGO    R419701  14.000   5.519   6.786 -0.1304  0.0596  0.0716
 1284ERGO    R519702  13.829   5.386   6.812 -0.0938  0.0018  0.0288
 1284ERGO    C119703  13.822   5.567   7.147 -0.3411  0.1234 -0.0389
 1284ERGO    C219704  14.011   5.641   7.471  0.2239  0.2534 -0.1834
 1285ERGO   ROH19705  17.673  15.342   5.733 -0.1090 -0.2298  0.0409
 1285ERGO    R119706  17.731  15.187   5.962  0.1083 -0.0735  0.0950
 1285ERGO    R219707  17.935  15.251   6.137 -0.0216  0.3155  0.1152
 1285ERGO    R319708  17.736  15.241   6.322 -0.0422  0.0398  0.0819
 1285ERGO    R419709  17.983  15.254   6.480 -0.0781  0.2813  0.1235
 1285ERGO    R519710  17.826  15.105   6.498  0.0867  0.0937  0.0598
 1285ERGO    C119711  17.825  15.246   6.852 -0.1305  0.0025  0.0971
 1285ERGO    C219712  17.781  15.252   7.083 -0.0119  0.0593  0.0488
 1286ERGO   ROH19713   4.076   8.725   5.226  0.0282  0.3078 -0.1628
 1286ERGO    R119714   4.014   8.625   5.484  0.2099  0.1568 -0.1749
 1286ERGO    R219715   4.128   8.727   5.714  0.0704  0.2999 -0.1668
 1286ERGO    R319716   3.869   8.758   5.790  0.0210 -0.1301 -0.1368
 1286ERGO    R419717   4.024   8.835   6.026 -0.0653  0.3613 -0.2320
 1286ERGO    R519718   3.864   8.687   6.018  0.2088  0.0458 -0.0767
 1286ERGO    C119719   3.721   8.926   6.278 -0.1906 -0.0067 -0.2417
 1286ERGO    C219720   3.623   9.028   6.611 -0.1448  0.0958  0.2631
 1287ERGO   ROH19721   5.186   4.939   5.939  0.3199 -0.2804  0.1521
 1287ERGO    R119722   5.225   5.087   6.177  0.2210 -0.0912  0.0548
 1287ERGO    R219723   5.147   4.993   6.425  0.0105  0.1525  0.0924
 1287ERGO    R319724   5.407   5.042   6.489 -0.0094  0.0923  0.2163
 1287ERGO    R419725   5.264   5.041   6.746 -0.1060  0.0633  0.1483
 1287ERGO    R519726   5.394   5.199   6.670 -0.0491  0.0512  0.2418
 1287ERGO    C119727   5.576   5.115   6.994 -0.1925 -0.0450  0.2973
 1287ERGO    C219728   5.698   4.938   7.276 -0.3037  0.0082  0.2499
 1288ERGO   ROH19729  17.184  16.623   5.688  0.2019 -0.0364 -0.3424
 1288ERGO    R119730  17.266  16.529   5.942 -0.0984  0.0316 -0.2167
 1288ERGO    R219731  17.481  16.638   6.077 -0.0057 -0.2038 -0.1829
 1288ERGO    R319732  17.299  16.668   6.277 -0.0776  0.2476 -0.3050
 1288ERGO    R419733  17.560  16.683   6.411 -0.0946 -0.6407 -0.0959
 1288ERGO    R519734  17.394  16.550   6.463 -0.5664 -0.1735 -0.2947
 1288ERGO    C119735  17.434  16.738   6.792 -0.2139 -0.4712 -0.1597
 1288ERGO    C219736  17.319  16.902   7.071 -0.2700 -0.1897  0.1028
 1289ERGO   ROH19737   2.471  13.713   5.231  0.1853  0.1888  0.1080
 1289ERGO    R119738   2.469  13.514   5.432  0.0988  0.1773  0.0957
 1289ERGO    R219739   2.680  13.340   5.470 -0.0006  0.0464  0.0477
 1289ERGO    R319740   2.669  13.433   5.725  0.1011  0.0376  0.0566
 1289ERGO    R419741   2.783  13.163   5.749  0.1675  0.0598 -0.0039
 1289ERGO    R519742   2.609  13.241   5.856  0.2012  0.0217  0.0807
 1289ERGO    C119743   2.832  13.148   6.151  0.3607  0.0593 -0.0256
 1289ERGO    C219744   2.939  13.174   6.428 -0.1053  0.1156  0.0671
 1290ERGO   ROH19745  16.341   0.267   5.707  0.0030  0.1468  0.0984
 1290ERGO    R119746  16.178   0.256   5.938  0.0756  0.0426  0.1451
 1290ERGO    R219747  16.052   0.025   6.021 -0.0232  0.0423 -0.0091
 1290ERGO    R319748  16.180   0.077   6.255  0.0846 -0.2265 -0.0036
 1290ERGO    R419749  16.000  -0.147   6.316 -0.4217  0.1578 -0.0058
 1290ERGO    R519750  16.012   0.043   6.423 -0.0100  0.1466 -0.0117
 1290ERGO    C119751  16.090  -0.199   6.708 -0.5529 -0.0274  0.0013
 1290ERGO    C219752  16.252  -0.343   7.074 -0.1512 -0.2879  0.2186
 1291ERGO   ROH19753  14.764  11.198   5.651  0.1236  0.2008  0.0537
 1291ERGO    R119754  14.741  11.351   5.888  0.1011  0.2398  0.0251
 1291ERGO    R219755  14.647  11.244   6.125  0.0822  0.2810  0.0283
 1291ERGO    R319756  14.881  11.340   6.224  0.0692  0.3014  0.0427
 1291ERGO    R419757  14.723  11.274   6.461  0.0157  0.3569  0.0379
 1291ERGO    R519758  14.817  11.465   6.418  0.0295  0.3516  0.0048
 1291ERGO    C119759  14.987  11.381   6.749 -0.0352  0.4202  0.0571
 1291ERGO    C219760  15.012  11.195   6.990  0.1135 -0.3951 -0.1887
 1292ERGO   ROH19761  12.366  15.934   5.793  0.0505 -0.0749 -0.0122
 1292ERGO    R119762  12.216  15.745   5.942 -0.0075 -0.0156  0.0029
 1292ERGO    R219763  12.096  15.808   6.183 -0.1493  0.0955 -0.1012
 1292ERGO    R319764  11.873  15.713   6.059 -0.0712 -0.0028 -0.1716
 1292ERGO    R419765  11.832  15.653   6.343 -0.2504  0.2267 -0.1371
 1292ERGO    R519766  11.820  15.512   6.177 -0.1435  0.0886 -0.0367
 1292ERGO    C119767  11.469  15.474   6.319 -0.2358  0.2110 -0.2241
 1292ERGO    C219768  11.288  15.435   6.694  0.2309 -0.0579  0.1157
 1293ERGO   ROH19769   8.923   9.103   5.490 -0.1047 -0.0482 -0.2503
 1293ERGO    R119770   8.745   9.073   5.708 -0.0923  0.0961 -0.2205
 1293ERGO    R219771   8.814   8.939   5.940 -0.1763 -0.0008 -0.2557
 1293ERGO    R319772   8.737   9.171   6.058  0.0685  0.0589 -0.2044
 1293ERGO    R419773   8.790   8.988   6.281 -0.2489 -0.0988 -0.2452
 1293ERGO    R519774   8.607   9.101   6.247 -0.0988  0.1485 -0.2806
 1293ERGO    C119775   8.703   9.235   6.591 -0.0611 -0.0999 -0.1911
 1293ERGO    C219776   8.711   9.198   6.943 -0.0825 -0.1488  0.1863
 1294ERGO   ROH19777   4.971  18.030   6.042 -0.1131  0.0012  0.0023
 1294ERGO    R119778   4.856  18.216   6.222 -0.2575 -0.0648 -0.0187
 1294ERGO    R219779   4.615  18.170   6.349 -0.1822 -0.2821  0.0627
 1294ERGO    R319780   4.760  18.218   6.574 -0.1622 -0.0700  0.0061
 1294ERGO    R419781   4.482  18.228   6.663 -0.1392 -0.3043  0.0841
 1294ERGO    R519782   4.634  18.381   6.694 -0.2775 -0.1526 -0.0097
 1294ERGO    C119783   4.541  18.306   7.056 -0.0955 -0.1182  0.0436
 1294ERGO    C219784   4.557  18.514   7.337  0.1891 -0.1512 -0.0345
 1295ERGO   ROH19785   4.320   6.089   5.661 -0.0549 -0.1204 -0.0537
 1295ERGO    R119786   4.250   6.251   5.883 -0.0619 -0.1095 -0.0643
 1295ERGO    R219787   4.181   6.144   6.129  0.0200 -0.0942 -0.0361
 1295ERGO    R319788   4.378   6.309   6.218 -0.0144 -0.0186 -0.0977
 1295ERGO    R419789   4.184   6.301   6.437  0.1083 -0.1802  0.0078
 1295ERGO    R519790   4.263   6.479   6.341 -0.0356 -0.1115  0.0140
 1295ERGO    C119791   4.371   6.547   6.700  0.1273 -0.1593 -0.0245
 1295ERGO    C219792   4.495   6.805   6.883 -0.2375  0.2648  0.0155
 1296ERGO   ROH19793  14.479  17.051   5.314  0.0850  0.0696  0.0233
 1296ERGO    R119794  14.388  17.128   5.571  0.0686 -0.0590  0.0573
 1296ERGO    R219795  14.405  16.962   5.791  0.2057 -0.1101  0.0106
 1296ERGO    R319796  14.535  17.174   5.901  0.0844 -0.0545  0.0495
 1296ERGO    R419797  14.479  16.996   6.127  0.1661 -0.1170  0.0201
 1296ERGO    R519798  14.428  17.207   6.112  0.0528 -0.1428  0.0474
 1296ERGO    C119799  14.646  17.214   6.425  0.0293 -0.0692  0.0621
 1296ERGO    C219800  14.619  17.187   6.821  0.1818 -0.1862 -0.1959
 1297ERGO   ROH19801  10.647   8.316   5.769  0.3784  0.0261 -0.1198
 1297ERGO    R119802  10.521   8.208   5.998  0.2499  0.2442 -0.0852
 1297ERGO    R219803  10.576   7.954   6.092 -0.1597  0.1461 -0.0964
 1297ERGO    R319804  10.627   8.085   6.324  0.1287  0.0684 -0.1110
 1297ERGO    R419805  10.612   7.803   6.401 -0.1585  0.0789 -0.1285
 1297ERGO    R519806  10.499   7.967   6.489  0.0834  0.2048 -0.0481
 1297ERGO    C119807  10.680   7.839   6.799  0.1129 -0.0331 -0.1610
 1297ERGO    C219808  10.825   7.848   7.059  0.0860  0.0195  0.0701
 1298ERGO   ROH19809   8.168   2.804   5.879 -0.2060  0.1209  0.0238
 1298ERGO    R119810   8.227   2.660   6.116 -0.0852  0.0461 -0.0502
 1298ERGO    R219811   8.395   2.441   6.119  0.0478  0.1428 -0.1760
 1298ERGO    R319812   8.524   2.583   6.312 -0.0092  0.1332 -0.1310
 1298ERGO    R419813   8.443   2.334   6.444 -0.0962  0.1548 -0.1503
 1298ERGO    R519814   8.400   2.537   6.512 -0.0939  0.1623 -0.1779
 1298ERGO    C119815   8.591   2.406   6.814 -0.2335  0.1529 -0.0932
 1298ERGO    C219816   8.745   2.180   7.023  0.2059 -0.1189  0.1895
 1299ERGO   ROH19817   6.435   4.406   5.765 -0.1388 -0.0818  0.0383
 1299ERGO    R119818   6.520   4.334   6.025 -0.1557 -0.1040  0.0392
 1299ERGO    R219819   6.735   4.455   6.150 -0.0349 -0.2498 -0.0108
 1299ERGO    R319820   6.554   4.501   6.347  0.0238 -0.0693  0.0014
 1299ERGO    R419821   6.808   4.473   6.487  0.0025 -0.2679 -0.0189
 1299ERGO    R519822   6.625   4.363   6.528 -0.0834 -0.1031  0.0120
 1299ERGO    C119823   6.680   4.526   6.868  0.0793 -0.1090 -0.0123
 1299ERGO    C219824   6.679   4.449   7.247  0.1679  0.1794  0.0290
 1300ERGO   ROH19825   6.370  16.388   5.461 -0.1215  0.1183  0.0519
 1300ERGO    R119826   6.399  16.235   5.698 -0.2512  0.0483  0.0217
 1300ERGO    R219827   6.646  16.177   5.808 -0.3101 -0.1411  0.0325
 1300ERGO    R319828   6.536  16.288   6.031 -0.2527 -0.1216  0.0538
 1300ERGO    R419829   6.777  16.155   6.127 -0.2626 -0.2130  0.0096
 1300ERGO    R519830   6.576  16.129   6.204 -0.2730 -0.1596  0.0356
 1300ERGO    C119831   6.751  16.247   6.521 -0.1809 -0.2364  0.0163
 1300ERGO    C219832   6.958  16.412   6.768 -0.5474  0.3527  0.0923
 1301ERGO   ROH19833   0.456   4.944   5.544  0.1384  0.0650  0.0029
 1301ERGO    R119834   0.434   5.047   5.807 -0.0299  0.0139  0.0104
 1301ERGO    R219835   0.270   4.934   5.998  0.1190 -0.2456 -0.0086
 1301ERGO    R319836   0.499   4.926   6.144  0.1261  0.0771  0.0034
 1301ERGO    R419837   0.284   4.921   6.343  0.1267 -0.1351 -0.0046
 1301ERGO    R519838   0.452   5.060   6.337 -0.0447  0.0710 -0.0346
 1301ERGO    C119839   0.508   4.907   6.681  0.1379  0.2323  0.0091
 1301ERGO    C219840   0.555   4.853   6.964  0.1876  0.0565  0.2855
 1302ERGO   ROH19841   5.108   3.010   6.086  0.2401  0.0225 -0.0120
 1302ERGO    R119842   5.045   2.980   6.360  0.2102  0.0535 -0.0157
 1302ERGO    R219843   5.177   2.802   6.525  0.0308 -0.1014 -0.0378
 1302ERGO    R319844   5.218   3.023   6.678  0.2559 -0.1594 -0.0099
 1302ERGO    R419845   5.153   2.811   6.870  0.0294 -0.1196 -0.0372
 1302ERGO    R519846   5.055   3.005   6.853  0.2295 -0.0133 -0.0171
 1302ERGO    C119847   5.178   3.024   7.214  0.2399 -0.1846 -0.0106
 1302ERGO    C219848   5.242   3.274   7.456 -0.3193  0.0605 -0.1736
 1303ERGO   ROH19849   9.653  10.123   5.613 -0.1217  0.2766  0.0464
 1303ERGO    R119850   9.716  10.248   5.859 -0.0319  0.0983  0.1163
 1303ERGO    R219851   9.524  10.353   6.026  0.0446  0.1913  0.1469
 1303ERGO    R319852   9.643  10.193   6.211 -0.1190 -0.0104  0.0820
 1303ERGO    R419853   9.475  10.375   6.368  0.1668  0.1952  0.1644
 1303ERGO    R519854   9.688  10.339   6.396  0.1312 -0.1019  0.0991
 1303ERGO    C119855   9.558  10.238   6.740  0.0843  0.0083  0.1138
 1303ERGO    C219856   9.586  10.250   7.076  0.0984 -0.2426 -0.2208
 1304ERGO   ROH19857   6.458   8.681   5.792 -0.1003 -0.1886  0.1717
 1304ERGO    R119858   6.351   8.747   6.046 -0.1054  0.0557  0.1082
 1304ERGO    R219859   6.503   8.740   6.277 -0.2236 -0.1708  0.1783
 1304ERGO    R319860   6.416   8.996   6.304  0.2219 -0.0012  0.0869
 1304ERGO    R419861   6.495   8.916   6.575 -0.3185 -0.2134  0.2018
 1304ERGO    R519862   6.303   8.999   6.515 -0.0873  0.1695 -0.0710
 1304ERGO    C119863   6.410   9.259   6.773  0.0444 -0.0791  0.1295
 1304ERGO    C219864   6.540   9.448   6.989  0.0925 -0.0544 -0.0376
 1305ERGO   ROH19865  16.493   8.051   5.586  0.0979 -0.1692  0.2006
 1305ERGO    R119866  16.404   8.215   5.799 -0.0303 -0.1729  0.1499
 1305ERGO    R219867  16.242   8.120   6.002  0.1454 -0.2713  0.2424
 1305ERGO    R319868  16.438   8.219   6.161  0.0782  0.0403  0.1391
 1305ERGO    R419869  16.188   8.286   6.300  0.0341 -0.3834  0.2867
 1305ERGO    R519870  16.348   8.425   6.245 -0.2184 -0.1096  0.2053
 1305ERGO    C119871  16.341   8.477   6.623 -0.0934 -0.1563  0.2156
 1305ERGO    C219872  16.269   8.660   6.922 -0.2240  0.3129  0.2920
 1306ERGO   ROH19873  16.380  13.685   5.528 -0.4904 -0.0426 -0.0484
 1306ERGO    R119874  16.474  13.738   5.790 -0.2612 -0.2626 -0.0814
 1306ERGO    R219875  16.414  13.971   5.925  0.3531 -0.0991 -0.0584
 1306ERGO    R319876  16.325  13.800   6.116 -0.0017  0.1092 -0.0289
 1306ERGO    R419877  16.441  14.024   6.265  0.4182 -0.0764 -0.0676
 1306ERGO    R519878  16.490  13.813   6.289  0.0090 -0.1720 -0.0155
 1306ERGO    C119879  16.373  13.894   6.643  0.1229  0.1325 -0.0452
 1306ERGO    C219880  16.395  13.819   6.936 -0.2113 -0.0515 -0.1693
 1307ERGO   ROH19881   2.204  16.745   5.563  0.0406 -0.1071  0.1506
 1307ERGO    R119882   2.183  16.654   5.830  0.1011 -0.0607  0.1714
 1307ERGO    R219883   2.377  16.497   5.949  0.1581  0.0114  0.1756
 1307ERGO    R319884   2.373  16.693   6.138  0.1347  0.0478  0.1373
 1307ERGO    R419885   2.452  16.450   6.283  0.0881  0.0699  0.1997
 1307ERGO    R519886   2.288  16.585   6.334  0.0880  0.0916  0.1411
 1307ERGO    C119887   2.493  16.607   6.655  0.0253  0.1382  0.1778
 1307ERGO    C219888   2.735  16.558   6.930 -0.1431  0.3964 -0.2882
 1308ERGO   ROH19889  18.612   5.735   5.505  0.1393  0.0469  0.0241
 1308ERGO    R119890  18.654   5.786   5.781  0.0141 -0.0771  0.0680
 1308ERGO    R219891  18.464   5.908   5.940 -0.0357 -0.0895  0.0237
 1308ERGO    R319892  18.499   5.687   6.095 -0.1740 -0.1653 -0.0522
 1308ERGO    R419893  18.391   5.890   6.277 -0.0445 -0.1677  0.0175
 1308ERGO    R519894  18.574   5.774   6.305 -0.1203 -0.2900 -0.0226
 1308ERGO    C119895  18.382   5.673   6.619 -0.1793 -0.2843 -0.0573
 1308ERGO    C219896  18.234   5.702   6.851  0.2263 -0.1958 -0.1806
 1309ERGO   ROH19897  10.797  10.069   5.794 -0.1012  0.0785 -0.0618
 1309ERGO    R119898  10.634  10.046   6.025 -0.1153 -0.0048 -0.0789
 1309ERGO    R219899  10.517   9.808   6.101 -0.0609 -0.0515 -0.1297
 1309ERGO    R319900  10.643   9.859   6.337 -0.0914 -0.0584 -0.1126
 1309ERGO    R419901  10.447   9.651   6.401 -0.0423 -0.1130 -0.1579
 1309ERGO    R519902  10.470   9.843   6.502 -0.0964 -0.1256 -0.1271
 1309ERGO    C119903  10.524   9.608   6.797 -0.0602 -0.1555 -0.1583
 1309ERGO    C219904  10.455   9.212   6.970 -0.1813  0.1115  0.0466
 1310ERGO   ROH19905  16.873  10.911   5.548  0.1559  0.1154  0.1103
 1310ERGO    R119906  16.758  10.985   5.796  0.0412  0.1644  0.0437
 1310ERGO    R219907  16.728  10.807   6.005 -0.2487  0.1481 -0.0035
 1310ERGO    R319908  16.864  10.997   6.144 -0.1888  0.0159  0.1204
 1310ERGO    R419909  16.781  10.802   6.347 -0.1691 -0.1298 -0.0174
 1310ERGO    R519910  16.744  11.017   6.350 -0.1350 -0.1291  0.1639
 1310ERGO    C119911  16.939  10.978   6.676 -0.0666 -0.4158  0.0909
 1310ERGO    C219912  17.098  10.877   7.001  0.2736  0.0881  0.0869
 1311ERGO   ROH19913  13.933  15.633   5.806  0.1827  0.0391  0.0157
 1311ERGO    R119914  14.070  15.746   6.027  0.2188  0.2874 -0.1301
 1311ERGO    R219915  14.034  16.008   6.105 -0.3277  0.1817  0.0223
 1311ERGO    R319916  13.980  15.894   6.346  0.2845 -0.0706  0.0596
 1311ERGO    R419917  14.026  16.177   6.407 -0.5844  0.0949  0.0666
 1311ERGO    R519918  14.125  16.007   6.500  0.0831  0.3811 -0.0663
 1311ERGO    C119919  13.971  16.169   6.808 -0.1591 -0.1924  0.1276
 1311ERGO    C219920  13.954  16.319   7.242 -0.1806  0.0183 -0.2639
 1312ERGO   ROH19921  11.970  16.853   5.684  0.1523  0.0199  0.2082
 1312ERGO    R119922  11.873  16.768   5.936  0.1974 -0.1101  0.1833
 1312ERGO    R219923  12.035  16.648   6.126  0.3032  0.0712  0.2137
 1312ERGO    R319924  11.940  16.847   6.285  0.0305 -0.0455  0.2010
 1312ERGO    R419925  12.053  16.650   6.471  0.1671  0.0562  0.2208
 1312ERGO    R519926  11.851  16.733   6.476  0.0778 -0.1585  0.1538
 1312ERGO    C119927  11.973  16.838   6.821 -0.1679 -0.0622  0.2128
 1312ERGO    C219928  12.076  16.792   7.140  0.1701  0.3807  0.1570
 1313ERGO   ROH19929  17.299  17.412   5.803 -0.2287  0.0605  0.1213
 1313ERGO    R119930  17.393  17.604   5.988  0.1073  0.0875 -0.0695
 1313ERGO    R219931  17.361  17.576   6.262  0.0568  0.4087 -0.0432
 1313ERGO    R319932  17.630  17.612   6.264  0.1292 -0.0499 -0.0817
 1313ERGO    R419933  17.541  17.701   6.529  0.2420  0.5050 -0.2089
 1313ERGO    R519934  17.661  17.815   6.388  0.4605  0.0953 -0.3781
 1313ERGO    C119935  17.898  17.809   6.687  0.4180  0.1309 -0.3416
 1313ERGO    C219936  18.054  17.825   6.987  0.1033  0.1771  0.1027
 1314ERGO   ROH19937   5.614  12.521   5.518  0.0633  0.1580  0.0409
 1314ERGO    R119938   5.777  12.498   5.748 -0.0177  0.0574  0.0891
 1314ERGO    R219939   5.749  12.664   5.967 -0.0463  0.0085  0.1219
 1314ERGO    R319940   5.727  12.430   6.102 -0.1507 -0.0204  0.0561
 1314ERGO    R419941   5.892  12.600   6.275  0.0628 -0.1937  0.0308
 1314ERGO    R519942   5.941  12.399   6.205 -0.1186 -0.2099 -0.0604
 1314ERGO    C119943   5.954  12.341   6.581  0.0283 -0.3383 -0.0840
 1314ERGO    C219944   5.977  12.301   7.005  0.1506  0.0880 -0.2201
 1315ERGO   ROH19945  15.781  17.441   5.885  0.0376 -0.1998  0.1529
 1315ERGO    R119946  15.796  17.378   6.160  0.0908 -0.1082  0.1709
 1315ERGO    R219947  16.036  17.323   6.288  0.1226  0.0182  0.1603
 1315ERGO    R319948  15.953  17.520   6.456  0.0718  0.0400  0.1113
 1315ERGO    R419949  16.087  17.326   6.629 -0.1863 -0.0588  0.2107
 1315ERGO    R519950  15.886  17.405   6.654 -0.1719  0.0454  0.0367
 1315ERGO    C119951  16.039  17.512   6.986 -0.4140 -0.0832  0.1941
 1315ERGO    C219952  16.139  17.517   7.343 -0.3465  0.0198  0.0579
 1316ERGO   ROH19953   3.750   4.241   6.165 -0.0314 -0.0519  0.1296
 1316ERGO    R119954   3.893   4.156   6.394  0.0621  0.0224  0.0993
 1316ERGO    R219955   3.981   4.331   6.589 -0.1350  0.0509  0.1622
 1316ERGO    R319956   3.844   4.165   6.754  0.0474 -0.1635  0.1036
 1316ERGO    R419957   4.008   4.329   6.933 -0.3412  0.1629  0.1810
 1316ERGO    R519958   4.000   4.111   6.928  0.0416  0.1392  0.2107
 1316ERGO    C119959   3.895   4.171   7.289 -0.2900  0.0268  0.1370
 1316ERGO    C219960   3.989   4.065   7.534  0.0046  0.2977 -0.0413
 1317ERGO   ROH19961  17.552  13.868   5.401 -0.0475  0.0183 -0.0642
 1317ERGO    R119962  17.531  13.940   5.674 -0.0528  0.0396 -0.0706
 1317ERGO    R219963  17.316  13.867   5.832 -0.0335  0.0146 -0.0586
 1317ERGO    R319964  17.511  13.767   5.993 -0.0109  0.0660 -0.0529
 1317ERGO    R419965  17.266  13.750   6.153 -0.0502 -0.1750 -0.1288
 1317ERGO    R519966  17.453  13.845   6.212 -0.1276 -0.0765 -0.0297
 1317ERGO    C119967  17.419  13.588   6.492 -0.0386 -0.2372 -0.1643
 1317ERGO    C219968  17.357  13.566   6.788  0.1636 -0.1513  0.1297
 1318ERGO   ROH19969  18.577  16.552   5.602 -0.1019 -0.0384 -0.2183
 1318ERGO    R119970  18.584  16.597   5.881 -0.0456 -0.0835 -0.2137
 1318ERGO    R219971  18.399  16.487   6.054 -0.0985  0.0146 -0.2165
 1318ERGO    R319972  18.621  16.393   6.181 -0.1493 -0.1494 -0.2434
 1318ERGO    R419973  18.437  16.469   6.397  0.0199  0.2342 -0.2148
 1318ERGO    R519974  18.643  16.535   6.373  0.0956 -0.0216 -0.3573
 1318ERGO    C119975  18.667  16.370   6.716  0.0413  0.2083 -0.2392
 1318ERGO    C219976  18.687  16.154   7.081 -0.1634  0.0088  0.1927
 1319ERGO   ROH19977   3.113  16.783   5.236 -0.0599  0.3054 -0.0747
 1319ERGO    R119978   3.184  16.849   5.502 -0.2629  0.1602  0.0176
 1319ERGO    R219979   3.130  16.683   5.716  0.0038 -0.1842 -0.1766
 1319ERGO    R319980   3.397  16.710   5.761 -0.0513  0.2957 -0.0796
 1319ERGO    R419981   3.281  16.661   6.026 -0.0345 -0.3317 -0.1676
 1319ERGO    R519982   3.410  16.827   5.970 -0.3498  0.0277  0.1021
 1319ERGO    C119983   3.619  16.673   6.249 -0.1086  0.0330 -0.0711
 1319ERGO    C219984   3.714  16.543   6.583  0.2405  0.0541 -0.1454
 1320ERGO   ROH19985  15.129   9.924   5.743 -0.0337 -0.2145 -0.1602
 1320ERGO    R119986  15.077   9.987   6.014  0.0302 -0.0412 -0.1868
 1320ERGO    R219987  15.003   9.796   6.200 -0.1292  0.1071 -0.0927
 1320ERGO    R319988  15.215   9.896   6.338 -0.0357 -0.0100 -0.1500
 1320ERGO    R419989  15.067   9.736   6.534 -0.0471  0.0405 -0.1203
 1320ERGO    R519990  15.127   9.944   6.556  0.0598  0.0087 -0.1158
 1320ERGO    C119991  15.303   9.794   6.859  0.0884 -0.1081 -0.1900
 1320ERGO    C219992  15.494   9.810   7.191 -0.1034 -0.2285  0.0909
 1321ERGO   ROH19993   7.613  15.450   5.187  0.3445  0.0970  0.0265
 1321ERGO    R119994   7.727  15.432   5.445  0.1271  0.2549  0.1376
 1321ERGO    R219995   7.624  15.567   5.663 -0.3426  0.0246  0.0742
 1321ERGO    R319996   7.621  15.318   5.774  0.0049 -0.0138  0.0074
 1321ERGO    R419997   7.700  15.496   5.993 -0.3491  0.0500  0.0806
 1321ERGO    R519998   7.806  15.319   5.926 -0.0478  0.2321  0.0711
 1321ERGO    C119999   7.741  15.223   6.289 -0.0265  0.0288  0.0215
 1321ERGO    C220000   7.825  15.268   6.680 -0.2344  0.2463 -0.0287
 1322ERGO   ROH20001  14.536  14.519   5.925 -0.1299 -0.0516 -0.1577
 1322ERGO    R120002  14.603  14.591   6.191 -0.0782  0.0225 -0.1909
 1322ERGO    R220003  14.435  14.541   6.405  0.0166 -0.0251 -0.1309
 1322ERGO    R320004  14.655  14.417   6.506  0.1098  0.0984 -0.1779
 1322ERGO    R420005  14.462  14.420   6.727  0.1921  0.0976 -0.0978
 1322ERGO    R520006  14.667  14.494   6.733  0.1686  0.1844 -0.2069
 1322ERGO    C120007  14.684  14.233   7.011  0.3817  0.2850 -0.1226
 1322ERGO    C220008  14.672  13.981   7.318 -0.1932  0.2270  0.3202
 1323ERGO   ROH20009  17.072  12.232   5.659  0.1861  0.1278  0.0274
 1323ERGO    R120010  17.055  12.107   5.913  0.0006  0.2101  0.0579
 1323ERGO    R220011  17.221  11.899   5.988 -0.3097 -0.0365  0.1014
 1323ERGO    R320012  17.273  12.061   6.200 -0.0542 -0.0579  0.0579
 1323ERGO    R420013  17.291  11.789   6.308 -0.2422 -0.0521  0.0812
 1323ERGO    R520014  17.168  11.951   6.385 -0.0542  0.0641  0.1258
 1323ERGO    C120015  17.381  11.876   6.693  0.0368 -0.0813  0.0286
 1323ERGO    C220016  17.673  11.877   6.786 -0.0184  0.2520  0.0591
 1324ERGO   ROH20017   4.133   3.450   6.127  0.0779  0.0096  0.1824
 1324ERGO    R120018   3.968   3.255   6.248  0.1118 -0.0157  0.1870
 1324ERGO    R220019   3.977   3.201   6.519 -0.0327  0.1491  0.2244
 1324ERGO    R320020   3.710   3.250   6.506 -0.0565 -0.0162  0.0216
 1324ERGO    R420021   3.744   3.087   6.747 -0.1225  0.0670  0.0938
 1324ERGO    R520022   3.608   3.046   6.581  0.0163 -0.0617  0.0048
 1324ERGO    C120023   3.358   3.067   6.868 -0.1971 -0.1360 -0.1726
 1324ERGO    C220024   3.188   2.960   7.148 -0.0089  0.0074 -0.0985
 1325ERGO   ROH20025  12.236   4.734   5.928  0.1122  0.2952 -0.0623
 1325ERGO    R120026  12.203   4.864   6.177  0.0117  0.1272  0.0137
 1325ERGO    R220027  11.972   4.839   6.328 -0.0081 -0.0622 -0.0421
 1325ERGO    R320028  12.146   4.763   6.522 -0.0117 -0.1119 -0.0586
 1325ERGO    R420029  11.889   4.793   6.660  0.0301  0.0430 -0.0177
 1325ERGO    R520030  12.078   4.887   6.715  0.0864 -0.0415 -0.0700
 1325ERGO    C120031  12.004   4.695   7.036  0.0489  0.0575 -0.0190
 1325ERGO    C220032  11.860   4.597   7.246 -0.0469 -0.1758  0.0221
 1326ERGO   ROH20033   5.660  11.620   5.335 -0.2653 -0.0045  0.0118
 1326ERGO    R120034   5.553  11.575   5.593 -0.1950 -0.0828  0.0272
 1326ERGO    R220035   5.617  11.352   5.744 -0.0266 -0.0463  0.0084
 1326ERGO    R320036   5.685  11.537   5.931 -0.1173 -0.0101  0.0060
 1326ERGO    R420037   5.543  11.329   6.081  0.0717 -0.1328  0.0247
 1326ERGO    R520038   5.498  11.542   6.080 -0.0875 -0.1631  0.0525
 1326ERGO    C120039   5.563  11.489   6.452  0.0439 -0.1491  0.0319
 1326ERGO    C220040   5.422  11.506   6.833 -0.1360  0.0208  0.3768
 1327ERGO   ROH20041  11.604  17.785   5.712 -0.1531  0.1961  0.1003
 1327ERGO    R120042  11.599  17.641   5.956 -0.2303 -0.0252 -0.0297
 1327ERGO    R220043  11.673  17.754   6.197 -0.0155 -0.3303  0.0488
 1327ERGO    R320044  11.428  17.668   6.276 -0.0877 -0.1242  0.0582
 1327ERGO    R420045  11.585  17.676   6.522 -0.0681 -0.2324  0.0592
 1327ERGO    R520046  11.472  17.506   6.446 -0.2114 -0.1512  0.0712
 1327ERGO    C120047  11.303  17.549   6.784 -0.1666  0.0182  0.0740
 1327ERGO    C220048  11.373  17.503   7.217 -0.0063 -0.2421 -0.2663
 1328ERGO   ROH20049   2.813   2.072   5.757  0.0007  0.3361  0.0135
 1328ERGO    R120050   2.930   2.109   6.012  0.0256  0.1798  0.0251
 1328ERGO    R220051   2.879   2.332   6.168  0.1667  0.1606  0.0951
 1328ERGO    R320052   2.811   2.146   6.354  0.0512  0.1436  0.0386
 1328ERGO    R420053   2.765   2.404   6.486  0.0123  0.1358  0.0469
 1328ERGO    R520054   2.887   2.240   6.561 -0.0423  0.1116  0.0897
 1328ERGO    C120055   2.635   2.272   6.846 -0.1859  0.1054 -0.0342
 1328ERGO    C220056   2.466   2.511   7.037  0.1197 -0.0598 -0.0317
 1329ERGO   ROH20057   9.849   2.901   5.615  0.3414 -0.1598  0.0934
 1329ERGO    R120058   9.674   2.920   5.836  0.2108 -0.1375 -0.0103
 1329ERGO    R220059   9.737   2.820   6.086  0.0601 -0.1238  0.0370
 1329ERGO    R320060   9.680   3.073   6.167  0.0238 -0.1153 -0.0163
 1329ERGO    R420061   9.653   2.910   6.409 -0.1631 -0.0972 -0.0273
 1329ERGO    R520062   9.504   3.046   6.326 -0.0923 -0.0898 -0.1404
 1329ERGO    C120063   9.551   3.200   6.673 -0.3272 -0.0738 -0.1149
 1329ERGO    C220064   9.569   3.192   6.988 -0.2789 -0.2092  0.2831
 1330ERGO   ROH20065  14.915   5.733   5.808 -0.2491 -0.1109  0.1648
 1330ERGO    R120066  14.875   5.689   6.085 -0.0905 -0.1477  0.1822
 1330ERGO    R220067  14.997   5.481   6.222  0.2173  0.0068  0.1465
 1330ERGO    R320068  15.082   5.682   6.384  0.0336  0.1210  0.1064
 1330ERGO    R420069  15.021   5.459   6.566  0.4249  0.0228  0.1342
 1330ERGO    R520070  14.944   5.663   6.579  0.1544 -0.0749  0.1787
 1330ERGO    C120071  15.116   5.634   6.919  0.3734  0.1395  0.0895
 1330ERGO    C220072  14.977   5.789   7.226 -0.1613 -0.0143 -0.1473
 1331ERGO   ROH20073   8.779   3.923   5.669 -0.1032 -0.0006  0.0855
 1331ERGO    R120074   8.721   3.976   5.941 -0.0425 -0.0668  0.1120
 1331ERGO    R220075   8.879   3.883   6.148  0.1076  0.0370  0.0464
 1331ERGO    R320076   8.885   4.146   6.218 -0.0675  0.0375  0.0631
 1331ERGO    R420077   8.891   4.001   6.473  0.2091  0.0198  0.0490
 1331ERGO    R520078   8.751   4.158   6.416  0.0429 -0.0909  0.1470
 1331ERGO    C120079   8.904   4.316   6.728  0.1039  0.0102  0.0662
 1331ERGO    C220080   8.753   4.374   7.086 -0.0020 -0.4017  0.3119
 1332ERGO   ROH20081  15.595  16.060   5.699  0.2062 -0.0319  0.0223
 1332ERGO    R120082  15.650  16.111   5.972  0.0588  0.0173  0.0434
 1332ERGO    R220083  15.453  16.180   6.153 -0.0536 -0.0423 -0.0557
 1332ERGO    R320084  15.552  15.969   6.292 -0.0346  0.0108  0.0125
 1332ERGO    R420085  15.443  16.147   6.497 -0.1076  0.0365 -0.0493
 1332ERGO    R520086  15.645  16.066   6.490 -0.0897  0.0766  0.0062
 1332ERGO    C120087  15.530  15.930   6.828 -0.1212  0.1322  0.0185
 1332ERGO    C220088  15.540  15.769   7.184  0.1349 -0.2840  0.0522
 1333ERGO   ROH20089  15.016  13.074   5.438 -0.0871 -0.0622 -0.0550
 1333ERGO    R120090  15.054  13.157   5.705 -0.0407 -0.0647 -0.0611
 1333ERGO    R220091  14.854  13.142   5.896 -0.0455  0.0491 -0.0586
 1333ERGO    R320092  15.042  13.003   6.035 -0.1147 -0.0379 -0.0505
 1333ERGO    R420093  14.841  13.075   6.235 -0.0946  0.0530 -0.0594
 1333ERGO    R520094  15.055  13.114   6.246 -0.0756 -0.0437 -0.0485
 1333ERGO    C120095  15.010  12.905   6.562 -0.1882 -0.0265 -0.0521
 1333ERGO    C220096  15.071  12.959   6.830  0.5815  0.0266  0.3104
 1334ERGO   ROH20097   5.658  14.478   5.289  0.0113  0.1176  0.1531
 1334ERGO    R120098   5.582  14.552   5.551  0.0950  0.0507  0.1968
 1334ERGO    R220099   5.428  14.389   5.713  0.0143  0.0751  0.1480
 1334ERGO    R320100   5.634  14.423   5.888  0.0622 -0.1307  0.1326
 1334ERGO    R420101   5.411  14.328   6.053 -0.0583  0.2148  0.1702
 1334ERGO    R520102   5.530  14.507   6.086  0.1751  0.0730  0.1055
 1334ERGO    C120103   5.594  14.323   6.414 -0.0556  0.1028  0.1686
 1334ERGO    C220104   5.622  14.126   6.521 -0.0654 -0.1778  0.1383
 1335ERGO   ROH20105   4.049   4.811   5.946 -0.0164 -0.2034  0.0301
 1335ERGO    R120106   4.181   4.917   6.173  0.0215  0.0079 -0.0876
 1335ERGO    R220107   4.102   5.152   6.295 -0.1926 -0.0686 -0.0703
 1335ERGO    R320108   4.093   4.995   6.517  0.1773 -0.0476 -0.0349
 1335ERGO    R420109   4.079   5.270   6.620 -0.1290 -0.0492 -0.0731
 1335ERGO    R520110   4.221   5.116   6.680  0.1270  0.1543 -0.1435
 1335ERGO    C120111   4.058   5.191   7.017  0.2553 -0.0183 -0.0414
 1335ERGO    C220112   3.870   5.210   7.273 -0.1895  0.6051 -0.1867
 1336ERGO   ROH20113   6.705   2.750   6.016 -0.0179  0.0348 -0.0467
 1336ERGO    R120114   6.667   2.887   6.261  0.1118  0.2129 -0.1262
 1336ERGO    R220115   6.675   2.760   6.506 -0.3905  0.2698 -0.0809
 1336ERGO    R320116   6.862   2.950   6.562  0.0269 -0.1465  0.0129
 1336ERGO    R420117   6.748   2.878   6.822 -0.6397  0.4035 -0.0696
 1336ERGO    R520118   6.764   3.078   6.739  0.0285  0.3030 -0.2820
 1336ERGO    C120119   6.966   3.124   7.059 -0.3930  0.0905  0.0249
 1336ERGO    C220120   7.080   3.180   7.340 -0.2122 -0.0501  0.1185
 1337ERGO   ROH20121  16.989  15.731   5.946  0.1290  0.1596  0.0889
 1337ERGO    R120122  16.983  15.801   6.220 -0.0262  0.1822  0.0802
 1337ERGO    R220123  16.748  15.819   6.364 -0.0769 -0.3085  0.0722
 1337ERGO    R320124  16.874  15.645   6.531  0.3015 -0.0232  0.0978
 1337ERGO    R420125  16.733  15.829   6.709 -0.1592 -0.3261  0.0697
 1337ERGO    R520126  16.945  15.780   6.715 -0.0335  0.1563  0.1055
 1337ERGO    C120127  16.842  15.672   7.066  0.1482 -0.0686  0.0922
 1337ERGO    C220128  16.866  15.468   7.469  0.2571 -0.0196  0.2115
 1338ERGO   ROH20129   5.499   4.067   5.734  0.1151 -0.1278 -0.0143
 1338ERGO    R120130   5.498   4.226   5.968  0.0486 -0.0051 -0.0971
 1338ERGO    R220131   5.333   4.445   5.997 -0.0882 -0.0939 -0.1885
 1338ERGO    R320132   5.256   4.317   6.225  0.0280 -0.0251 -0.1095
 1338ERGO    R420133   5.113   4.574   6.231 -0.1831 -0.1372 -0.2533
 1338ERGO    R520134   5.240   4.492   6.388 -0.1072  0.0589 -0.2104
 1338ERGO    C120135   4.912   4.528   6.580 -0.1293 -0.0980 -0.2170
 1338ERGO    C220136   4.799   4.474   6.882 -0.2036  0.1693 -0.1425
 1339ERGO   ROH20137   4.757   3.372   5.882 -0.1449  0.1793  0.0292
 1339ERGO    R120138   4.911   3.435   6.111 -0.0068 -0.0749  0.0111
 1339ERGO    R220139   4.823   3.611   6.305  0.3644  0.1871 -0.0458
 1339ERGO    R320140   4.873   3.403   6.472 -0.0895  0.1215  0.0215
 1339ERGO    R420141   4.824   3.630   6.650  0.5674  0.3437 -0.0538
 1339ERGO    R520142   4.999   3.499   6.652  0.2456 -0.1081 -0.0794
 1339ERGO    C120143   4.873   3.445   7.008  0.2596  0.3733  0.0047
 1339ERGO    C220144   4.869   3.574   7.336 -0.0221  0.1455 -0.0227
 1340ERGO   ROH20145   5.496   9.799   5.196 -0.0740  0.1820 -0.0360
 1340ERGO    R120146   5.344   9.860   5.427 -0.0568  0.1333 -0.0114
 1340ERGO    R220147   5.318   9.685   5.638 -0.0758  0.0707 -0.0639
 1340ERGO    R320148   5.407   9.897   5.783 -0.0380  0.0127 -0.0024
 1340ERGO    R420149   5.244   9.741   5.971 -0.2466  0.1054 -0.1066
 1340ERGO    R520150   5.223   9.953   5.925 -0.0913  0.1191 -0.1139
 1340ERGO    C120151   5.286   9.973   6.301 -0.3104  0.0711 -0.0737
 1340ERGO    C220152   5.322   9.918   6.752  0.2521  0.0375 -0.0646
 1341ERGO   ROH20153  11.780   6.911   5.462 -0.0632 -0.1552  0.0616
 1341ERGO    R120154  11.734   7.109   5.660  0.1655  0.0093 -0.0476
 1341ERGO    R220155  11.585   7.060   5.888 -0.1368  0.3849 -0.1595
 1341ERGO    R320156  11.808   7.151   6.013 -0.0525 -0.0230  0.0043
 1341ERGO    R420157  11.608   7.131   6.225 -0.3032  0.4826 -0.1667
 1341ERGO    R520158  11.727   7.307   6.175  0.1133  0.2234 -0.1395
 1341ERGO    C120159  11.830   7.258   6.539 -0.3210  0.1566 -0.0172
 1341ERGO    C220160  11.908   7.214   6.971 -0.1486 -0.2100  0.2382
 1342ERGO   ROH20161  18.028  13.722   5.501  0.0762  0.0003  0.1730
 1342ERGO    R120162  17.919  13.704   5.761 -0.0100 -0.0178  0.1355
 1342ERGO    R220163  17.850  13.464   5.878  0.0754 -0.0353  0.1442
 1342ERGO    R320164  18.013  13.550   6.078 -0.0446  0.0799  0.1946
 1342ERGO    R420165  17.786  13.426   6.216  0.0885 -0.2639  0.1234
 1342ERGO    R520166  17.863  13.628   6.248 -0.1597 -0.1770  0.2175
 1342ERGO    C120167  17.901  13.486   6.599 -0.0165 -0.2890  0.1586
 1342ERGO    C220168  17.809  13.380   6.982  0.1580  0.0410  0.1140
 1343ERGO   ROH20169   3.413  15.961   5.314  0.0325 -0.0676 -0.0437
 1343ERGO    R120170   3.559  15.804   5.500  0.3136  0.2825  0.0458
 1343ERGO    R220171   3.688  15.913   5.718 -0.1683  0.6041  0.1978
 1343ERGO    R320172   3.541  15.731   5.855  0.1921  0.1563  0.0120
 1343ERGO    R420173   3.699  15.867   6.061 -0.2012  0.3654  0.1669
 1343ERGO    R520174   3.688  15.652   6.027  0.3034  0.3607  0.0037
 1343ERGO    C120175   3.567  15.669   6.389  0.1180 -0.1938 -0.0255
 1343ERGO    C220176   3.624  15.594   6.628 -0.0953 -0.0749 -0.0007
 1344ERGO   ROH20177  15.846  15.669   5.742  0.3183  0.0364 -0.0670
 1344ERGO    R120178  15.733  15.663   6.001  0.1566  0.0203 -0.1357
 1344ERGO    R220179  15.685  15.427   6.137 -0.0854 -0.0006 -0.2426
 1344ERGO    R320180  15.834  15.546   6.331 -0.1178 -0.1656 -0.1155
 1344ERGO    R420181  15.644  15.378   6.477 -0.3523 -0.0381 -0.2794
 1344ERGO    R520182  15.678  15.591   6.507 -0.1970 -0.0754 -0.2116
 1344ERGO    C120183  15.759  15.462   6.856 -0.5382 -0.2149 -0.1816
 1344ERGO    C220184  15.967  15.504   7.208  0.0648  0.1893 -0.1454
 1345ERGO   ROH20185   9.779   1.956   5.999 -0.1042  0.0917 -0.0437
 1345ERGO    R120186   9.785   1.918   6.280 -0.0757  0.1133 -0.0413
 1345ERGO    R220187   9.556   1.919   6.435 -0.0680  0.0447 -0.0286
 1345ERGO    R320188   9.649   1.678   6.517  0.0206  0.0827 -0.0170
 1345ERGO    R420189   9.463   1.761   6.728 -0.0531 -0.0004 -0.0483
 1345ERGO    R520190   9.671   1.700   6.754 -0.0313  0.0875 -0.0126
 1345ERGO    C120191   9.498   1.442   6.976  0.0386  0.0090 -0.0489
 1345ERGO    C220192   9.355   1.252   7.154 -0.1033  0.2134  0.4510
 1346ERGO   ROH20193   6.853  13.565   5.835  0.2924 -0.0307  0.0461
 1346ERGO    R120194   6.841  13.644   6.107  0.1042 -0.0599  0.0480
 1346ERGO    R220195   6.618  13.604   6.264  0.0326 -0.1770 -0.0797
 1346ERGO    R320196   6.795  13.479   6.428 -0.0002 -0.1108  0.0068
 1346ERGO    R420197   6.572  13.553   6.603  0.0002  0.0240 -0.0529
 1346ERGO    R520198   6.782  13.601   6.634  0.0039  0.0085 -0.0641
 1346ERGO    C120199   6.711  13.406   6.954 -0.0493  0.2033  0.0440
 1346ERGO    C220200   6.682  13.299   7.300 -0.0907  0.0993  0.1648
 1347W        W20201   9.582   6.527   1.623 -0.0370 -0.1967 -0.3002
 1348W        W20202  13.983   8.632   3.052 -0.0711  0.0692  0.4641
 1349W        W20203   8.739  17.283   3.213  0.2198  0.1982  0.1368
 1350W        W20204  11.524  10.865  10.284  0.1862 -0.1006 -0.1604
 1351W        W20205  18.222   5.992   4.071 -0.0311 -0.2769 -0.0243
 1352W        W20206  18.308   0.291  15.031 -0.1365 -0.3923 -0.0253
 1353W        W20207  17.229   4.557  11.209 -0.1196  0.1878 -0.5139
 1354W        W20208  10.830  10.911   3.247  0.0360  0.1278 -0.2116
 1355W        W20209   1.331   7.863  13.143  0.2826 -0.0366 -0.4309
 1356W        W20210  16.712   8.152   3.098 -0.3891  0.1322 -0.1539
 1357W        W20211   3.334  18.605   4.283 -0.1168  0.1529  0.0270
 1358W        W20212  14.695  11.615  12.582 -0.3145  0.1314 -0.3845
 1359W        W20213   9.400   4.308   4.557 -0.1769 -0.0103 -0.0754
 1360W        W20214   4.262  15.804   3.263  0.0671  0.1515 -0.0617
 1361W        W20215  17.638  14.393  12.672  0.1919 -0.2807 -0.1647
 1362W        W20216   7.599   5.131  12.006 -0.0730  0.3795  0.0038
 1363W        W20217  14.360  11.294   1.894  0.2427  0.0661 -0.1517
 1364W        W20218  13.799  10.702   3.915 -0.1552  0.1364 -0.3405
 1365W        W20219   5.864  17.937   1.524 -0.4875  0.0207 -0.2700
 1366W        W20220   8.451  17.472  14.315  0.1091  0.2854  0.1232
 1367W        W20221  11.651  13.986   3.317 -0.2725  0.0557  0.1412
 1368W        W20222   1.204   6.575   2.471  0.1458 -0.0055 -0.0113
 1369W        W20223   3.188   9.204  10.658 -0.0069 -0.0278  0.1018
 1370W        W20224   2.481   4.460  12.935  0.0707  0.1330  0.1615
 1371W        W20225  15.554  14.398  10.735  0.2453  0.1466 -0.3105
 1372W        W20226   4.163   3.430  14.591 -0.1206 -0.0007  0.2381
 1373W        W20227   0.795  14.441   0.817 -0.2753 -0.0183 -0.0125
 1374W        W20228  11.585  10.373  12.726  0.2516  0.0804 -0.0832
 1375W        W20229   9.323   5.583  14.301  0.0107 -0.0047  0.1603
 1376W        W20230   6.906   3.360   1.289  0.1186 -0.4378  0.1088
 1377W        W20231  14.852   9.162   5.000 -0.0814  0.0359  0.0848
 1378W        W20232  11.034   1.176  13.728 -0.4330 -0.1924  0.0284
 1379W        W20233  17.207  10.196   3.144 -0.1619  0.1428 -0.1458
 1380W        W20234  12.358   7.629  11.431 -0.3028  0.0664  0.2341
 1381W        W20235  14.299  10.126   0.198 -0.2731 -0.1359 -0.0589
 1382W        W20236  13.137  15.814  14.158  0.0555  0.2927 -0.4620
 1383W        W20237  11.917  18.423  11.745  0.5101  0.0013  0.0399
 1384W        W20238  18.768  11.758  14.128 -0.0451  0.0254  0.0362
 1385W        W20239  17.890   5.072   1.706  0.0932 -0.0302 -0.2758
 1386W        W20240  17.596  14.556   2.756  0.2834  0.2237 -0.0135
 1387W        W20241   4.058  13.053  14.382  0.2822 -0.1365 -0.1094
 1388W        W20242  10.741  14.686  14.329 -0.0767  0.0008 -0.2906
 1389W        W20243   9.151   2.974   0.631 -0.0539  0.2710 -0.2683
 1390W        W20244  14.529  16.974   1.419  0.4090 -0.1172  0.2081
 1391W        W20245  16.674   1.037   1.640  0.1557 -0.1735  0.4485
 1392W        W20246  15.932   0.146   0.419 -0.1908  0.1526  0.1704
 1393W        W20247   1.770  16.949  13.932 -0.0534  0.0257  0.1276
 1394W        W20248   8.139   2.712   2.306 -0.0082 -0.1217 -0.1632
 1395W        W20249   7.256  12.700  13.753  0.1789  0.1065  0.0740
 1396W        W20250  16.157   5.367   2.741  0.1755 -0.0461 -0.1394
 1397W        W20251  16.092  12.113  12.255  0.0744 -0.0333 -0.1007
 1398W        W20252   6.950  11.156  12.856  0.0611  0.0558 -0.1238
 1399W        W20253  12.097   3.124   0.232 -0.1757  0.0947  0.1215
 1400W        W20254  14.715  15.818  14.392 -0.1098  0.2351 -0.1870
 1401W        W20255  16.587  16.997   4.210 -0.2797  0.0744 -0.1338
 1402W        W20256   4.029   0.024   3.292  0.0214  0.0275  0.0237
 1403W        W20257   7.003  18.240   1.413 -0.2417  0.1857 -0.3441
 1404W        W20258   0.505  10.219  13.928  0.0920 -0.1576 -0.4872
 1405W        W20259  14.417   3.623   2.262 -0.0848 -0.0203 -0.0535
 1406W        W20260  15.692   9.637  10.013 -0.2921 -0.5353  0.3957
 1407W        W20261   1.808  10.127   4.193  0.0999  0.0650 -0.0545
 1408W        W20262   2.238  11.306   0.316 -0.0001 -0.0659  0.0871
 1409W        W20263   7.844  18.577  11.025  0.0484 -0.0307  0.0387
 1410W        W20264   8.350   1.162   3.137 -0.2393 -0.0267  0.1362
 1411W        W20265   8.671   8.165  12.816  0.3588  0.0675 -0.3481
 1412W        W20266   8.916  10.533   3.171 -0.3681  0.1449  0.0970
 1413W        W20267   1.793  17.952  11.244  0.0293 -0.3472 -0.2670
 1414W        W20268   6.673   3.653   4.698  0.2699 -0.0176 -0.1352
 1415W        W20269  18.266  15.113   4.127 -0.1444 -0.3326 -0.0643
 1416W        W20270  12.044   2.062   4.430  0.2614  0.2083 -0.0683
 1417W        W20271  11.103  14.268  14.642  0.1412  0.0229  0.1241
 1418W        W20272   9.852   5.348   1.712 -0.1694 -0.0105  0.0652
 1419W        W20273   9.271  15.449   2.852 -0.1050  0.2470 -0.0633
 1420W        W20274   5.416  12.985  12.649 -0.1161 -0.4790  0.0654
 1421W        W20275   3.221  16.281  11.597 -0.0301  0.0333 -0.1047
 1422W        W20276  14.015  18.795   3.991 -0.0383 -0.2771  0.1341
 1423W        W20277   5.823  12.736   3.060 -0.0528  0.2111  0.1904
 1424W        W20278   3.547   9.153   0.440  0.1902  0.1814  0.2221
 1425W        W20279  10.681   7.360   0.841  0.0021 -0.5473  0.2755
 1426W        W20280   5.679   0.953  11.935  0.1654 -0.1170 -0.0644
 1427W        W20281   8.856   8.243   1.609 -0.1449 -0.0678  0.0973
 1428W        W20282  10.064  12.047  13.500  0.0047  0.0187  0.2418
 1429W        W20283  11.568   6.281   3.641 -0.1489  0.0642  0.1696
 1430W        W20284  11.192   6.827  12.734  0.0566 -0.0409 -0.2262
 1431W        W20285  10.902   9.525  14.264 -0.0350  0.0279  0.2274
 1432W        W20286  10.505  11.123  12.082 -0.0568 -0.2305 -0.1194
 1433W        W20287  10.727   2.702  14.969  0.1701  0.0032 -0.1350
 1434W        W20288  16.935   0.246  11.622  0.1913  0.1042 -0.0362
 1435W        W20289   0.484   8.372  14.985 -0.0862 -0.0393  0.2824
 1436W        W20290   9.073  16.854  12.739 -0.2215  0.0587 -0.0565
 1437W        W20291   6.730  12.190  14.286  0.1147  0.2476  0.0698
 1438W        W20292   4.313   8.075  13.194 -0.0031 -0.0440 -0.1877
 1439W        W20293   6.478  18.016   3.796  0.0374 -0.1204 -0.1996
 1440W        W20294  13.506  15.059  12.599  0.2917 -0.0709 -0.0698
 1441W        W20295  13.730  16.053  12.618 -0.0038  0.1267  0.2547
 1442W        W20296   1.098   2.441  13.423  0.0107 -0.0802  0.2371
 1443W        W20297   2.240   3.147  11.730 -0.0677 -0.1003  0.0408
 1444W        W20298   3.065  14.397   1.380 -0.3165 -0.0517 -0.0349
 1445W        W20299   7.471  18.237  10.653 -0.1775 -0.0195 -0.1155
 1446W        W20300   9.985   2.638  12.663 -0.0637  0.1604  0.2126
 1447W        W20301   1.960   1.928   3.334 -0.3603 -0.1203  0.0053
 1448W        W20302   5.749  13.985  13.612  0.1298  0.1781 -0.2105
 1449W        W20303  12.758  11.036  14.356  0.0117  0.0034  0.4234
 1450W        W20304   3.001   4.631   1.668 -0.2529 -0.3528 -0.0311
 1451W        W20305   4.431  14.798  14.451 -0.0668  0.0587  0.0377
 1452W        W20306  15.778   5.845  14.739 -0.0131  0.2393 -0.2079
 1453W        W20307   1.391  10.454  10.732  0.0902 -0.1082 -0.2520
 1454W        W20308   1.942  12.743  14.219 -0.1368  0.1172 -0.0286
 1455W        W20309   1.680  15.600   2.681  0.0379  0.1828 -0.1667
 1456W        W20310  15.824   8.578  11.657 -0.0102 -0.0571  0.1408
 1457W        W20311  17.660  11.334   0.354  0.1465  0.0596 -0.1220
 1458W        W20312  16.911   7.811  10.652  0.0039  0.1783 -0.1185
 1459W        W20313  14.399   4.849  14.367 -0.0443 -0.1676  0.2910
 1460W        W20314  12.270  17.015  12.852  0.1935  0.0148 -0.0119
 1461W        W20315   6.091   4.427   4.587  0.0158  0.1026 -0.0483
 1462W        W20316   8.813  12.980   3.420 -0.2055  0.3317 -0.0012
 1463W        W20317  10.184  18.309  12.063  0.2213 -0.2848  0.2147
 1464W        W20318   5.535   6.177   0.231  0.0616  0.2916 -0.1902
 1465W        W20319   1.531  14.522   3.391  0.1819  0.2121  0.2484
 1466W        W20320   6.927  10.593   2.090 -0.3703 -0.0224  0.0858
 1467W        W20321  11.931   9.775  12.540  0.1888  0.2424 -0.1342
 1468W        W20322  10.916   8.755   2.904 -0.0940 -0.3100  0.0445
 1469W        W20323   3.349   0.249   2.510 -0.1030  0.0055 -0.1645
 1470W        W20324  13.704  14.816   4.678  0.0429  0.1992 -0.2704
 1471W        W20325   8.569  17.085  12.994  0.1022  0.4849 -0.0177
 1472W        W20326   9.006   7.993   0.679 -0.1567  0.3482  0.3529
 1473W        W20327  14.105  13.184   4.243  0.1810  0.0608 -0.1083
 1474W        W20328   7.704  11.314  11.784 -0.2052  0.0481  0.0460
 1475W        W20329  13.712   4.095   0.925 -0.1785  0.0758  0.1076
 1476W        W20330   7.038  12.540  12.257  0.1116 -0.1445 -0.0211
 1477W        W20331   1.118  11.722   1.133  0.2500  0.0455 -0.1732
 1478W        W20332  15.814  15.912  11.493 -0.0361 -0.1939  0.0001
 1479W        W20333   9.658   0.179   1.765  0.1191 -0.2167  0.0269
 1480W        W20334  12.639  17.621   2.842  0.1089  0.0956 -0.1867
 1481W        W20335  10.339   5.552  12.330 -0.1142 -0.0157 -0.0725
 1482W        W20336   9.275   5.025   1.729  0.3510 -0.3837 -0.3203
 1483W        W20337   7.854   4.343   4.512 -0.1061 -0.1557 -0.0332
 1484W        W20338  12.716  12.731   4.175 -0.1630 -0.1374  0.0131
 1485W        W20339  18.753  14.758   2.957  0.4476 -0.1978  0.1070
 1486W        W20340   0.993  10.724  12.828 -0.0545  0.0016  0.2262
 1487W        W20341  16.555   6.533  14.890 -0.0223 -0.0066  0.1779
 1488W        W20342   9.399  13.262   4.237 -0.0936 -0.0080  0.0926
 1489W        W20343  13.156  12.585  13.071  0.1571  0.0247  0.1736
 1490W        W20344   5.174   7.244   9.511 -0.2748 -0.1001  0.1784
 1491W        W20345   1.899  16.935   3.651 -0.0605 -0.1626 -0.0243
 1492W        W20346  15.156   3.872   3.876 -0.0654  0.3962 -0.1042
 1493W        W20347   8.530  12.193  13.352 -0.1452  0.1818 -0.0072
 1494W        W20348  13.577  16.232  10.258  0.0880  0.2262  0.3571
 1495W        W20349   9.985   2.970   3.141 -0.2873 -0.2484 -0.0836
 1496W        W20350   4.840   5.077  12.549  0.0281 -0.2053  0.1023
 1497W        W20351   7.187  17.413  10.432  0.0874  0.0400 -0.0323
 1498W        W20352   3.061  10.095   2.958 -0.2079 -0.0823 -0.0725
 1499W        W20353   0.545   7.054   2.419  0.2534  0.1702  0.3533
 1500W        W20354   0.217  15.991  14.657  0.1366  0.1430 -0.1166
 1501W        W20355   0.037   8.964  13.576 -0.1783  0.2827 -0.1111
 1502W        W20356   4.938  10.923   0.182  0.1863 -0.0101 -0.1742
 1503W        W20357  11.403   3.936  11.655 -0.1887  0.4805  0.1046
 1504W        W20358   6.178   3.999  12.585  0.0692 -0.2132 -0.0870
 1505W        W20359  16.508  10.572   0.068 -0.2102  0.3564  0.1030
 1506W        W20360  17.897   6.047  14.836 -0.2379  0.1113  0.1294
 1507W        W20361   0.230   1.903   1.195  0.0636  0.0469  0.4267
 1508W        W20362   5.990  10.910   4.501 -0.2386 -0.0974 -0.1750
 1509W        W20363   9.625   2.678  11.629 -0.0893  0.1958  0.0308
 1510W        W20364  16.579   1.041   5.490 -0.0046 -0.2269  0.2637
 1511W        W20365  12.473   7.144   4.618 -0.1379  0.1066  0.0065
 1512W        W20366  13.682   6.547  11.609 -0.1026  0.0140 -0.1083
 1513W        W20367   2.438  16.510  13.247 -0.0448 -0.0974 -0.1969
 1514W        W20368  11.467  10.370   2.056 -0.3376  0.2036  0.0727
 1515W        W20369   9.692  18.755   0.075  0.0038 -0.0359 -0.1530
 1516W        W20370   1.815   3.746  12.575 -0.0811 -0.1849  0.1555
 1517W        W20371  13.398  14.657  12.940 -0.0379 -0.2644 -0.1317
 1518W        W20372   3.961  12.668  12.654  0.1711  0.3386  0.1187
 1519W        W20373  14.629   1.425   2.293 -0.0647 -0.1888 -0.0425
 1520W        W20374   1.881  14.002  12.474 -0.1765 -0.0051 -0.2199
 1521W        W20375   6.973  17.366  11.824  0.3178 -0.0699  0.0576
 1522W        W20376   8.129   7.450  11.494 -0.0691  0.3856  0.1399
 1523W        W20377  12.372   2.643   3.820 -0.1687  0.1948 -0.1586
 1524W        W20378  10.788   4.278  14.793  0.0359 -0.1742  0.3005
 1525W        W20379   7.054   9.298  14.694 -0.3053  0.0497 -0.0573
 1526W        W20380  10.002   0.637   0.907  0.3272  0.0432  0.1362
 1527W        W20381  11.673  16.610  11.338  0.0168  0.4621  0.1739
 1528W        W20382   6.111  10.169   1.876 -0.1071  0.2327 -0.2558
 1529W        W20383  16.856  16.600  13.459 -0.0118 -0.1095  0.2264
 1530W        W20384  18.061  18.028  13.281 -0.0656  0.3205  0.0822
 1531W        W20385   2.618  18.014   2.085 -0.1862  0.2969  0.0837
 1532W        W20386   8.316  18.398  12.693  0.0906  0.2976 -0.0065
 1533W        W20387  15.041  14.239  10.728 -0.2405  0.2045  0.2230
 1534W        W20388   2.844  18.139   1.428  0.1661  0.2036 -0.3873
 1535W        W20389  18.010   1.270   2.585 -0.2719  0.3338 -0.0000
 1536W        W20390  16.333   0.457   0.374  0.0580 -0.0510  0.0600
 1537W        W20391  12.280  16.591  12.148 -0.0949 -0.0482  0.0226
 1538W        W20392   6.757  10.665  11.575 -0.0446  0.2876  0.1706
 1539W        W20393   9.028   2.061   1.469 -0.0649  0.4037 -0.1610
 1540W        W20394  11.150  15.982  10.949  0.0076  0.1343 -0.0091
 1541W        W20395   4.759   0.815   1.315  0.0356  0.1155 -0.0424
 1542W        W20396   0.629   6.056   1.344  0.5284 -0.1349 -0.0440
 1543W        W20397   3.698  14.887  10.938 -0.3910  0.3416 -0.0730
 1544W        W20398   5.201   5.109   3.733 -0.1603 -0.0089  0.0658
 1545W        W20399   6.074  11.208   4.130 -0.3118  0.1499 -0.0698
 1546W        W20400  12.822   3.669   0.737 -0.1589  0.2239 -0.0696
 1547W        W20401  11.530  12.260  13.414 -0.0334  0.1690 -0.1905
 1548W        W20402  14.761  11.394  11.761  0.2187  0.1918 -0.2198
 1549W        W20403  14.380  14.145  12.122  0.1731 -0.3616 -0.2032
 1550W        W20404   1.266   6.506  14.110 -0.0259 -0.0611  0.0509
 1551W        W20405  12.339   5.844   4.608 -0.2507  0.0935 -0.0894
 1552W        W20406   6.177  11.816  12.314  0.0746 -0.4756  0.0056
 1553W        W20407   3.534   9.944  12.238 -0.1941  0.0051 -0.0560
 1554W        W20408   4.272   8.125  14.634 -0.0264  0.0505  0.0583
 1555W        W20409  10.862  16.205  11.600 -0.0478 -0.1041  0.0266
 1556W        W20410   5.740   5.684   4.357  0.1810  0.2375 -0.0303
 1557W        W20411   9.601  10.814   2.576  0.0714 -0.2217  0.4554
 1558W        W20412  13.528  12.174  11.212  0.1223  0.1645 -0.1492
 1559W        W20413   3.470   8.627   0.780 -0.0674 -0.1829  0.3751
 1560W        W20414   3.474   3.230   1.539  0.2461 -0.2598  0.1868
 1561W        W20415   9.345  10.952  10.168 -0.4387  0.2044 -0.0118
 1562W        W20416   0.916  14.256   2.421  0.1036 -0.2543 -0.0093
 1563W        W20417  18.499   3.022   1.370 -0.4329  0.0211 -0.0427
 1564W        W20418   8.209  17.117  13.447  0.1298  0.0233 -0.1304
 1565W        W20419   1.026  14.585   2.846  0.0657  0.1707 -0.1107
 1566W        W20420   5.144   5.813   0.377 -0.4725  0.1536 -0.1069
 1567W        W20421   8.929   2.076   2.094 -0.0060  0.1575  0.3039
 1568W        W20422  10.367  10.686   3.436  0.1353 -0.1857 -0.0869
 1569W        W20423  10.632   4.303  13.911  0.4524 -0.2878  0.0337
 1570W        W20424  12.165  15.909  11.493 -0.1465 -0.0941  0.1417
 1571W        W20425   6.404  14.896   4.376  0.1113 -0.0087  0.1004
 1572W        W20426  17.468   5.729  11.542 -0.4952  0.2417  0.2169
 1573W        W20427   8.425  11.990  12.848 -0.2249 -0.1865 -0.2097
 1574W        W20428   4.177  17.732  13.271  0.1715 -0.1219 -0.0012
 1575W        W20429   3.867  13.614   3.111 -0.4754 -0.2110 -0.0920
 1576W        W20430   6.730   4.683   2.487  0.0325 -0.0569  0.2036
 1577W        W20431  17.441   6.537   1.528 -0.0513  0.0791 -0.0486
 1578W        W20432   8.120  11.378   2.076 -0.1169 -0.0250  0.1245
 1579W        W20433   7.440  12.056  11.581  0.2424  0.1349 -0.2136
 1580W        W20434  18.186   4.872   3.195  0.0658 -0.3845 -0.0747
 1581W        W20435   3.962   0.645  11.114 -0.0994  0.0773 -0.2436
 1582W        W20436  17.082  10.437   1.713  0.1794  0.1369 -0.2413
 1583W        W20437  10.951   8.242   3.989  0.2507 -0.1803 -0.1121
 1584W        W20438  12.253  11.223  13.429  0.3249  0.1750 -0.0922
 1585W        W20439   8.551  10.447  12.639  0.0179  0.0576 -0.1017
 1586W        W20440  14.914  12.377  11.484 -0.1365  0.1085  0.0984
 1587W        W20441   4.956   0.570  13.473 -0.1102  0.0591  0.0645
 1588W        W20442   1.480   4.429   4.243 -0.2468  0.1590  0.1008
 1589W        W20443   1.293   4.601  12.048 -0.3328  0.0983  0.1599
 1590W        W20444   4.127  12.561   1.977 -0.0907 -0.1247  0.1033
 1591W        W20445  11.678  17.753   2.591  0.2547  0.0753  0.2472
 1592W        W20446   6.696   2.481   9.959  0.0582  0.0316 -0.1419
 1593W        W20447  15.274  18.564  12.364 -0.0900  0.1202 -0.2881
 1594W        W20448   1.328  10.744  12.382  0.1033 -0.0074 -0.1734
 1595W        W20449  16.879  10.462  14.057  0.0987  0.1916 -0.3804
 1596W        W20450   8.577  14.965   1.562  0.0705 -0.2950 -0.1194
 1597W        W20451   5.052  16.193   0.645 -0.1834 -0.1651  0.3205
 1598W        W20452   9.980  11.730   2.908 -0.3279 -0.0448  0.3429
 1599W        W20453  16.790  14.708   0.600 -0.0858 -0.0618 -0.1044
 1600W        W20454   9.166  12.114   3.125  0.0703 -0.1662  0.4675
 1601W        W20455  14.549   7.338   4.213  0.2827  0.0250  0.2538
 1602W        W20456  13.733   1.133   3.223 -0.2327  0.0821 -0.1603
 1603W        W20457   0.147  10.536   2.771 -0.3369  0.0268  0.0357
 1604W        W20458   9.947   1.124   0.968  0.1212 -0.1060 -0.0605
 1605W        W20459  12.952   5.226   0.338  0.3472  0.0758  0.0663
 1606W        W20460  18.549   2.618  14.773  0.0716  0.0926 -0.0078
 1607W        W20461  16.262   4.317   1.028  0.0325 -0.1160  0.4965
 1608W        W20462   6.393   9.300   1.444 -0.0382 -0.1136  0.0201
 1609W        W20463   7.138   0.079   3.031  0.0871 -0.1372 -0.1468
 1610W        W20464   9.326  16.229  11.297  0.0910  0.3698  0.1870
 1611W        W20465   2.931  10.971  13.589  0.3024 -0.5391 -0.3228
 1612W        W20466   7.592   9.613  13.079  0.0165 -0.0631  0.0116
 1613W        W20467   9.847   5.920  12.654  0.2056  0.3573  0.0594
 1614W        W20468  18.156  14.161  12.854  0.0297  0.0914  0.0061
 1615W        W20469  15.589  18.238   1.813 -0.2806  0.0197  0.2356
 1616W        W20470   4.972   4.835   2.349  0.1297  0.0979 -0.1813
 1617W        W20471   8.513   5.730   3.145  0.0663  0.1934  0.0727
 1618W        W20472  17.694  15.805  12.727  0.3311  0.0463 -0.1202
 1619W        W20473   3.528   2.287   0.531 -0.2242 -0.2400  0.0590
 1620W        W20474  14.942   5.230  11.219  0.1028 -0.2044 -0.3383
 1621W        W20475   3.911   6.175   2.140  0.4858 -0.1554  0.0874
 1622W        W20476  14.173   4.840   2.792  0.2373 -0.0745 -0.1891
 1623W        W20477   7.573  15.956   0.820 -0.1825  0.2483 -0.1586
 1624W        W20478  13.653   6.876   4.224  0.1592 -0.1809 -0.1198
 1625W        W20479  11.833   0.956   1.620  0.1929  0.0390  0.1054
 1626W        W20480   1.560  15.902  13.519 -0.0109  0.0894  0.1662
 1627W        W20481   7.550  15.485   0.571  0.0811  0.0982 -0.1354
 1628W        W20482   6.859  15.869  13.438  0.0408 -0.0718  0.1323
 1629W        W20483   3.403  12.918   9.760  0.1786 -0.0273 -0.1447
 1630W        W20484   3.019   1.386  12.887  0.0873  0.0744 -0.0516
 1631W        W20485   3.948   4.849  12.818 -0.1745 -0.5575  0.1451
 1632W        W20486   2.420  15.827   1.872 -0.0797 -0.1222 -0.0099
 1633W        W20487   0.561   3.415   3.101  0.4478 -0.2139 -0.1197
 1634W        W20488   8.351  11.299  11.209  0.2178 -0.0086 -0.0742
 1635W        W20489   2.095   7.103  12.189 -0.1066  0.1026  0.2058
 1636W        W20490  13.542   8.682  11.597 -0.1151  0.1552 -0.1225
 1637W        W20491  13.028  11.416   0.080 -0.0975  0.2336  0.2929
 1638W        W20492   5.698  14.730  11.983 -0.1949  0.0156  0.0512
 1639W        W20493  16.123   7.889   5.248  0.2786  0.1281 -0.1959
 1640W        W20494   9.733  13.715  12.337 -0.1696 -0.0783 -0.1893
 1641W        W20495  15.160  14.357   0.695  0.2236  0.0079  0.1248
 1642W        W20496  16.321   5.402  14.191 -0.0383  0.1488  0.1233
 1643W        W20497   1.722  13.132  14.506  0.1059 -0.1496  0.3464
 1644W        W20498  13.677   7.569   4.765 -0.0235  0.0170  0.0302
 1645W        W20499   1.035   6.672  10.609  0.0719 -0.2381 -0.1627
 1646W        W20500   2.119   6.320   1.694 -0.1987  0.0353 -0.2424
 1647W        W20501  12.032  16.572  13.599  0.0515  0.3067 -0.2954
 1648W        W20502  15.419  11.740  12.027 -0.0789  0.1155 -0.0708
 1649W        W20503  16.859  12.304   1.374 -0.1188 -0.0422  0.2030
 1650W        W20504   2.315  12.428   2.630 -0.1692  0.2647  0.3602
 1651W        W20505   7.042   3.911   1.287  0.2573  0.2968 -0.0092
 1652W        W20506   7.229  15.896   3.486  0.1672 -0.2778 -0.0932
 1653W        W20507   8.400   6.992   2.619 -0.0958 -0.0322 -0.0818
 1654W        W20508   8.843  18.216  11.231 -0.0176  0.0767 -0.0182
 1655W        W20509  17.441   6.198  10.652 -0.0769 -0.1237 -0.2404
 1656W        W20510   9.735   6.102   3.318 -0.2487  0.3342 -0.2639
 1657W        W20511   4.179  16.237   4.053  0.0734 -0.0920  0.0023
 1658W        W20512   8.338  14.437   2.451 -0.1451  0.4049  0.0872
 1659W        W20513   2.082  11.035  13.647 -0.1082 -0.1688  0.0372
 1660W        W20514   2.831  13.638  10.940  0.1912  0.0192  0.0114
 1661W        W20515  15.226   4.811   4.222  0.0001 -0.1550 -0.0672
 1662W        W20516   2.809  16.421   0.875 -0.1988  0.2444 -0.0625
 1663W        W20517   6.385   1.374   0.075 -0.1947 -0.1138 -0.2463
 1664W        W20518   3.937   7.520   4.214 -0.2272 -0.0159  0.4110
 1665W        W20519  16.092   4.550  12.392  0.1616 -0.0134 -0.1066
 1666W        W20520  16.724  12.688  12.006  0.1231 -0.0502  0.0509
 1667W        W20521  14.766   4.653  12.983 -0.2205 -0.2398 -0.1012
 1668W        W20522   0.548  17.509  11.572 -0.0077  0.0772 -0.0949
 1669W        W20523  18.819  15.176   3.242  0.1718 -0.0079 -0.1661
 1670W        W20524   2.215   5.706  11.858 -0.1477 -0.1523  0.0023
 1671W        W20525  15.874   3.587   3.420 -0.0533 -0.1106 -0.1088
 1672W        W20526   4.229   9.282  11.716  0.0603 -0.1681 -0.0487
 1673W        W20527  13.127   1.463  11.722 -0.1753 -0.0613 -0.3491
 1674W        W20528   4.539   9.249  11.277  0.0147  0.0233 -0.0492
 1675W        W20529  10.966   8.358  14.886  0.0224 -0.0759  0.0612
 1676W        W20530  14.824   9.476   1.125  0.1030 -0.0317 -0.0737
 1677W        W20531  12.011  14.306  10.106 -0.2010 -0.0484  0.1018
 1678W        W20532  12.223   8.052   2.963  0.0482  0.0002 -0.1744
 1679W        W20533  18.351   9.700   2.298 -0.1213  0.1383  0.2572
 1680W        W20534  16.225   0.339   1.911  0.4968 -0.1153  0.1922
 1681W        W20535   3.453   4.374  13.353 -0.2599 -0.2607 -0.1363
 1682W        W20536   4.468  13.368   0.187  0.0409 -0.3687 -0.1234
 1683W        W20537  18.545  13.454  14.614 -0.0479  0.1083 -0.4254
 1684W        W20538  18.657  17.887  10.906 -0.0510  0.2568  0.0331
 1685W        W20539   8.302   3.886  14.057  0.1677  0.5097 -0.0108
 1686W        W20540  10.542   5.130  12.237 -0.3043  0.1611  0.0412
 1687W        W20541  17.691   4.556   0.579  0.0972  0.1278  0.2928
 1688W        W20542   0.218   9.851  13.436  0.4253 -0.0868 -0.0669
 1689W        W20543  10.692   8.442   0.170  0.0686  0.2540  0.1468
 1690W        W20544   2.477   4.847  10.001 -0.0608  0.1680 -0.1050
 1691W        W20545  10.869   3.677   3.490  0.1888 -0.1389 -0.0393
 1692W        W20546   0.941   3.121  13.923 -0.3234 -0.0114  0.1000
 1693W        W20547   5.062   6.236  10.610  0.0341  0.0710 -0.2994
 1694W        W20548  17.369   8.919  12.318  0.1680  0.0106  0.0956
 1695W        W20549   3.855   5.519   2.809  0.0673  0.3270  0.0872
 1696W        W20550   5.216   9.004   1.986  0.0642 -0.1133 -0.1131
 1697W        W20551   6.037   9.258  12.187 -0.1778 -0.0218 -0.1789
 1698W        W20552  10.619   2.288   0.127 -0.0592  0.2570 -0.1160
 1699W        W20553  14.954  14.605  14.973  0.1360  0.0145 -0.1017
 1700W        W20554  15.836   7.218  14.111  0.1422  0.1419  0.2835
 1701W        W20555  16.970   0.317  13.665  0.0779  0.0039  0.0437
 1702W        W20556   6.642   1.815  11.810 -0.1053 -0.0796 -0.0750
 1703W        W20557  13.765   1.185  14.883 -0.3191 -0.2473  0.2406
 1704W        W20558  16.621  12.979  13.768 -0.0168  0.0523 -0.0614
 1705W        W20559   5.004  15.832   3.627  0.2251  0.1966  0.5779
 1706W        W20560  10.450   6.010   4.376 -0.1526  0.0657 -0.1310
 1707W        W20561   0.170   7.768  10.610  0.0258 -0.0699  0.1684
 1708W        W20562  10.130  15.022   4.340  0.1263  0.3207  0.0447
 1709W        W20563  17.805   7.390   3.291 -0.1624  0.2125 -0.0030
 1710W        W20564   5.932   8.621   2.867  0.3357  0.2623 -0.0559
 1711W        W20565   1.292   1.142   2.251 -0.0491 -0.0162  0.1539
 1712W        W20566   1.019  11.178  11.338 -0.0676  0.1246  0.0158
 1713W        W20567  11.638  14.817   4.020  0.2458  0.2628  0.0274
 1714W        W20568  11.713   5.290   2.743  0.1618 -0.2121 -0.0837
 1715W        W20569   4.804   7.250   9.915 -0.2951  0.0266 -0.3063
 1716W        W20570   3.625   6.695   0.342  0.0308 -0.0506 -0.1147
 1717W        W20571  12.323  17.453   1.617 -0.1845  0.2638 -0.0041
 1718W        W20572  11.035  13.771   0.762 -0.2088 -0.1557  0.3068
 1719W        W20573  13.190  10.317  13.189  0.1727 -0.3031 -0.0526
 1720W        W20574   3.483  15.002   3.435 -0.2351  0.0804  0.2363
 1721W        W20575   4.006   5.486  14.626 -0.1587 -0.0548  0.0065
 1722W        W20576   2.378  15.592  12.813  0.0064  0.2482  0.0659
 1723W        W20577  10.043  10.070  12.641 -0.3789  0.4125 -0.0677
 1724W        W20578  13.921  12.327   0.231  0.1729 -0.0446  0.0836
 1725W        W20579  14.259   2.536   3.667  0.0659  0.1726 -0.2433
 1726W        W20580   3.440  18.160   9.805 -0.1448  0.0499  0.1261
 1727W        W20581   6.017  13.599   3.150 -0.2381 -0.1268  0.0148
 1728W        W20582  10.586  18.030  12.158  0.0563  0.0757 -0.1528
 1729W        W20583   4.555  13.339   1.784 -0.3472 -0.3644  0.1044
 1730W        W20584   4.020  17.838   1.580  0.0431 -0.1626 -0.0406
 1731W        W20585   1.917  16.768   3.093 -0.3511  0.2704 -0.3722
 1732W        W20586   9.333  18.319  13.804  0.3816 -0.2150  0.1158
 1733W        W20587   5.628  14.651  14.979 -0.0674 -0.0706  0.0868
 1734W        W20588   0.655   3.778   3.443  0.1874 -0.1461  0.0798
 1735W        W20589   9.653   0.119  11.529 -0.2628  0.4848 -0.0581
 1736W        W20590  10.453   4.985   3.311  0.0700 -0.1235  0.0068
 1737W        W20591  14.812  12.829   1.291 -0.0361 -0.0960  0.0797
 1738W        W20592  11.659   1.918   4.114 -0.0910  0.2247 -0.0983
 1739W        W20593  17.555  14.464   0.482  0.0628  0.0233 -0.2413
 1740W        W20594  18.652  15.221  10.117 -0.1306  0.0759 -0.2415
 1741W        W20595   3.523   9.249   3.988  0.1424  0.3112 -0.2296
 1742W        W20596  10.223   7.474  14.467  0.0528 -0.1947  0.0909
 1743W        W20597   3.839   0.610   1.052 -0.4153  0.0845  0.3076
 1744W        W20598  15.200   1.229  11.067 -0.1766 -0.0852 -0.2497
 1745W        W20599   7.218  17.656   4.457  0.0118 -0.1872 -0.1985
 1746W        W20600   5.102   4.492   4.450 -0.0652  0.0488 -0.0267
 1747W        W20601   2.944   8.005  13.276 -0.1745  0.2366 -0.1441
 1748W        W20602  15.798  16.076   2.290 -0.1237  0.0223 -0.0176
 1749W        W20603   9.434  10.180   3.601  0.0612 -0.2624 -0.1071
 1750W        W20604  15.676  14.560   4.191  0.0195 -0.0812 -0.1109
 1751W        W20605   1.553   4.178  12.457  0.1767  0.0058 -0.1191
 1752W        W20606   6.464   8.869   4.752  0.1419 -0.1773 -0.2208
 1753W        W20607  12.968  15.538   3.090  0.4636  0.2799  0.3416
 1754W        W20608   7.390   7.292   3.013  0.1180 -0.1498 -0.1383
 1755W        W20609   7.175   0.824   2.402 -0.1332 -0.2074 -0.1277
 1756W        W20610  12.002  13.544   3.709 -0.1316  0.2187  0.1452
 1757W        W20611  18.065  10.260  14.326 -0.0486 -0.0399  0.1307
 1758W        W20612  16.015   6.583  14.750  0.1664 -0.2777  0.1360
 1759W        W20613  17.636   4.988   3.206  0.4638 -0.0085  0.0693
 1760W        W20614  17.431   9.785   1.372 -0.3258  0.0620  0.3121
 1761W        W20615  11.826   5.814   0.044 -0.0544  0.0106 -0.2760
 1762W        W20616  10.531  18.305  10.583 -0.1794  0.1564  0.0189
 1763W        W20617  15.260  18.582  11.133  0.0490 -0.1294  0.1269
 1764W        W20618  13.355  16.211  13.069  0.0777 -0.1998 -0.1268
 1765W        W20619   3.070   7.017   3.590  0.2732 -0.0759 -0.0918
 1766W        W20620   4.355  12.704   2.491 -0.2167  0.0620  0.0595
 1767W        W20621   1.996   0.793  13.776 -0.3907 -0.1052  0.0352
 1768W        W20622  10.999   2.959  13.200  0.0732 -0.1359  0.0146
 1769W        W20623   4.105  18.065   3.941  0.2885 -0.2889 -0.3886
 1770W        W20624   1.260  10.853   2.710  0.0944  0.2682 -0.0838
 1771W        W20625  18.624  15.455  12.952 -0.0825 -0.0259 -0.0616
 1772W        W20626  13.273  13.396   0.000  0.0971 -0.0114  0.0866
 1773W        W20627  12.540   4.961   3.554 -0.1338  0.4109 -0.1908
 1774W        W20628  14.926   5.729   4.040 -0.3399 -0.0388 -0.0166
 1775W        W20629  13.559   1.122   0.454 -0.0589  0.2412  0.1630
 1776W        W20630  10.355  18.811   3.667 -0.1767 -0.1271  0.1312
 1777W        W20631  12.088  15.125  10.246  0.0170  0.1996  0.0749
 1778W        W20632  16.984  11.325  14.858  0.2242 -0.0531 -0.0828
 1779W        W20633   7.387   6.236   1.772 -0.0350 -0.1256  0.0313
 1780W        W20634  10.551   9.866   3.112  0.2408  0.0629 -0.2533
 1781W        W20635   4.191   6.349  13.164 -0.3376 -0.0512 -0.1852
 1782W        W20636  13.855   2.780   0.729 -0.1970  0.1755 -0.0938
 1783W        W20637   0.710   4.033   1.964  0.2300 -0.2807 -0.2940
 1784W        W20638  11.160  13.787  12.982  0.1696 -0.3933  0.0509
 1785W        W20639   4.897   4.807  11.557 -0.0104  0.1252 -0.1985
 1786W        W20640  10.442   5.752   5.749  0.2657 -0.2718 -0.0141
 1787W        W20641   2.582   2.629   2.276 -0.1724 -0.0102  0.0524
 1788W        W20642  13.179  13.021   1.712  0.1410 -0.3855 -0.2060
 1789W        W20643   5.146  13.634   3.708  0.0751 -0.0119  0.0504
 1790W        W20644   0.277   6.484   3.240 -0.0326  0.0593  0.1338
 1791W        W20645  11.667  15.617  10.998 -0.0225 -0.2241  0.2175
 1792W        W20646   9.321   1.877   0.646 -0.2836 -0.2741  0.2820
 1793W        W20647   8.041  13.957   1.302  0.1668 -0.1787  0.1979
 1794W        W20648   1.197   7.258   0.677 -0.1325  0.1531 -0.2024
 1795W        W20649   0.455   5.997   3.265 -0.0398  0.4210  0.0039
 1796W        W20650  12.379   4.148  13.742  0.1914 -0.1550 -0.1598
 1797W        W20651  15.328  16.745   2.638  0.0118  0.1498  0.0514
 1798W        W20652  16.997   5.581  14.529  0.5458 -0.0856  0.0609
 1799W        W20653   3.364  10.194  14.412  0.0605 -0.2659  0.0758
 1800W        W20654   1.587   4.733   3.484  0.0855  0.1179 -0.3038
 1801W        W20655   3.574  18.310  13.534  0.1719 -0.2386 -0.2518
 1802W        W20656  17.848   4.148  12.708  0.1540  0.1904  0.3161
 1803W        W20657   6.194   7.886   4.035  0.0058 -0.1068 -0.0894
 1804W        W20658  18.564  14.091  14.075  0.0200 -0.2769 -0.0230
 1805W        W20659   9.927  10.780   0.475  0.2156  0.0747 -0.3552
 1806W        W20660   9.849   3.453   3.976  0.1807 -0.0196  0.3149
 1807W        W20661  17.013   1.329   1.849 -0.0554 -0.0402 -0.0700
 1808W        W20662  11.923  12.598  13.057  0.0129  0.2077  0.2348
 1809W        W20663   8.401   9.795   4.026  0.1157 -0.0179  0.1721
 1810W        W20664  18.206   2.286   1.557 -0.0962 -0.2384  0.0859
 1811W        W20665  12.221  12.348   3.242  0.1375  0.3996 -0.0083
 1812W        W20666   9.608   3.872  13.875  0.0280  0.0305 -0.0783
 1813W        W20667   2.460  11.185   9.407 -0.3072 -0.2212  0.0134
 1814W        W20668  12.869  18.706  10.848 -0.0292  0.0762  0.2170
 1815W        W20669  14.875   8.253  14.731 -0.1302  0.0684  0.3858
 1816W        W20670   7.086   5.395  11.791  0.0389  0.0231  0.0321
 1817W        W20671  14.318   9.541  15.061 -0.0177  0.0378  0.2950
 1818W        W20672  10.401   0.314   4.459 -0.2372 -0.0446 -0.2976
 1819W        W20673   1.986  18.253   1.457 -0.1619  0.0481 -0.0596
 1820W        W20674  17.352  18.223  12.470 -0.0108 -0.0780 -0.0795
 1821W        W20675  14.752  18.846  11.454  0.2052  0.0576  0.0527
 1822W        W20676  13.510  17.035  13.437 -0.0733  0.0332  0.1384
 1823W        W20677  15.005   4.651  12.430 -0.0114  0.0702 -0.0470
 1824W        W20678  14.378   5.492  14.156 -0.3027 -0.0413  0.0663
 1825W        W20679   6.554  10.231   4.432 -0.0062 -0.2677  0.0930
 1826W        W20680   8.377  13.641   1.522 -0.0647  0.2459  0.1745
 1827W        W20681   3.261   5.366   3.369  0.0956  0.0735  0.3358
 1828W        W20682   7.864  17.421   2.374 -0.0396  0.0903 -0.0168
 1829W        W20683   3.719   3.381   1.086 -0.0342 -0.2248  0.1238
 1830W        W20684   5.953   5.714   2.502  0.1527 -0.1004  0.0932
 1831W        W20685   5.670  15.334   0.629 -0.0426 -0.2869  0.1679
 1832W        W20686  10.991   2.139   4.469 -0.1502  0.2052 -0.1426
 1833W        W20687  10.509   6.329   3.733  0.1133 -0.2688 -0.3077
 1834W        W20688  14.266  13.640   1.821  0.2720  0.1250  0.3265
 1835W        W20689   0.252   2.184   2.116 -0.0180  0.0502 -0.3544
 1836W        W20690   3.058   8.918   1.987  0.3046  0.0574  0.2391
 1837W        W20691  11.680   7.666  10.767 -0.0178  0.0531 -0.2478
 1838W        W20692   7.872   4.594  13.620  0.0499 -0.0684 -0.0181
 1839W        W20693  12.740   1.943  14.165  0.1748 -0.0119  0.1611
 1840W        W20694   2.826  10.370  11.112  0.0719 -0.0773  0.3068
 1841W        W20695  14.277  13.227   2.802 -0.0007 -0.0948 -0.2051
 1842W        W20696   3.203  13.036   0.418 -0.0110  0.4248 -0.2525
 1843W        W20697   4.075   5.322  15.098 -0.1034  0.0977  0.2466
 1844W        W20698   0.329  15.421   4.098  0.1550  0.1825 -0.1899
 1845W        W20699   8.855   3.506  13.551 -0.3119  0.1386 -0.1722
 1846W        W20700  13.539  15.840   1.185 -0.3384 -0.1455 -0.2354
 1847W        W20701  18.705  12.284  13.300 -0.3673 -0.1582 -0.1127
 1848W        W20702  14.083  11.330  11.188 -0.1724  0.3424  0.0863
 1849W        W20703  11.239   7.885   4.248  0.1421 -0.0135  0.1737
 1850W        W20704  12.486  15.079   3.168 -0.2659  0.0118 -0.1674
 1851W        W20705   7.655   2.627  13.022 -0.0840 -0.0099 -0.3116
 1852W        W20706   6.709  13.896  11.988 -0.1480 -0.0352  0.0228
 1853W        W20707   8.482   2.598   1.388 -0.0889 -0.0344 -0.1323
 1854W        W20708   2.826   9.021   1.300  0.0372 -0.3232 -0.1118
 1855W        W20709   3.036  10.855   1.865 -0.0478 -0.2425  0.1210
 1856W        W20710  14.274  13.965   2.739  0.1379 -0.2955  0.3117
 1857W        W20711  12.864   7.112  11.807 -0.2693  0.1289  0.1663
 1858W        W20712  15.562  15.598  14.898  0.0041  0.3373  0.3246
 1859W        W20713  14.377  11.788  11.975 -0.1435  0.0249  0.0152
 1860W        W20714   7.507  16.840   3.252 -0.0236  0.1838 -0.0049
 1861W        W20715  13.649  12.859  13.878  0.1200  0.1141  0.0460
 1862W        W20716   3.787   5.808   1.009 -0.0528  0.1363 -0.1627
 1863W        W20717   0.720   3.474   1.878 -0.0619  0.0863 -0.0190
 1864W        W20718  15.581   4.220  10.210 -0.3272  0.0642 -0.1179
 1865W        W20719  11.350  10.556   2.591  0.0981 -0.0065  0.1844
 1866W        W20720   8.362  17.376   2.279 -0.4083 -0.0167  0.1470
 1867W        W20721   0.533   9.913  14.951 -0.5891 -0.1593 -0.3505
 1868W        W20722   2.355  15.200  12.218 -0.0142 -0.0139  0.0548
 1869W        W20723   6.488   8.353   4.015  0.0659 -0.2084  0.1683
 1870W        W20724  11.138  12.996   0.944  0.2458 -0.1646  0.1761
 1871W        W20725   1.021   9.257   2.882  0.0241 -0.2797 -0.3017
 1872W        W20726  11.805  18.132  12.513 -0.0455  0.1428 -0.0041
 1873W        W20727  16.747   4.935   1.320 -0.2539 -0.0945 -0.1548
 1874W        W20728   0.513  15.186  10.903  0.0700  0.1670 -0.0091
 1875W        W20729  14.740  16.375   3.730  0.0665 -0.2602  0.0865
 1876W        W20730   2.585  18.552   2.109  0.2052 -0.2349 -0.3868
 1877W        W20731  16.930   0.748   1.021 -0.0858 -0.0952  0.2323
 1878W        W20732   3.224   6.083   1.704 -0.0312 -0.0295 -0.0041
 1879W        W20733   2.117   4.932   3.735 -0.0713  0.0131 -0.0446
 1880W        W20734  17.143   6.327   0.566  0.0497 -0.2740  0.1273
 1881W        W20735  14.544  14.307   2.177  0.2332 -0.0231  0.0288
 1882W        W20736  13.439   3.460   1.294  0.3203 -0.0119  0.1338
 1883W        W20737  18.351   2.191   3.950 -0.0734  0.0742 -0.1145
 1884W        W20738  18.699  10.662  10.577 -0.1120 -0.0358 -0.2095
 1885W        W20739   2.106   2.171   0.564 -0.0796  0.0058 -0.2160
 1886W        W20740   0.091   2.897   0.152  0.0205  0.2263 -0.1732
 1887W        W20741   1.281  12.988   3.652  0.3057  0.0730 -0.0459
 1888W        W20742   3.354   2.768  14.734  0.1118  0.1568 -0.0797
 1889W        W20743  11.503   6.053  13.863 -0.3208  0.0301  0.1527
 1890W        W20744  15.119  15.740  12.845  0.1731 -0.1478 -0.0749
 1891W        W20745  11.806  17.531   4.582 -0.2300  0.0650 -0.2169
 1892W        W20746  13.875  15.467   1.021 -0.0883 -0.1633 -0.1564
 1893W        W20747  13.382   2.060   0.768 -0.1632  0.1306 -0.4728
 1894W        W20748   7.699  14.625  13.102 -0.0313 -0.0984  0.0097
 1895W        W20749   9.411   5.719  14.972  0.0357 -0.1318 -0.2098
 1896W        W20750  11.300  13.096  13.807  0.0909  0.1396 -0.2162
 1897W        W20751   6.722  10.812   3.057 -0.0593 -0.0750 -0.0222
 1898W        W20752  17.635   2.179  13.321  0.2874 -0.0119 -0.0823
 1899W        W20753  15.633  11.202   4.420 -0.2281  0.2775  0.3197
 1900W        W20754   4.233   1.387   2.616 -0.0868  0.2300 -0.1220
 1901W        W20755   0.219  12.933   3.722 -0.0622 -0.3821 -0.1123
 1902W        W20756   1.123   4.317   1.234  0.0963  0.3999  0.1527
 1903W        W20757   2.645   7.446   2.193 -0.1262 -0.3343 -0.1250
 1904W        W20758   8.018  17.016   2.548 -0.4116  0.1444  0.1183
 1905W        W20759  11.213   8.938  14.675 -0.0766  0.2890  0.4035
 1906W        W20760  10.417   9.709   9.888 -0.1745 -0.1156  0.0312
 1907W        W20761  15.519  13.438  10.943 -0.1154  0.1617 -0.3740
 1908W        W20762  13.565  10.239   3.811 -0.1708  0.3201  0.1187
 1909W        W20763   4.179  11.324  11.511 -0.1076 -0.0854  0.1635
 1910W        W20764   5.919  18.669  11.532 -0.1758  0.1899  0.1224
 1911W        W20765  17.103  14.775  14.623 -0.1027 -0.1361  0.2712
 1912W        W20766   9.775  11.774  13.953  0.1523  0.0840 -0.1335
 1913W        W20767  15.680   4.030   3.803  0.1876 -0.2387 -0.1138
 1914W        W20768  12.575   8.277   9.747 -0.0843 -0.0372 -0.1892
 1915W        W20769   2.800   2.666  10.619  0.3708 -0.3100  0.2653
 1916W        W20770  11.481  14.806  12.970  0.0084 -0.0716  0.1456
 1917W        W20771  17.909  13.701  12.789  0.0236 -0.1230  0.1108
 1918W        W20772   0.288   8.980  14.803 -0.1535  0.0566 -0.0991
 1919W        W20773   2.971  13.896   1.299 -0.0198  0.0496  0.5822
 1920W        W20774  12.212  14.101   3.451  0.1017  0.2203 -0.1529
 1921W        W20775   4.746  10.733   3.690 -0.0467  0.3178 -0.1510
 1922W        W20776   9.397   4.243  13.024  0.1220  0.3173 -0.0307
 1923W        W20777  10.899  10.556   4.207 -0.1601  0.0941 -0.0400
 1924W        W20778   2.595   7.384  13.800 -0.2845 -0.0279  0.1272
 1925W        W20779  10.698   5.406  11.419  0.0648 -0.1187  0.0861
 1926W        W20780   6.182  14.091  15.073 -0.1912 -0.0489  0.1324
 1927W        W20781   2.035  12.151  11.068 -0.2264 -0.1507  0.0598
 1928W        W20782   9.921  15.032  13.757  0.0851  0.2898 -0.3279
 1929W        W20783   6.546   0.686   2.884  0.1111 -0.1312  0.3751
 1930W        W20784  12.930   7.994  14.085  0.0399  0.0616  0.2039
 1931W        W20785  17.344   1.389   1.488 -0.0037  0.1045  0.0108
 1932W        W20786  12.819   9.659   2.192  0.0657 -0.2064 -0.0851
 1933W        W20787  13.379   2.169  11.099  0.2477  0.0611 -0.3828
 1934W        W20788  14.285   7.911  12.316 -0.1048 -0.1640 -0.3195
 1935W        W20789  13.235  10.729  11.519 -0.1044 -0.0636  0.1723
 1936W        W20790   5.190   2.049   0.162 -0.0225  0.0005 -0.1130
 1937W        W20791  13.729   3.009  13.026  0.1033 -0.1113  0.0838
 1938W        W20792  18.231   0.791  10.673 -0.0117  0.1527  0.0962
 1939W        W20793  14.410   4.437   3.605 -0.2622  0.0058  0.2271
 1940W        W20794  11.635   8.480  12.845 -0.1039 -0.0246 -0.2322
 1941W        W20795  16.716  10.569   0.893 -0.0137 -0.4393  0.0623
 1942W        W20796  14.280   7.252  13.829  0.1794  0.4619  0.1788
 1943W        W20797  10.111  15.913   9.783 -0.1184  0.0030  0.0231
 1944W        W20798   5.836   7.837   4.465  0.1879  0.0121  0.0511
 1945W        W20799   5.888  11.538   1.901 -0.0527  0.2420 -0.1497
 1946W        W20800   3.750   6.097  13.182 -0.0568  0.1183 -0.3718
 1947W        W20801  14.421   7.798   4.430  0.0214  0.2876 -0.2895
 1948W        W20802   6.056   4.831   4.048 -0.1785  0.1600 -0.0049
 1949W        W20803   0.966  14.315   3.818 -0.1771  0.0791  0.2754
 1950W        W20804   4.540  11.756   2.031 -0.1464 -0.1659  0.0943
 1951W        W20805  10.194  15.421  13.911  0.1159 -0.2099  0.2468
 1952W        W20806   4.137   0.510  12.604 -0.0477  0.1711  0.1533
 1953W        W20807  12.182   0.974   1.205 -0.0704 -0.2694  0.2233
 1954W        W20808   5.141  11.790   1.061  0.1081  0.2426  0.3813
 1955W        W20809  11.350   4.912   1.362 -0.1695 -0.3905  0.1346
 1956W        W20810   0.213   8.225   3.500  0.0062  0.0185 -0.0137
 1957W        W20811  18.580   1.222   1.135 -0.1368  0.0815 -0.3224
 1958W        W20812  10.901   9.670   1.964  0.0032  0.1121  0.1232
 1959W        W20813   6.417   9.470   3.121  0.1897 -0.2864  0.0638
 1960W        W20814  18.655  10.412   0.150 -0.1131  0.5419  0.1085
 1961W        W20815   9.081  12.965   1.686  0.2236 -0.0656 -0.0605
 1962W        W20816   5.616   9.783   1.129  0.1587  0.1908 -0.2514
 1963W        W20817  18.024   5.921  14.388  0.0360  0.0890 -0.1219
 1964W        W20818   5.616   2.033   4.639 -0.4088  0.2543 -0.0651
 1965W        W20819   3.315   4.766  11.403 -0.2188  0.2786  0.3416
 1966W        W20820  17.909   1.119   3.106  0.1514  0.2893  0.0006
 1967W        W20821   6.619  18.264   0.930  0.0476  0.1999  0.0834
 1968W        W20822  18.091  14.546  12.427 -0.1480  0.0868  0.0046
 1969W        W20823  10.773  11.117  15.102  0.1522  0.2052  0.2806
 1970W        W20824   4.662   6.131  10.283 -0.4092 -0.0281  0.1731
 1971W        W20825   3.096  14.417   1.999 -0.0607  0.0558  0.0562
 1972W        W20826   2.659   6.509  12.761  0.0725 -0.1012  0.1900
 1973W        W20827  12.235   6.083   0.231 -0.1818  0.2054 -0.3163
 1974W        W20828  12.374  10.578  11.146 -0.0462 -0.1737 -0.1997
 1975W        W20829   5.775  16.930  11.462 -0.0581  0.2029 -0.0716
 1976W        W20830   1.872  10.624  14.525 -0.1410 -0.0191  0.2404
 1977W        W20831   7.608   5.160   2.432  0.0099  0.2483 -0.0414
 1978W        W20832   5.900   4.806   1.001 -0.1427 -0.0752 -0.0159
 1979W        W20833   9.907   7.583   1.473 -0.1753 -0.0126  0.1181
 1980W        W20834  11.377   6.366  11.146  0.0216  0.1796  0.0359
 1981W        W20835   9.154   1.111   1.344  0.0580 -0.0034  0.0301
 1982W        W20836   1.509   7.489   1.138 -0.1874 -0.0403 -0.0392
 1983W        W20837   5.954   6.971   1.845  0.0992  0.0336 -0.1297
 1984W        W20838   7.462   4.031  13.430 -0.0375  0.1435  0.1672
 1985W        W20839   0.861  15.145   3.081  0.1465 -0.2148 -0.2247
 1986W        W20840   9.610  12.852   2.629 -0.2452 -0.0870  0.1575
 1987W        W20841  17.043   7.353   0.296  0.0658  0.1798 -0.0166
 1988W        W20842   5.535  16.914  12.510  0.0761  0.0311  0.2680
 1989W        W20843  11.532   3.358   1.005 -0.0908  0.2790  0.2425
 1990W        W20844   0.069   8.220   1.984  0.0886 -0.0313 -0.1371
 1991W        W20845  17.113  17.368   2.716 -0.0610  0.0485 -0.1054
 1992W        W20846  15.044   0.316  12.736 -0.0411 -0.0471 -0.2508
 1993W        W20847  14.702  12.306   2.521  0.5402  0.0436  0.1013
 1994W        W20848  16.793  18.437   4.238  0.0559 -0.0916 -0.1241
 1995W        W20849   2.192   0.198  14.524 -0.0888  0.0347  0.1123
 1996W        W20850  15.976   0.525  12.454 -0.0907  0.1332  0.2895
 1997W        W20851  10.381  18.555   3.176 -0.1656 -0.1452  0.2811
 1998W        W20852   8.587  14.606  13.632 -0.2382  0.1995 -0.0380
 1999W        W20853  11.707   4.317   3.179  0.2484 -0.3500  0.1000
 2000W        W20854   5.551   6.373  12.327  0.2156 -0.0337  0.1212
 2001W        W20855   0.825   0.211  11.012 -0.2109  0.1825  0.0899
 2002W        W20856  11.186  16.335  14.364 -0.0194 -0.0397  0.0884
 2003W        W20857  14.196   5.533  12.490  0.0199 -0.3743  0.0883
 2004W        W20858   7.367   7.662  11.761 -0.0226 -0.2171 -0.1489
 2005W        W20859  17.819  14.054  12.377 -0.2627 -0.1429  0.0230
 2006W        W20860  13.061   8.666  13.460 -0.1332  0.0091 -0.1037
 2007W        W20861   8.590   3.073  13.043 -0.1969  0.2468  0.0114
 2008W        W20862   6.011   6.697  11.108 -0.1068 -0.1040  0.0638
 2009W        W20863   2.174  10.616   2.835  0.1011 -0.1602  0.2408
 2010W        W20864   6.467   8.009  12.972  0.1065  0.0800 -0.1483
 2011W        W20865   3.423   4.826   2.406 -0.5039  0.0709 -0.4280
 2012W        W20866  10.320  11.528  14.402  0.2138  0.4428  0.1560
 2013W        W20867   2.358   4.830   0.798 -0.2683  0.0091  0.1994
 2014W        W20868   1.889   9.624   2.763  0.0774  0.1504 -0.3473
 2015W        W20869  17.081  14.921   0.967 -0.0190 -0.0128  0.0481
 2016W        W20870  10.417   9.402   1.772 -0.2327  0.0163  0.3065
 2017W        W20871   7.102   0.020   2.524  0.1903 -0.0138  0.1530
 2018W        W20872   6.204  18.064   1.099  0.3799  0.1552  0.1905
 2019W        W20873   4.371  10.853  13.757  0.2144  0.1374 -0.1248
 2020W        W20874  10.326   3.655   1.271 -0.1718 -0.2112  0.2877
 2021W        W20875   7.064  15.713   2.519 -0.0042 -0.1383 -0.2708
 2022W        W20876   3.774   0.843  12.267  0.0643 -0.3218  0.3349
 2023W        W20877   3.944   7.228  10.946  0.1459 -0.2060 -0.2685
 2024W        W20878   4.108   6.144  13.583 -0.1451 -0.0223 -0.1341
 2025W        W20879   2.755   5.155   0.345  0.0649  0.2876 -0.0696
 2026W        W20880  15.188   5.716   2.592 -0.0429 -0.2624 -0.0326
 2027W        W20881  18.492   5.781  13.010 -0.3022  0.1538  0.0754
 2028W        W20882   4.527  10.330   3.895 -0.0984 -0.0622 -0.1857
 2029W        W20883   9.132  12.355   0.901 -0.0680 -0.1372  0.3216
 2030W        W20884  12.775  15.634  14.833  0.1391 -0.1192  0.0737
 2031W        W20885  13.905   0.402  11.491  0.0960  0.0813  0.0342
 2032W        W20886   4.964  16.200  12.352  0.2475  0.0203 -0.0369
 2033W        W20887   9.414  13.279   2.060  0.0131 -0.0763 -0.2416
 2034W        W20888  17.856   0.131  10.547  0.0375 -0.2005  0.0796
 2035W        W20889   4.764  18.711  12.450  0.0598  0.1890  0.3185
 2036W        W20890  13.959   8.515   0.710 -0.1232  0.0672  0.1676
 2037W        W20891   0.281   7.753   3.199  0.0899 -0.0399 -0.3001
 2038W        W20892  14.027  17.015   3.994 -0.1322 -0.1833 -0.0117
 2039W        W20893   6.262  12.796   0.729 -0.1645 -0.1187 -0.0377
 2040W        W20894  16.025   6.325  12.177 -0.1022  0.1771 -0.0554
 2041W        W20895  10.957   5.635  14.746  0.2134 -0.3778  0.0495
 2042W        W20896  16.385   7.824  11.035 -0.1130  0.0733  0.1516
 2043W        W20897  10.446  15.870  11.502 -0.0699  0.0701  0.1543
 2044W        W20898   0.959   3.694  12.301  0.1745  0.0276 -0.1135
 2045W        W20899   7.195   5.503   2.376  0.1801  0.3813 -0.0374
 2046W        W20900   0.132  12.340  10.111 -0.3053  0.0317 -0.1227
 2047W        W20901   6.871   9.346   2.882 -0.2728  0.4346  0.0066
 2048W        W20902   8.680  16.925   5.267  0.2452  0.2719  0.1496
 2049W        W20903   8.150  17.776  13.955  0.1346 -0.1291 -0.1178
 2050W        W20904   6.655  15.572   1.726 -0.2210 -0.2398 -0.2432
 2051W        W20905  15.970  11.788  14.815 -0.0081  0.1343 -0.0542
 2052W        W20906   5.018   4.425  12.135 -0.1951  0.0163  0.0465
 2053W        W20907   8.353   5.023  15.043 -0.2357 -0.2924  0.0075
 2054W        W20908   4.793   8.015  11.415  0.0321 -0.1431 -0.2415
 2055W        W20909  14.149   9.600  13.760 -0.0634  0.0051 -0.2285
 2056W        W20910   4.599  17.114   3.260  0.1597 -0.1758  0.1151
 2057W        W20911   8.055   4.714   2.270  0.0108 -0.1081  0.3737
 2058W        W20912   6.105  14.232  13.300 -0.1778  0.2938 -0.0806
 2059W        W20913   8.475   1.608  11.210  0.1334 -0.0462  0.0474
 2060W        W20914  16.842   0.147   2.912 -0.0790  0.0297 -0.2556
 2061W        W20915   8.909   6.638  13.907 -0.1006  0.0473  0.1995
 2062W        W20916   8.129   1.378  10.937  0.0971  0.2482  0.2165
 2063W        W20917   0.792   5.497   3.980 -0.0152 -0.0888 -0.2659
 2064W        W20918  11.882   7.951  13.555  0.0011  0.1298  0.1555
 2065W        W20919  13.873   5.676   3.894 -0.2707 -0.2734 -0.1168
 2066W        W20920   0.410   2.837   1.100 -0.2672  0.0608 -0.1866
 2067W        W20921  12.394   2.298  10.496 -0.1438 -0.0805  0.1634
 2068W        W20922  13.055  17.170  11.738  0.0194 -0.1733 -0.0400
 2069W        W20923  10.317  15.619  11.904  0.0384 -0.1325  0.1006
 2070W        W20924  14.068   3.556   3.852  0.1739  0.0608  0.0822
 2071W        W20925  16.528  13.053   4.097 -0.2818 -0.0520  0.0149
 2072W        W20926   8.731  15.439   3.219  0.0153 -0.0006 -0.4868
 2073W        W20927   9.036  10.434  12.686  0.1144 -0.3051 -0.2629
 2074W        W20928  13.160  15.233   3.417 -0.0282  0.2858  0.0743
 2075W        W20929   3.969  13.487  15.005  0.1770 -0.0853  0.0325
 2076W        W20930  18.692   8.006   3.086 -0.3367  0.0345  0.2068
 2077W        W20931   5.340  15.077   4.532 -0.1147  0.1379  0.1510
 2078W        W20932  14.785   5.768   1.108 -0.0830 -0.0587 -0.2166
 2079W        W20933  11.641   8.257  14.072  0.0474  0.1355  0.2701
 2080W        W20934  10.906   3.749  13.815  0.1021  0.0834  0.1460
 2081W        W20935  11.663  18.191   5.411 -0.0835  0.0678  0.0859
 2082W        W20936  14.277   1.066  14.950  0.2970  0.1047  0.1462
 2083W        W20937  15.759  18.034  12.563 -0.2963  0.3203  0.1780
 2084W        W20938  13.594   2.548  14.486 -0.0840 -0.2077  0.0885
 2085W        W20939   8.199  10.508  14.191 -0.1788 -0.1656 -0.1172
 2086W        W20940  15.617  14.337  14.344  0.0761 -0.1573 -0.1748
 2087W        W20941   9.182  18.480  10.983 -0.1827  0.1763 -0.1961
 2088W        W20942  11.546   4.910  14.571 -0.2520 -0.0590 -0.0352
 2089W        W20943   9.218  13.425   1.537 -0.2986  0.2212 -0.3010
 2090W        W20944   9.557  18.454   3.306 -0.0429 -0.0741 -0.3503
 2091W        W20945   1.491  16.704  14.579 -0.1060  0.0007  0.0205
 2092W        W20946   2.338  16.103  12.105 -0.2154  0.2078 -0.2700
 2093W        W20947  17.759   2.226   1.346 -0.0623  0.1629  0.2768
 2094W        W20948   5.662  13.864   2.176  0.1256  0.1799  0.0495
 2095W        W20949   9.345  12.140   0.114 -0.0157 -0.2107  0.0825
 2096W        W20950   7.248   7.110  14.387  0.2067 -0.3641  0.2538
 2097W        W20951  18.688  10.260  13.220  0.1173  0.0773 -0.2018
 2098W        W20952  18.496   6.755   0.923  0.3475 -0.1300  0.1641
 2099W        W20953  15.801   8.460  10.953 -0.1206  0.1976 -0.2601
 2100W        W20954   9.523   5.207  13.901 -0.1877 -0.0000  0.0908
 2101W        W20955   4.486   4.601  13.562  0.0298  0.1146  0.1731
 2102W        W20956  16.833  15.772   1.305  0.0282 -0.1344 -0.2517
 2103W        W20957   1.431   1.541   1.269 -0.0302 -0.0311  0.2444
 2104W        W20958  11.245  13.934  11.022  0.0014 -0.2558 -0.4193
 2105W        W20959  17.926  11.252  10.867 -0.1060  0.1844  0.1122
 2106W        W20960  11.389   3.827  12.867  0.1067  0.1539 -0.0918
 2107W        W20961  18.063  16.597  13.959  0.1584 -0.0320  0.0487
 2108W        W20962   7.773  16.107  14.858  0.2845 -0.2361 -0.1771
 2109W        W20963   8.908   4.937  14.958  0.0018 -0.1770  0.0074
 2110W        W20964  12.241   4.078   1.496 -0.0286  0.0515 -0.2780
 2111W        W20965  10.416  17.128  11.210  0.1871  0.3192  0.3959
 2112W        W20966   2.172   4.911   1.534 -0.0817 -0.1430 -0.1029
 2113W        W20967  14.005   8.572  13.812  0.3439 -0.3341 -0.0730
 2114W        W20968  16.865  14.126  15.105  0.2919  0.0786  0.1287
 2115W        W20969  14.637  13.618   2.849 -0.0511  0.0612  0.1556
 2116W        W20970  10.515   3.711  14.084  0.2970  0.2244  0.2500
 2117W        W20971   9.980   2.880   1.093 -0.1156  0.0278  0.1316
 2118W        W20972   1.437  17.653   4.566 -0.1849 -0.0016 -0.1399
 2119W        W20973   3.188   5.384   0.204  0.2894  0.0338  0.2376
 2120W        W20974  17.721  14.884  12.674  0.0195 -0.1329 -0.3413
 2121W        W20975   7.317  16.900   3.741 -0.2452  0.3725  0.3978
 2122W        W20976  18.586  13.507   2.510  0.3058 -0.0098  0.4262
 2123W        W20977  14.360   6.188  11.396 -0.2591 -0.1364  0.3007
 2124W        W20978   9.396   4.737  13.631 -0.2910 -0.0212  0.2267
 2125W        W20979   0.019   6.618  14.061 -0.3840  0.1734 -0.0404
 2126W        W20980   4.307   6.356  15.012  0.1198  0.3594 -0.0506
 2127W        W20981  18.521   2.878   3.218  0.1345 -0.0602  0.0712
 2128W        W20982  13.902  16.052  13.939 -0.0352 -0.1056 -0.0245
 2129W        W20983  18.745   6.077  11.576  0.1326 -0.0239 -0.2779
 2130W        W20984  10.941   5.465  14.069 -0.0871  0.0555 -0.0517
 2131W        W20985   1.822  15.279  11.013  0.3148 -0.0407  0.1904
 2132W        W20986   1.451  15.113   2.528 -0.3361 -0.0987 -0.1376
 2133W        W20987   9.610  11.936   2.152 -0.2107  0.0086 -0.0835
 2134W        W20988  12.873   2.087  14.667 -0.2691  0.0096  0.1129
 2135W        W20989   1.579  10.513   4.002 -0.2235 -0.1711 -0.0466
 2136W        W20990   3.450  11.994  11.515 -0.1151  0.3538 -0.3694
 2137W        W20991  12.313   3.257  11.788 -0.1776  0.1624 -0.1620
 2138W        W20992   6.291   2.236  14.741 -0.2915 -0.0076  0.0609
 2139W        W20993   2.666   2.228  13.316  0.0204 -0.0872  0.0893
 2140W        W20994   0.106   0.987   1.370 -0.0620 -0.2600 -0.0630
 2141W        W20995  13.913  15.941   3.240  0.0681  0.1654  0.1044
 2142W        W20996   0.706  11.506  11.026  0.3570 -0.1832  0.2833
 2143W        W20997  14.467   1.421   0.449  0.2323 -0.1649 -0.3561
 2144W        W20998   3.088   8.454   3.289 -0.1391  0.0013 -0.0765
 2145W        W20999   2.939   7.891  14.565 -0.0078 -0.2574  0.1268
 2146W        W21000  18.277  12.170  11.327 -0.2055  0.0024  0.1594
 2147W        W21001  17.825   7.956   0.364  0.4050 -0.1337 -0.1883
 2148W        W21002   4.612  17.944  13.623 -0.1673  0.4068  0.1452
 2149W        W21003  10.161   0.310   1.812 -0.1825 -0.2268 -0.2076
 2150W        W21004  17.542  12.347   2.609  0.0397 -0.0180  0.5482
 2151W        W21005  13.525   5.788   2.921 -0.5229  0.1272 -0.2214
 2152W        W21006  17.275  17.388   3.817 -0.1322  0.1437  0.1073
 2153W        W21007   9.114  17.797  14.966  0.1628 -0.0724  0.3710
 2154W        W21008  13.638   6.262  12.213  0.1577 -0.0386  0.1366
 2155W        W21009   8.302   8.632   4.499  0.0852  0.1245  0.0052
 2156W        W21010   1.346  18.632   0.821 -0.2885  0.0785 -0.0324
 2157W        W21011   9.689   8.381   1.214 -0.2247 -0.1392 -0.1230
 2158W        W21012   7.188   9.101   0.393  0.1708 -0.1339 -0.0120
 2159W        W21013   4.892   6.040   0.798 -0.1393 -0.1816 -0.1243
 2160W        W21014   9.878  17.414   3.216 -0.0761  0.0011 -0.1058
 2161W        W21015   6.845   1.534  14.320  0.0351  0.0434  0.0985
 2162W        W21016  17.757   9.859  13.482 -0.0349 -0.0251  0.1433
 2163W        W21017  15.522   1.851   2.334  0.1026  0.0054 -0.1329
 2164W        W21018  13.006   2.496  11.230  0.2264  0.3540 -0.0582
 2165W        W21019  10.155   6.905   1.525 -0.3963  0.0727 -0.4454
 2166W        W21020   5.967   8.769   0.286  0.0847  0.0228  0.1757
 2167W        W21021   6.420   3.734   1.983  0.0686 -0.0939 -0.4611
 2168W        W21022  16.201  11.536   0.050 -0.2000  0.2246  0.0349
 2169W        W21023  18.233  18.819  12.531  0.0954 -0.1782 -0.3535
 2170W        W21024  15.690   4.444   2.376  0.3702  0.0078 -0.2308
 2171W        W21025   7.362  10.508   2.484  0.0504  0.0788  0.0280
 2172W        W21026  12.969   7.725   4.103 -0.4241 -0.0699 -0.0665
 2173W        W21027   9.042  11.898  12.203 -0.1258 -0.0031  0.5851
 2174W        W21028  18.542  11.875   2.339  0.3589  0.1931  0.1230
 2175W        W21029   2.293  18.265  12.187 -0.3604  0.1013  0.5223
 2176W        W21030   1.107   0.663   2.962 -0.0253 -0.1233  0.1075
 2177W        W21031  11.808   0.196  12.090  0.1905 -0.2331 -0.0870
 2178W        W21032   8.459  13.292  11.156 -0.0240 -0.0799 -0.1912
 2179W        W21033   5.024  12.871   1.169 -0.1398  0.0958  0.0341
 2180W        W21034   1.805  18.407  12.234 -0.1857  0.0517 -0.0589
 2181W        W21035  11.506   5.769  10.473 -0.1962  0.1155 -0.0485
 2182W        W21036   0.626  15.400  10.397  0.3959 -0.0325  0.0983
 2183W        W21037  15.141   8.078  10.741  0.0487 -0.0238 -0.1883
 2184W        W21038   4.513   3.915   0.774  0.2871 -0.1138 -0.2098
 2185W        W21039   8.104   5.840  15.063 -0.0413 -0.1280 -0.2230
 2186W        W21040   4.097  11.304   3.223 -0.0943  0.1432 -0.0310
 2187W        W21041   6.255   7.172   2.342  0.1727  0.1550 -0.2155
 2188W        W21042  14.879   4.591   2.053  0.0562  0.0964 -0.0409
 2189W        W21043   5.085  16.616  12.585 -0.2676 -0.0097  0.0027
 2190W        W21044   8.753  15.049  12.537  0.0648 -0.0762  0.1676
 2191W        W21045   8.358   0.519  12.984 -0.3665 -0.2412 -0.1757
 2192W        W21046  16.853   0.629  14.121 -0.0632  0.4110 -0.1229
 2193W        W21047   7.522   9.852  14.739 -0.2081  0.3274  0.1063
 2194W        W21048  11.283   6.335   1.417  0.2457  0.0484 -0.0563
 2195W        W21049  14.161   3.952  14.864  0.1924 -0.0605 -0.0614
 2196W        W21050  11.702   3.412   0.331 -0.0625 -0.2771 -0.0288
 2197W        W21051   8.489   6.632   1.453 -0.1706 -0.1571 -0.0894
 2198W        W21052   7.090  12.067  12.001 -0.0996 -0.1743  0.0199
 2199W        W21053   7.626   6.620   0.280 -0.0599  0.0893  0.0253
 2200W        W21054  15.877  16.320   3.076  0.2212 -0.1601 -0.0505
 2201W        W21055   9.446  16.739  13.296 -0.4078  0.0445 -0.2814
 2202W        W21056   5.248   7.794   0.827  0.1384 -0.0005 -0.0135
 2203W        W21057   3.166  17.539  11.976  0.0902 -0.0002  0.3395
 2204W        W21058   7.346   4.616  12.545  0.0154 -0.2674 -0.1139
 2205W        W21059   7.840   3.095   2.352  0.0103 -0.5249 -0.0187
 2206W        W21060   8.818  14.026  13.334  0.0879  0.0931 -0.3559
 2207W        W21061   8.159  13.381   0.628  0.1184  0.2454 -0.1530
 2208W        W21062   7.115   5.815   1.919 -0.1780 -0.0654  0.1990
 2209W        W21063  16.480  12.538   1.569  0.1246  0.0892 -0.0408
 2210W        W21064  17.386   2.577  13.431 -0.1099  0.0311 -0.4195
 2211W        W21065   1.905  18.637  14.892  0.4104 -0.1312  0.2721
 2212W        W21066   6.424   7.017  13.305  0.1692  0.0247 -0.2759
 2213W        W21067   3.673   0.282   3.509 -0.0743 -0.1111 -0.0403
 2214W        W21068  18.256  16.439  13.413 -0.0712  0.0341  0.0400
 2215W        W21069   8.164   3.924  13.232 -0.1365  0.2494  0.2684
 2216W        W21070  18.679  18.056   0.478 -0.3599 -0.3999  0.4412
 2217W        W21071  16.600   8.693   1.422 -0.0333  0.0555  0.0603
 2218W        W21072   2.767  16.675   2.677  0.2012 -0.1024 -0.0852
 2219W        W21073   6.043  15.512  14.845 -0.0412  0.0284  0.3149
 2220W        W21074   6.283   6.234   3.331 -0.0762  0.3894 -0.2187
 2221W        W21075  17.806  10.535   3.671 -0.1375 -0.2233  0.0809
 2222W        W21076  12.744   3.892  11.457 -0.2623  0.0611  0.1606
 2223W        W21077  11.921  15.165   3.851  0.3201 -0.1811 -0.0585
 2224W        W21078   0.999   8.712   1.855  0.2272 -0.2599 -0.2527
 2225W        W21079   5.511   8.203   3.591 -0.2517 -0.2574 -0.2069
 2226W        W21080   3.305  16.468  14.797 -0.2789 -0.0769  0.1587
 2227W        W21081  16.654  13.195   4.970  0.2410  0.1773  0.0349
 2228W        W21082   6.643  11.270   3.293  0.0404 -0.3048 -0.0677
 2229W        W21083   4.403  10.071   1.535  0.3588 -0.1750 -0.1885
 2230W        W21084   0.614   4.712   3.145  0.1368 -0.2083 -0.2546
 2231W        W21085  10.809  10.756  12.568 -0.1042 -0.0971  0.0180
 2232W        W21086  12.378  16.963  11.861  0.2614  0.2331 -0.0957
 2233W        W21087  14.048  12.116  12.383 -0.1237 -0.0498 -0.0141
 2234W        W21088  14.989  16.024  11.662  0.1777 -0.0455  0.0572
 2235W        W21089   6.261  10.285  13.413 -0.0623  0.2746  0.3092
 2236W        W21090   5.147  15.260   0.780 -0.0175 -0.2205 -0.0028
 2237W        W21091   2.675  13.563   3.109 -0.0195 -0.1131  0.1090
 2238W        W21092   4.326  13.911   0.810  0.2001  0.1809  0.1790
 2239W        W21093   4.743  17.374  13.438  0.1897  0.0051  0.2253
 2240W        W21094   3.866   7.015  13.143  0.0111 -0.0189 -0.1776
 2241W        W21095  14.572   5.256  14.546  0.0589 -0.2431  0.0501
 2242W        W21096  13.731   7.929   1.823 -0.0193  0.1651 -0.0273
 2243W        W21097   2.757  13.611  13.789 -0.1584 -0.0530  0.2439
 2244W        W21098   5.280  17.451  14.928 -0.2190 -0.0218  0.1750
 2245W        W21099  18.734   9.280   0.925 -0.1314 -0.2065 -0.1152
 2246W        W21100   7.843  13.032   3.440  0.0564 -0.1963 -0.1505
 2247W        W21101  15.732  16.657  15.006  0.0198  0.1221  0.0489
 2248W        W21102   2.345   6.352  11.252 -0.1507 -0.3085  0.1490
 2249W        W21103   1.804   6.387   0.923 -0.0243 -0.1300  0.0768
 2250W        W21104   5.490   4.780   0.195 -0.2925 -0.1451 -0.0236
 2251W        W21105   1.092   8.926  12.976  0.0948  0.0736  0.2124
 2252W        W21106   9.038  14.055  14.969 -0.0202  0.0925 -0.1229
 2253W        W21107   6.029  12.349  13.940  0.1084 -0.0777  0.2743
 2254W        W21108   1.119   1.582  14.457 -0.0745 -0.0861 -0.3740
 2255W        W21109   1.881   4.026  14.496 -0.0616 -0.1033 -0.3404
 2256W        W21110   5.400   0.081  10.090 -0.1308 -0.1145  0.0083
 2257W        W21111   6.314   0.194   2.111  0.0393  0.0117  0.1067
 2258W        W21112   3.710   4.616   0.565 -0.1847 -0.0160 -0.2617
 2259W        W21113  17.842   4.462   9.523 -0.3411 -0.1158 -0.0342
 2260W        W21114  18.499  12.804  10.772 -0.1335 -0.0115  0.1636
 2261W        W21115  14.235  17.631   3.312  0.2284  0.0964 -0.1389
 2262W        W21116   9.683  13.578  13.625 -0.0061 -0.0239 -0.2157
 2263W        W21117   4.439   8.464  11.696  0.1486 -0.2324  0.1065
 2264W        W21118   0.583   6.369   4.933  0.0108 -0.0338 -0.0070
 2265W        W21119  11.829  17.810   4.131  0.3187  0.2527 -0.2105
 2266W        W21120  17.531   4.131  12.206  0.3028  0.1211  0.0240
 2267W        W21121   3.715   6.630  12.460 -0.0813  0.0419  0.2190
 2268W        W21122  14.703  14.987   4.926  0.2862  0.0965 -0.0438
 2269W        W21123   0.673  16.601  13.112  0.1019  0.2668  0.1329
 2270W        W21124   0.527  16.894  13.507  0.2591  0.1820  0.3875
 2271W        W21125  10.434   1.750   1.501 -0.0180  0.1455 -0.0613
 2272W        W21126  12.260  15.441   2.364  0.1800  0.0334  0.2360
 2273W        W21127  11.715  17.260   0.454 -0.1027  0.0410 -0.1155
 2274W        W21128  17.720  17.969   3.217 -0.1784  0.3141  0.2266
 2275W        W21129  14.916  16.257   1.767  0.3500  0.0521  0.3226
 2276W        W21130  12.605  12.046  12.645 -0.0044 -0.2731 -0.0637
 2277W        W21131   7.208   2.239   2.988 -0.1569  0.2179 -0.0952
 2278W        W21132   9.771   2.744   4.525 -0.0574 -0.0695  0.0274
 2279W        W21133  10.750   1.538   0.585 -0.1646  0.1901  0.0787
 2280W        W21134  13.176   5.761   1.153 -0.1047  0.0790 -0.2582
 2281W        W21135   5.479   2.003   2.348  0.0966  0.2747 -0.2612
 2282W        W21136   2.228  14.675   2.016 -0.0927 -0.0171 -0.0707
 2283W        W21137   1.107   3.237  11.595  0.2213 -0.0234 -0.2454
 2284W        W21138   1.621  17.921   3.634 -0.0180 -0.0994 -0.0272
 2285W        W21139  16.583  15.641   4.614  0.0301 -0.0783 -0.1677
 2286W        W21140   4.968  10.245  12.727 -0.4392  0.1329 -0.1536
 2287W        W21141   9.065  12.850  13.009  0.2743 -0.3418  0.0731
 2288W        W21142   7.877   8.899  10.258 -0.1438  0.1695 -0.2353
 2289W        W21143   6.453   5.698  13.476  0.1434  0.0273 -0.0976
 2290W        W21144  16.188   1.247  13.654  0.1967  0.0572  0.1937
 2291W        W21145   7.583  17.408   1.961 -0.3341  0.1138 -0.0212
 2292W        W21146   9.392   2.316  12.016  0.1186  0.1035 -0.4039
 2293W        W21147   0.020   5.226   2.919  0.1514 -0.1931 -0.3826
 2294W        W21148   6.154   3.208  12.620  0.1189 -0.1079 -0.0229
 2295W        W21149   5.978  18.488  12.288  0.1574 -0.0477  0.2613
 2296W        W21150  13.914   7.281  15.085 -0.0777 -0.0988 -0.0211
 2297W        W21151  12.988   7.817   0.297 -0.0533  0.1391  0.0300
 2298W        W21152  11.372  18.149  13.488 -0.1067  0.2917 -0.0129
 2299W        W21153  16.717   5.686   4.248  0.1836 -0.2246  0.1337
 2300W        W21154  11.265   7.864  11.282  0.0727 -0.0492 -0.0907
 2301W        W21155  10.704   9.677   4.396  0.2308  0.4482 -0.1891
 2302W        W21156   9.539  12.718  12.881  0.0926  0.1399  0.1076
 2303W        W21157  10.981  13.076   1.443  0.1826  0.2124  0.1300
 2304W        W21158  18.113   7.934  10.553  0.0746  0.3840  0.0367
 2305W        W21159  18.535  18.303  14.660  0.0185 -0.1262 -0.2528
 2306W        W21160   1.660   8.021   1.457  0.0924 -0.0000 -0.0896
 2307W        W21161  12.673   4.493   3.687  0.0943 -0.2281 -0.0214
 2308W        W21162  12.580  11.347   1.715 -0.1918  0.4610  0.1384
 2309W        W21163  15.525  14.984  13.093  0.0272  0.2151  0.1192
 2310W        W21164   6.403   2.582  12.998  0.2114 -0.0391 -0.2164
 2311W        W21165   7.526   4.568   2.448  0.0554  0.2848 -0.0929
 2312W        W21166   2.997   7.401  14.241 -0.1278  0.2998 -0.1071
 2313W        W21167  14.321  16.419  11.293  0.0522  0.0859 -0.0018
 2314W        W21168  14.506  16.574  14.651 -0.1283  0.1289 -0.2253
 2315W        W21169  12.107   6.306   4.906 -0.1302  0.1681  0.0373
 2316W        W21170   5.662   2.826  11.947  0.0722  0.0037 -0.0147
 2317W        W21171   4.351  15.230  12.094 -0.1013  0.2708 -0.1577
 2318W        W21172   2.413  15.997   2.397  0.1682 -0.1757  0.0235
 2319W        W21173  18.542   0.682   0.266  0.1395 -0.0755  0.3016
 2320W        W21174   2.845   0.871   4.396 -0.0362 -0.0927 -0.2499
 2321W        W21175   2.296  13.339   3.636 -0.2627  0.3867  0.1664
 2322W        W21176   2.973   6.912  12.718  0.2492 -0.1039  0.0574
 2323W        W21177   9.108   4.446  14.521 -0.2277  0.2839 -0.0838
 2324W        W21178   1.954   0.813   5.026  0.0429  0.0802  0.5596
 2325W        W21179  14.782   2.366   1.815 -0.1323 -0.0544  0.3585
 2326W        W21180   5.457   6.640   0.407 -0.0860  0.1897 -0.1486
 2327W        W21181  16.099  14.836   3.506 -0.2815  0.0642 -0.2780
 2328W        W21182   6.666  12.033  11.133 -0.3282 -0.2932 -0.0357
 2329W        W21183   4.064  10.890   2.870  0.0794 -0.2473  0.0943
 2330W        W21184  14.648   3.570  11.479  0.0801  0.0520 -0.2238
 2331W        W21185  18.328   9.617   0.771  0.0872  0.1656  0.2584
 2332W        W21186  11.463   6.072   4.367 -0.2698  0.3409 -0.0667
 2333W        W21187   0.827   7.882   3.853  0.1490 -0.0807 -0.5120
 2334W        W21188   7.603  13.721  11.478 -0.2627  0.0003 -0.0099
 2335W        W21189  12.570  17.856  13.560  0.3569 -0.0930 -0.2490
 2336W        W21190   5.905  12.055   1.779  0.0563  0.1101  0.0335
 2337W        W21191   3.116   6.763   2.402 -0.2014 -0.4353 -0.1329
 2338W        W21192   6.436   8.526   2.981  0.1818  0.2193  0.1299
 2339W        W21193   4.922   5.584  15.075 -0.1782  0.0225  0.0705
 2340W        W21194   9.303  17.158  13.587 -0.1168  0.2277 -0.0520
 2341W        W21195   3.305   1.659   0.030  0.0958  0.0416 -0.2527
 2342W        W21196   4.478  12.464  12.639  0.3422 -0.0790 -0.1471
 2343W        W21197  13.312  15.011   5.478  0.2619  0.0493  0.1064
 2344W        W21198   0.349  18.324  11.175 -0.0475 -0.1778 -0.1172
 2345W        W21199  11.878   8.347   0.606 -0.0109 -0.1300  0.1310
 2346W        W21200   9.572   5.576  12.980  0.0064  0.1995  0.3243
 2347W        W21201  13.251  14.858   3.734  0.1475  0.0212 -0.0424
 2348W        W21202   8.391   9.763   2.645  0.2927  0.1719  0.2764
 2349W        W21203  10.308   1.313   3.490 -0.3138 -0.0340  0.3820
 2350W        W21204   6.608  16.713  13.784  0.0140  0.2557 -0.0451
 2351W        W21205   7.970   6.224   0.344 -0.1581  0.0091 -0.1162
 2352W        W21206   4.677  18.147  12.570  0.0130 -0.2511  0.1242
 2353W        W21207  11.234  12.569  13.112 -0.2638  0.2752 -0.0698
 2354W        W21208  15.930   1.642  13.388 -0.3653 -0.0282 -0.2007
 2355W        W21209   2.662  15.879  11.088  0.0661  0.3176  0.2425
 2356W        W21210   9.617   2.691   2.957  0.1082  0.0610 -0.3248
 2357W        W21211   5.387  13.302  11.895  0.0769  0.4034  0.1180
 2358W        W21212  16.369  17.723   1.583 -0.1149  0.0810  0.1945
 2359W        W21213   0.669   1.063   3.598 -0.1074  0.0871 -0.3570
 2360W        W21214  17.403  16.352  15.075 -0.1796  0.1991  0.1286
 2361W        W21215  13.251  13.225   1.282 -0.2882 -0.0006 -0.0685
 2362W        W21216  17.253   7.770   2.405 -0.0250  0.0058 -0.1146
 2363W        W21217   9.154  17.946  10.679 -0.0111 -0.0552 -0.0740
 2364W        W21218   1.614  18.562  13.139  0.0402 -0.1148  0.1213
 2365W        W21219   0.523  12.472  12.160 -0.0019 -0.3410 -0.3946
 2366W        W21220  16.503  18.209   1.682  0.2589 -0.1826 -0.1545
 2367W        W21221  14.926  14.369  14.186 -0.2121 -0.0864 -0.0491
 2368W        W21222   9.257   7.581  13.452 -0.0816  0.0052  0.2432
 2369W        W21223   1.229   0.125   3.199  0.2212 -0.1361 -0.2201
 2370W        W21224  17.827   2.472   0.425 -0.1450  0.1702 -0.0805
 2371W        W21225   8.521   3.992   4.339  0.0672  0.0810  0.1611
 2372W        W21226   4.389   4.226   2.420 -0.1607  0.2126 -0.1783
 2373W        W21227  18.810  15.505   3.763  0.0299 -0.0159  0.0332
 2374W        W21228  10.386  17.418   0.774  0.0170 -0.3993  0.0807
 2375W        W21229   1.986  16.290   3.267 -0.1272 -0.0199  0.3619
 2376W        W21230  18.848   7.451  13.930  0.4762 -0.3226  0.4142
 2377W        W21231  12.266  11.223  12.836  0.0630 -0.0044  0.2391
 2378W        W21232   7.329  17.907  13.435  0.0406 -0.0317 -0.0013
 2379W        W21233  16.043   3.194  11.940 -0.0748 -0.0909 -0.3422
 2380W        W21234  18.742   1.541  12.017 -0.3289  0.4094  0.0108
 2381W        W21235  17.761  16.705   1.779 -0.1468  0.0373 -0.1451
 2382W        W21236  12.331  10.825   1.260  0.1686 -0.1041 -0.0542
 2383W        W21237   1.095   4.727   3.403  0.0552 -0.0912  0.1498
 2384W        W21238   1.970  16.199  14.408  0.0050 -0.0584 -0.0182
 2385W        W21239  14.210   0.168  14.041  0.0713 -0.3710 -0.2219
 2386W        W21240   6.432  18.617  11.411 -0.1897  0.1941 -0.0372
 2387W        W21241  10.782  16.743   4.138 -0.0278 -0.2885  0.0455
 2388W        W21242  16.255  16.584   0.074  0.0811 -0.0740 -0.2843
 2389W        W21243   9.476  11.719   1.700 -0.0064  0.2386  0.0796
 2390W        W21244   4.906  12.607  11.500  0.1443 -0.1067  0.0372
 2391W        W21245  17.488   9.990  13.065  0.0486 -0.0016  0.1724
 2392W        W21246   7.204   3.113   4.842  0.0011  0.0549  0.0353
 2393W        W21247   5.116   1.582  11.459  0.1340 -0.0864 -0.1083
 2394W        W21248   0.695   9.460  11.284  0.3265  0.1406  0.0418
 2395W        W21249  17.614   4.612   2.716 -0.1763 -0.1346 -0.2335
 2396W        W21250   5.977  13.482  12.448 -0.3975  0.0883 -0.0946
 2397W        W21251  14.671   9.437   4.044 -0.3075  0.0035  0.2850
 2398W        W21252   8.806   8.450  10.938  0.2511 -0.0317  0.2747
 2399W        W21253   3.931  13.418   1.086  0.2409  0.1294 -0.0052
 2400W        W21254  17.989   3.831  11.745  0.1615 -0.0132 -0.0817
 2401W        W21255  13.714   2.368   2.051 -0.1608 -0.3208  0.1316
 2402W        W21256   3.834   6.605  12.941 -0.0765  0.3463 -0.2786
 2403W        W21257   8.323   3.718   3.151  0.0502  0.0082 -0.0272
 2404W        W21258  15.612   9.975   0.002  0.2687  0.0905 -0.1068
 2405W        W21259  17.507   0.677  11.392 -0.1283 -0.0385 -0.0817
 2406W        W21260   3.543  13.273   1.824  0.1648 -0.3908  0.0168
 2407W        W21261   5.245  17.601  11.525  0.2157  0.0791  0.2448
 2408W        W21262  17.044  13.709  12.223  0.2819 -0.1067  0.1268
 2409W        W21263   8.734   4.598  12.273  0.5276 -0.1089  0.0600
 2410W        W21264   2.941   2.216  10.758  0.1232 -0.0622  0.0753
 2411W        W21265   9.035   5.372  13.820  0.0996  0.1457 -0.3196
 2412W        W21266   9.213   4.628   2.145 -0.0585  0.0560  0.1567
 2413W        W21267  14.843  13.363  11.565  0.1673 -0.2326 -0.1654
 2414W        W21268  12.230   6.633   3.221 -0.1331  0.0098 -0.2487
 2415W        W21269   9.016  12.437   0.426  0.1763 -0.0540 -0.2361
 2416W        W21270  18.224  13.817   2.758 -0.3452 -0.1944 -0.1247
 2417W        W21271   1.285   4.877  14.343 -0.2517 -0.1209  0.1703
 2418W        W21272   6.949  14.533  13.215  0.1569  0.0538  0.3119
 2419W        W21273  14.726   6.947   2.628 -0.0759 -0.0132  0.1962
 2420W        W21274  12.505  15.220  12.617 -0.0772  0.4012 -0.3041
 2421W        W21275  11.241  10.802  13.978 -0.3536 -0.4000 -0.0654
 2422W        W21276  12.953  18.418   3.656  0.0313 -0.0717  0.2391
 2423W        W21277   6.714  16.950  12.902 -0.0129 -0.0282  0.0902
 2424W        W21278  12.379   5.034   2.167  0.0125 -0.1058  0.1965
 2425W        W21279   4.685   7.692   2.371 -0.0372  0.1104  0.3300
 2426W        W21280  10.169   1.943  15.023  0.0123  0.1749  0.2984
 2427W        W21281   7.614  12.804  10.884 -0.0799 -0.1354  0.0094
 2428W        W21282   3.542  12.915   0.118  0.1441  0.2260  0.2404
 2429W        W21283   3.293   5.622  11.397 -0.1188 -0.1001 -0.0929
 2430W        W21284   4.136  18.428   3.632 -0.0363 -0.0659 -0.1912
 2431W        W21285  13.533   0.051  11.986  0.2098 -0.1654  0.4101
 2432W        W21286   6.504   3.443  13.064  0.0067  0.2059  0.2063
 2433W        W21287   9.271   4.723  11.417 -0.2068 -0.0441  0.1579
 2434W        W21288   6.963  13.471  12.050  0.2264 -0.0603 -0.0055
 2435W        W21289   6.662   3.462   3.564  0.4531  0.3031  0.1630
 2436W        W21290  15.471  18.841  11.945 -0.0899  0.0736  0.0046
 2437W        W21291  17.863   9.170   3.007  0.0978 -0.0674 -0.3071
 2438W        W21292   3.069   2.173   0.942  0.1526  0.1550  0.1813
 2439W        W21293   6.768  17.660   4.177 -0.3557  0.3567  0.0410
 2440W        W21294   9.443   5.633  11.189 -0.1745  0.0924 -0.0318
 2441W        W21295  14.195   4.665   0.061 -0.4768 -0.0635 -0.3606
 2442W        W21296   0.427   7.543  14.191  0.3589  0.2165 -0.0881
 2443W        W21297  14.417  13.149   2.146 -0.4804  0.0695  0.1497
 2444W        W21298  11.522  15.718   4.304  0.1861 -0.0362  0.0424
 2445W        W21299  10.217   2.780   3.537 -0.1064  0.3187  0.2811
 2446W        W21300   8.927  12.425  11.289 -0.0384  0.3245  0.4410
 2447W        W21301   8.107  14.386   1.058 -0.0172  0.2937 -0.0953
 2448W        W21302   8.878   5.220   0.698  0.0835  0.0124 -0.1004
 2449W        W21303   7.693  15.019   1.769 -0.0352 -0.1566  0.0388
 2450W        W21304  15.268  15.349   1.875 -0.1495  0.0453 -0.1377
 2451W        W21305  14.563  14.973   2.965 -0.1144 -0.0162 -0.0448
 2452W        W21306   4.745   6.485   0.077  0.1059  0.1814 -0.1618
 2453W        W21307   9.590  15.190  14.563 -0.0195 -0.1250  0.1936
 2454W        W21308   9.211  16.150  14.933  0.0927 -0.1250  0.0437
 2455W        W21309  16.369  11.431   1.561  0.1995  0.0645 -0.1543
 2456W        W21310   8.821  11.757  11.788  0.2705 -0.1160 -0.1246
 2457W        W21311   7.712  15.860  12.193  0.0230 -0.1761 -0.0283
 2458W        W21312  15.396   4.905  14.342 -0.1488 -0.3131 -0.0854
 2459W        W21313   7.939   6.283   2.078  0.1684 -0.2405 -0.0720
 2460W        W21314   4.695  11.429   2.358  0.0894 -0.1734 -0.2530
 2461W        W21315   2.010  11.473   4.099 -0.0290 -0.1321  0.1175
 2462W        W21316  16.743  15.332  11.577 -0.1686  0.2065 -0.1814
 2463W        W21317  13.945  18.752  12.760 -0.0783  0.0205  0.1172
 2464W        W21318   1.282  11.360  14.769  0.2027 -0.1731  0.0124
 2465W        W21319  15.099   9.486  13.979  0.1911 -0.0434 -0.0248
 2466W        W21320   1.549  13.937   0.495 -0.1633 -0.1357 -0.3836
 2467W        W21321   2.659   5.574   1.633 -0.0644  0.0797 -0.1797
 2468W        W21322  16.424   2.939   4.184 -0.2399  0.2832  0.0926
 2469W        W21323  18.642  16.431  14.706  0.0732  0.0597  0.0447
 2470W        W21324  13.203   1.655   2.228 -0.3592 -0.0540 -0.0193
 2471W        W21325   4.676  15.337   0.330  0.0444 -0.0466  0.2506
 2472W        W21326   4.695  18.543   2.422 -0.3536  0.0319  0.0164
 2473W        W21327   8.492  16.495   3.850  0.1600 -0.1495  0.2653
 2474W        W21328  13.859  10.196  14.304 -0.0173 -0.1273  0.0403
 2475W        W21329  13.896  12.426  11.470 -0.0907  0.3962  0.0722
 2476W        W21330   8.911  10.438   4.073  0.2238  0.1850 -0.1427
 2477W        W21331   9.519  16.647  13.836 -0.3285  0.0232  0.1611
 2478W        W21332  13.660   1.863   2.207 -0.2212 -0.0388 -0.1802
 2479W        W21333  17.827   5.145  12.395  0.2076  0.1338 -0.2526
 2480W        W21334   9.652  14.656  14.501  0.0441  0.2788  0.2493
 2481W        W21335  15.686   9.371  12.701 -0.4058  0.0219  0.1890
 2482W        W21336  10.679   2.338   4.081  0.0785 -0.1995  0.0367
 2483W        W21337  16.311   8.716   3.886 -0.1424 -0.0518 -0.0865
 2484W        W21338   2.799  10.928  12.912 -0.1123  0.1206 -0.1943
 2485W        W21339  15.900   6.646   2.553  0.1476 -0.0398 -0.1570
 2486W        W21340  15.183   1.480   2.440  0.0850  0.0712 -0.3249
 2487W        W21341   9.101   4.269   1.001 -0.1712  0.0986 -0.0429
 2488W        W21342   0.913   3.367   2.738 -0.0571  0.0445 -0.1282
 2489W        W21343   9.437  17.451   9.840 -0.2317 -0.4048 -0.1101
 2490W        W21344  17.213   4.027  11.315 -0.1869  0.1935 -0.0289
 2491W        W21345   1.657   6.174   4.218 -0.1201  0.0410 -0.1265
 2492W        W21346   9.216   0.120  11.646 -0.1007 -0.2297 -0.0196
 2493W        W21347  11.900  15.437   0.599  0.0209 -0.0390 -0.1129
 2494W        W21348   9.656  18.568  11.946  0.1531 -0.1462 -0.2338
 2495W        W21349   0.052  12.029  10.646 -0.0058  0.0904  0.0496
 2496W        W21350  12.721  13.751   1.969  0.1712  0.1353  0.0655
 2497W        W21351  13.368  17.215  13.853  0.0863  0.2110  0.0343
 2498W        W21352  13.557   3.726  10.983  0.0436  0.1615 -0.1933
 2499W        W21353  18.324   0.129   3.134 -0.1275 -0.0255 -0.1066
 2500W        W21354   9.511  15.843   1.528 -0.0633 -0.0759  0.1738
 2501W        W21355  18.228  17.528  11.472 -0.1195 -0.1076  0.1160
 2502W        W21356  11.498   0.287  12.512 -0.3166 -0.0793  0.1973
 2503W        W21357   6.949   6.183   4.114 -0.2010 -0.1967 -0.0524
 2504W        W21358  10.027   4.394   0.144 -0.0065 -0.0642 -0.2675
 2505W        W21359  11.435  18.229   3.491  0.0877 -0.2944 -0.0362
 2506W        W21360  16.607  15.022  14.290 -0.2339 -0.1145  0.1508
 2507W        W21361  10.176   5.091  14.218  0.0667  0.0337  0.0526
 2508W        W21362  17.471  14.643  14.120  0.0616  0.2693  0.2280
 2509W        W21363  12.264   7.888   0.757 -0.2853 -0.0344 -0.3135
 2510W        W21364   1.027   5.775   2.367  0.1197 -0.3786 -0.0060
 2511W        W21365   0.575  16.940  14.966 -0.1270  0.0499  0.0662
 2512W        W21366   0.137   7.530   1.812  0.0681  0.0549  0.4107
 2513W        W21367  13.200   4.437   1.318  0.0771  0.0310 -0.0338
 2514W        W21368  16.765   6.428   3.552 -0.0822  0.2306  0.4495
 2515W        W21369  13.663  16.287  12.115 -0.0382 -0.2909  0.1338
 2516W        W21370   1.846  11.980   4.866 -0.1811 -0.0542 -0.1383
 2517W        W21371  17.496  18.212   3.701  0.0426  0.1696  0.0760
 2518W        W21372   8.507  14.060  12.896  0.0002 -0.1593  0.0132
 2519W        W21373  11.457   2.543  14.259 -0.2197 -0.1090 -0.1037
 2520W        W21374   6.519   1.828   2.684 -0.2730 -0.1899 -0.0992
 2521W        W21375   8.868  18.787  10.545  0.1630 -0.0491 -0.2594
 2522W        W21376   1.535  15.720   0.894  0.2474  0.2027  0.0987
 2523W        W21377   6.666  13.091  13.039 -0.3214 -0.1256  0.0099
 2524W        W21378  14.420  16.366   0.034  0.2032 -0.1161 -0.1968
 2525W        W21379   1.297  13.089  10.466  0.0470 -0.3883 -0.1882
 2526W        W21380   5.420  15.175   1.491  0.3830 -0.1972  0.1113
 2527W        W21381  16.041   6.392  13.980  0.0306  0.0790 -0.3236
 2528W        W21382  15.763  12.785  15.051 -0.0646  0.2343 -0.2435
 2529W        W21383   0.845  13.252  10.667 -0.1956  0.1630 -0.2219
 2530W        W21384   3.873   9.392  14.408 -0.0780  0.1007 -0.1108
 2531W        W21385   8.885  10.307  11.347 -0.0626  0.0075 -0.1700
 2532W        W21386   7.724  13.267  11.710 -0.1261  0.0223  0.1403
 2533W        W21387   7.197   8.921  12.456  0.1764 -0.4259 -0.0530
 2534W        W21388  14.603   9.028  13.205 -0.0650 -0.1673  0.0531
 2535W        W21389   0.021   6.984  11.577  0.2358 -0.0515  0.0446
 2536W        W21390  18.211  11.117  12.233  0.1563 -0.1873 -0.0077
 2537W        W21391  14.853   2.482  13.336 -0.1617  0.1224  0.0530
 2538W        W21392  12.193   2.345   4.799 -0.2509 -0.2997  0.3361
 2539W        W21393   4.054   0.728  13.597 -0.1117  0.2407 -0.0702
 2540W        W21394  10.915  16.155   0.796 -0.0395  0.2314  0.3158
 2541W        W21395   9.615   7.494  14.369  0.3963 -0.0683  0.2257
 2542W        W21396  10.299   5.587   4.609 -0.1903  0.0333 -0.2036
 2543W        W21397  11.818  13.269   4.026 -0.1733  0.0489  0.0606
 2544W        W21398  11.024  13.985   4.305 -0.0836 -0.2670 -0.1448
 2545W        W21399   7.609   1.849  12.563  0.0699  0.1744 -0.0432
 2546W        W21400   8.040  18.543   4.345 -0.3215 -0.1501  0.5994
 2547W        W21401   8.683   0.555   0.236 -0.1989  0.1203 -0.1235
 2548W        W21402  16.444  18.400  11.059  0.2214 -0.1155  0.0565
 2549W        W21403   3.271   4.646  13.861 -0.2647 -0.1224 -0.0216
 2550W        W21404   2.996   7.658   1.172 -0.0653 -0.3020 -0.1664
 2551W        W21405   7.195   5.191   0.690 -0.2532  0.1444 -0.2888
 2552W        W21406   7.808  15.341  11.045 -0.1940 -0.2088  0.0349
 2553W        W21407  14.562   8.385   3.699  0.0831 -0.2174 -0.1412
 2554W        W21408   1.382   0.804  12.299 -0.1793  0.1909 -0.1309
 2555W        W21409   4.769  10.440   1.173 -0.0006  0.0785  0.1934
 2556W        W21410   7.354   3.357  12.637 -0.2105  0.0625  0.0784
 2557W        W21411   7.355  17.650   0.130 -0.2567  0.1190 -0.1755
 2558W        W21412  14.423  10.723   0.904  0.3639  0.1607  0.1170
 2559W        W21413  15.595  11.358  12.296 -0.2148 -0.0704  0.2637
 2560W        W21414  14.389  10.688   2.620 -0.3713  0.1980  0.0202
 2561W        W21415   2.696   7.021   0.042 -0.0328  0.2451  0.0005
 2562W        W21416  13.008  17.924   0.328 -0.1549 -0.0365 -0.0465
 2563W        W21417  12.193  14.883  13.500  0.1237 -0.1162  0.1209
 2564W        W21418   1.487  16.191  14.552 -0.1532 -0.2180 -0.0147
 2565W        W21419  12.867   7.359   0.054 -0.0073 -0.0078  0.0006
 2566W        W21420   2.530  18.668  14.365  0.4289  0.1627 -0.0350
 2567W        W21421  13.696   5.911   0.957  0.1668 -0.0281  0.1658
 2568W        W21422   0.826  11.464  11.842 -0.0499  0.0219  0.3265
 2569W        W21423  14.385  16.085   0.466 -0.0869  0.1138 -0.0671
 2570W        W21424   1.966   6.360   0.202  0.2527  0.2155  0.0246
 2571W        W21425  13.340  16.926   0.054 -0.1569  0.0641  0.0275
 2572W        W21426  18.249   4.586  14.808 -0.0794 -0.0062  0.2271
 2573W        W21427  11.719  12.303   0.666  0.0457  0.3054 -0.2640
 2574W        W21428   6.291   4.849  12.536 -0.1417 -0.0193 -0.4425
 2575W        W21429   2.755   5.634   3.235  0.3638 -0.1454 -0.1237
 2576W        W21430  16.480   0.067  11.766 -0.1490  0.2485  0.2795
 2577W        W21431  11.316  18.457  14.757 -0.1314 -0.0711  0.1668
 2578W        W21432   8.826   9.670  15.092  0.2140 -0.1752 -0.2034
 2579W        W21433   6.037  14.634   2.223 -0.0365 -0.4106 -0.1863
 2580W        W21434  13.137  15.403  13.902  0.0810  0.2652 -0.0952
 2581W        W21435  17.898   8.712  12.730 -0.1167 -0.0932  0.1028
 2582W        W21436   4.911   4.294   1.303 -0.0630  0.1594 -0.0969
 2583W        W21437   5.505  14.973  13.509 -0.3317 -0.2974 -0.0490
 2584W        W21438  12.200   4.937   5.461  0.2506  0.3081  0.0480
 2585W        W21439   6.935  13.873  11.135  0.0315  0.0189  0.1660
 2586W        W21440   5.444   2.801   2.376  0.0291  0.1590  0.0533
 2587W        W21441  13.677   2.381   1.010  0.0455 -0.1930  0.2251
 2588W        W21442   3.632  11.492  11.315 -0.1518  0.1033  0.3051
 2589W        W21443   0.253  14.374   0.698 -0.0994  0.1333  0.2013
 2590W        W21444   6.826   6.926  14.636  0.1703  0.1808  0.1270
 2591W        W21445  15.459  14.346  11.587 -0.2010  0.4831 -0.1596
 2592W        W21446  17.772   1.884   3.752 -0.0665  0.0889  0.1671
 2593W        W21447   7.565   3.594  11.684 -0.0929 -0.0026 -0.1625
 2594W        W21448   3.834  18.080  15.003  0.1022  0.0427 -0.4194
 2595W        W21449   5.571   1.830   1.883 -0.0152 -0.1346 -0.0208
 2596W        W21450  17.855  16.221  13.631  0.0068  0.0259 -0.4146
 2597W        W21451  14.342   1.373   2.672 -0.1117  0.0211 -0.0258
 2598W        W21452   8.440  15.322   3.616 -0.1653  0.0342  0.2151
 2599W        W21453  10.775   0.900   1.359 -0.3119  0.1953  0.0864
 2600W        W21454   3.432   1.814   3.714  0.2224 -0.0535 -0.3981
 2601W        W21455  13.852   7.678   2.721 -0.0063 -0.1653  0.0895
 2602W        W21456   7.129  16.397  10.652 -0.0126  0.0462 -0.2316
 2603W        W21457  16.570   5.721  13.444  0.2101  0.0615  0.1442
 2604W        W21458   2.635  14.722   1.116 -0.2522 -0.0243  0.0135
 2605W        W21459   3.198  10.242   3.906  0.0408 -0.2229  0.1490
 2606W        W21460   9.473  10.470   4.061  0.0844  0.0808 -0.0145
 2607W        W21461   3.650  13.011  11.249  0.2077  0.0430 -0.1997
 2608W        W21462   8.266   8.996   5.504 -0.1750 -0.0350 -0.0316
 2609W        W21463  15.252  16.838   3.551  0.0936 -0.2701  0.1567
 2610W        W21464   9.908   3.765   2.990  0.1675  0.0113 -0.0685
 2611W        W21465  14.422   8.353   2.862 -0.0830 -0.1497  0.1437
 2612W        W21466   7.889   9.316  12.012 -0.2436 -0.1994 -0.4738
 2613W        W21467   1.164  16.906  10.987  0.0342 -0.3958 -0.2618
 2614W        W21468   2.821  16.019  12.056  0.1726 -0.2044 -0.1598
 2615W        W21469   4.311  13.598   2.845  0.2654 -0.1991  0.3986
 2616W        W21470  11.914   3.925   3.560  0.2629  0.1630 -0.0869
 2617W        W21471  18.505  10.148   0.536  0.0964 -0.1007  0.0846
 2618W        W21472  18.189   7.496   2.885  0.1553  0.0369  0.0776
 2619W        W21473   0.726  17.849   1.145 -0.2356  0.2167  0.1933
 2620W        W21474  13.532   8.184   1.479  0.0076  0.0844 -0.0407
 2621W        W21475   7.209   0.259  13.574  0.0671 -0.3235  0.2406
 2622W        W21476  12.888  11.513   1.348  0.3625 -0.1834 -0.0314
 2623W        W21477   9.740  10.159  13.953 -0.0066 -0.1418 -0.0727
 2624W        W21478  13.019   2.496   2.755  0.0483 -0.0340  0.0976
 2625W        W21479   0.241  11.143  14.130  0.0856 -0.0521  0.1907
 2626W        W21480   0.295   3.828   4.822  0.0908  0.2686 -0.5783
 2627W        W21481  17.501  17.610  14.605  0.0168 -0.3426  0.0333
 2628W        W21482   9.981   5.740  13.300 -0.1346  0.2748  0.3901
 2629W        W21483  10.855  18.394   1.806 -0.0073 -0.2461  0.2558
 2630W        W21484  11.739  13.627   9.737  0.0456  0.2686 -0.3148
 2631W        W21485  12.738   2.494   4.155 -0.0370  0.1268  0.1564
 2632W        W21486  18.614   8.912  12.691 -0.0246 -0.4596 -0.1334
 2633W        W21487   5.760   0.531  13.854 -0.0703 -0.3415 -0.3942
 2634W        W21488  16.964   2.283  14.781  0.0055 -0.1189  0.2387
 2635W        W21489   5.418   5.234   4.195 -0.1372  0.1370  0.0422
 2636W        W21490  12.891  18.465   1.577 -0.1458  0.0105  0.1461
 2637W        W21491   9.775  13.250   1.677 -0.1456 -0.0307  0.2254
 2638W        W21492  10.234  13.302  12.895  0.2586  0.3400  0.2669
 2639W        W21493   2.749   1.784  10.936 -0.0665 -0.1531 -0.0226
 2640W        W21494   9.835  16.599   3.238 -0.0458 -0.1246 -0.0648
 2641W        W21495  18.112  18.412   3.004 -0.2397 -0.1087  0.1092
 2642W        W21496   9.776   9.913  12.203 -0.1378 -0.1994 -0.1511
 2643W        W21497   9.735  12.816   4.576 -0.0474 -0.3998  0.0208
 2644W        W21498   5.142   8.658   5.003  0.0940  0.0801  0.0624
 2645W        W21499   2.575   2.051  11.304 -0.0826 -0.1375  0.0589
 2646W        W21500   9.339   8.550  13.877  0.1057  0.2371  0.3094
 2647W        W21501   5.323  16.992   4.103 -0.0407 -0.1994 -0.1955
 2648W        W21502   4.858   7.337   0.246  0.2132 -0.1819 -0.1622
 2649W        W21503   1.632   2.476   2.391 -0.3369  0.2374  0.0783
 2650W        W21504   7.818   3.294  12.420  0.0096 -0.3120 -0.0980
 2651W        W21505   3.945   8.769   2.851  0.2466 -0.1300 -0.2746
 2652W        W21506   5.700   6.236   4.481 -0.2336 -0.0252  0.0417
 2653W        W21507  10.055  13.357  14.707  0.0542 -0.3119  0.0387
 2654W        W21508   4.324  18.717   4.209 -0.0199 -0.4267  0.1565
 2655W        W21509   9.229  13.119  14.906 -0.0412 -0.1920  0.0150
 2656W        W21510   5.353   2.424  11.958 -0.1111 -0.0752 -0.1753
 2657W        W21511   1.335  13.795  13.493 -0.1410 -0.0685 -0.0942
 2658W        W21512   8.586   8.590   2.011 -0.0165  0.3965 -0.0006
 2659W        W21513   6.529  14.491  13.704  0.2621  0.3157  0.2402
 2660W        W21514  16.671  15.666   0.794 -0.2121 -0.2297 -0.0824
 2661W        W21515   9.296  18.009   5.122  0.1353  0.1294  0.1660
 2662W        W21516  13.996   4.561  14.697  0.1396 -0.1008 -0.1642
 2663W        W21517   5.100   0.856  10.242 -0.1474  0.1251 -0.1588
 2664W        W21518   2.502   0.586   1.420 -0.0813 -0.1317 -0.0102
 2665W        W21519  12.681  10.587   2.585 -0.0033 -0.3107 -0.0135
 2666W        W21520  10.033  14.612   5.136  0.0763  0.1614  0.3363
 2667W        W21521  15.874  11.986   4.461 -0.1890 -0.2115  0.1035
 2668W        W21522  15.167   3.232  13.093  0.0255  0.1140 -0.1056
 2669W        W21523  18.315  14.473  13.862 -0.1230  0.0141 -0.2806
 2670W        W21524  14.486  17.174   1.873 -0.1030 -0.2317 -0.0080
 2671W        W21525   9.580   1.998   4.981 -0.0009  0.1311 -0.2836
 2672W        W21526  11.089  14.868   9.381 -0.1554 -0.1817  0.1738
 2673W        W21527  13.993   8.462   2.555 -0.0890  0.4277  0.0680
 2674W        W21528   9.701  18.327   4.235 -0.0581  0.1246 -0.4289
 2675W        W21529  14.670  16.583  13.766  0.2941 -0.1382  0.1016
 2676W        W21530   4.251  17.490   3.355  0.1484 -0.0439 -0.3693
 2677W        W21531  14.560   6.456   2.678  0.1491 -0.1331  0.0515
 2678W        W21532   1.373   7.392  12.473  0.0752  0.3944  0.0318
 2679W        W21533   7.023   0.162  12.200  0.1908 -0.3061 -0.1306
 2680W        W21534   2.404   9.847  12.992 -0.2792  0.2044  0.2037
 2681W        W21535  14.946  12.261   2.969  0.0088 -0.3076  0.0049
 2682W        W21536  11.636  14.826   1.593 -0.1486  0.0881  0.2698
 2683W        W21537   2.042   8.263   3.772  0.2335 -0.3233  0.0423
 2684W        W21538   4.532  12.286   0.011  0.4341  0.2318 -0.1113
 2685W        W21539  12.872  17.483  11.314 -0.1467  0.2231  0.1219
 2686W        W21540   2.221   8.796   3.313 -0.1047 -0.2466  0.1617
 2687W        W21541  15.752   0.119   4.040 -0.1961  0.3688 -0.0663
 2688W        W21542  11.759   7.807   0.558 -0.2196 -0.2064  0.2745
 2689W        W21543   8.820  11.235  13.592  0.0389 -0.1163  0.2072
 2690W        W21544   7.416   6.426   2.584 -0.0085  0.1967 -0.2686
 2691W        W21545   4.497   5.478  14.808 -0.1813  0.1411 -0.1830
 2692W        W21546  11.259  18.746   0.990  0.0708 -0.2362  0.0369
 2693W        W21547   0.523   1.379   2.368 -0.0565  0.0819 -0.0024
 2694W        W21548   0.500  17.545  14.286 -0.2447  0.2610  0.2139
 2695W        W21549   0.752  13.923   3.532 -0.0262 -0.1354  0.2215
 2696W        W21550   0.547  15.594  11.741  0.1041 -0.0671 -0.0202
 2697W        W21551   5.554   7.319  12.323  0.0871 -0.2332  0.0591
 2698W        W21552   7.375  12.994  11.910 -0.0489  0.3008 -0.3482
 2699W        W21553   3.276  10.720  14.362 -0.2822  0.2386  0.1772
 2700W        W21554  15.004   9.205  10.224 -0.0163 -0.0600  0.3817
 2701W        W21555  13.067   2.784   3.240  0.0475 -0.0499 -0.0868
 2702W        W21556  13.963  15.850  11.402 -0.2391  0.4137 -0.1277
 2703W        W21557   9.475   6.712  14.704 -0.1420 -0.0251 -0.0831
 2704W        W21558   2.025  12.112  14.687 -0.4180  0.0210  0.0267
 2705W        W21559   2.005  16.359   3.781 -0.1456 -0.0362 -0.3650
 2706W        W21560  16.722  17.100   2.791  0.0829  0.0804 -0.0311
 2707W        W21561  15.259  18.469   1.498 -0.0379 -0.0424 -0.1794
 2708W        W21562  16.072   9.772   4.956  0.1057 -0.2630 -0.0469
 2709W        W21563   3.198   8.565  15.011  0.1185  0.0639 -0.0570
 2710W        W21564  18.698   5.055  12.903  0.2784 -0.1901  0.1608
 2711W        W21565   5.805  13.132  11.562 -0.0251 -0.1367 -0.1347
 2712W        W21566   3.956   6.422   3.349  0.0531 -0.0756 -0.3117
 2713W        W21567  11.377   6.358  12.885  0.2935 -0.0288  0.0707
 2714W        W21568   0.120   2.345   4.107 -0.1020 -0.1677 -0.3509
 2715W        W21569   3.830   3.305   3.460 -0.1330  0.1288  0.1113
 2716W        W21570   7.681  17.122  14.230 -0.1517 -0.0974 -0.1581
 2717W        W21571  18.565  10.482  12.254  0.0613  0.1788  0.1105
 2718W        W21572  17.852   5.516  14.180 -0.0435 -0.1345  0.1379
 2719W        W21573   7.824   0.438  11.097 -0.2181  0.0994 -0.1705
 2720W        W21574   6.876   7.009  11.028 -0.0253 -0.0525 -0.0524
 2721W        W21575   9.160  12.277   3.590  0.1611 -0.2110  0.0687
 2722W        W21576   9.624  18.368  14.225  0.1756 -0.0807 -0.3352
 2723W        W21577  14.480   1.192  12.813 -0.1295 -0.1409 -0.1255
 2724W        W21578   9.650  11.822  13.400 -0.1725 -0.1650 -0.0648
 2725W        W21579  14.550  17.406  14.682  0.0441 -0.1291 -0.1562
 2726W        W21580   5.851   9.803  11.269  0.0994  0.3180  0.0222
 2727W        W21581  14.978  17.347  10.662  0.2125  0.1031 -0.0651
 2728W        W21582  18.200  18.563  12.108 -0.1269  0.1854 -0.3621
 2729W        W21583  11.126  11.625   2.670  0.0595  0.0755  0.1424
 2730W        W21584   5.099   2.980   0.491 -0.0126  0.1464 -0.1982
 2731W        W21585   1.065  13.335   2.833  0.1599  0.2561  0.2648
 2732W        W21586   9.928   6.256  12.328 -0.2783 -0.3188  0.0555
 2733W        W21587  16.614  10.452   2.449  0.1393  0.1970 -0.2339
 2734W        W21588  18.324  12.227  10.080 -0.0053 -0.1384 -0.2896
 2735W        W21589   6.577   2.932   1.354  0.0344  0.0499  0.1439
 2736W        W21590  13.587  11.625  13.111 -0.1017  0.1346 -0.0793
 2737W        W21591   4.875   7.799  13.915 -0.0250 -0.1698 -0.1782
 2738W        W21592  10.558  14.603  13.285  0.2216 -0.1110 -0.2821
 2739W        W21593   4.959   0.394   1.621  0.2341  0.2124 -0.0859
 2740W        W21594   6.979   1.413  11.772  0.0760 -0.1704 -0.2618
 2741W        W21595  17.733  15.326   3.107  0.3467  0.2132  0.0820
 2742W        W21596  11.159  11.971   2.289  0.1719 -0.1727  0.1445
 2743W        W21597  17.098   5.051   3.275 -0.2913 -0.1329 -0.1990
 2744W        W21598   3.127  16.302  12.395 -0.0962  0.1595  0.1813
 2745W        W21599   3.308   0.808   1.672 -0.2553 -0.4044 -0.1007
 2746W        W21600   2.204   6.308   4.914  0.3347  0.1736 -0.1526
 2747W        W21601  11.539  11.591  11.571  0.1525 -0.1178 -0.1050
 2748W        W21602  13.514  15.592   2.101 -0.1944  0.0454 -0.1286
 2749W        W21603   4.084   3.358  12.631 -0.2342 -0.1233  0.1977
 2750W        W21604   6.030  18.218  11.507 -0.2659 -0.0980 -0.0458
 2751W        W21605  11.795  16.407  12.202 -0.1292 -0.0014  0.1757
 2752W        W21606   3.477   1.365   1.712  0.1866  0.2880 -0.2755
 2753W        W21607  14.872   2.519  13.834  0.2475 -0.1668  0.0447
 2754W        W21608  12.846   2.338  10.166  0.0236  0.0769  0.0442
 2755W        W21609  10.125   5.279  13.666 -0.1888 -0.0256 -0.1379
 2756W        W21610  16.979   5.729  12.962 -0.1143 -0.1335 -0.1393
 2757W        W21611   2.222   3.909  12.930 -0.0150  0.4000 -0.1824
 2758W        W21612  11.822  18.602   1.680  0.0191  0.1668  0.0674
 2759W        W21613  17.763   1.905   3.261  0.3503 -0.0279  0.2370
 2760W        W21614   5.828   5.652   1.480 -0.0010  0.4645  0.0881
 2761W        W21615   9.346   0.494   1.988  0.0932  0.0456 -0.0186
 2762W        W21616   0.548  11.336  12.934  0.1315 -0.1578  0.0092
 2763W        W21617  10.017  15.931  14.755  0.0995 -0.3052 -0.0602
 2764W        W21618  10.055   7.360  11.076  0.2251 -0.3365 -0.1064
 2765W        W21619  15.777  13.103   2.688 -0.0616  0.0766  0.0231
 2766W        W21620  12.807  11.205   0.691 -0.1060 -0.0620  0.0899
 2767W        W21621   8.743   5.288   1.913  0.2005  0.0183  0.2489
 2768W        W21622   2.296  13.222   1.420  0.0029 -0.3224  0.2081
 2769W        W21623  18.624   9.431  12.802  0.0998  0.0438  0.2595
 2770W        W21624  16.972  12.980  15.067  0.0314  0.0355  0.1862
 2771W        W21625  14.901  15.529  10.287 -0.0118 -0.0151 -0.1320
 2772W        W21626  13.781  14.031   2.728 -0.2606 -0.0607  0.0065
 2773W        W21627   0.384   7.322  11.592  0.1800 -0.0334 -0.0319
 2774W        W21628   8.957   9.727   2.880 -0.1401  0.3220  0.1080
 2775W        W21629   8.791   8.324   3.556  0.1185 -0.0343  0.0241
 2776W        W21630   6.907   7.254  13.337  0.1620  0.1573 -0.0039
 2777W        W21631  16.822  12.357  14.952  0.2280  0.0765 -0.1793
 2778W        W21632   6.268  17.724   4.162 -0.1639  0.2158  0.0177
 2779W        W21633   3.779   4.167   1.813  0.0672 -0.3105 -0.3196
 2780W        W21634   4.765   7.834  13.378 -0.0493 -0.0733 -0.2176
 2781W        W21635  18.126  12.433   1.409  0.0365 -0.2382  0.1102
 2782W        W21636  18.801   6.705   1.934 -0.3752 -0.0270 -0.0165
 2783W        W21637  16.914   7.186  11.710  0.3660  0.1211 -0.2071
 2784W        W21638  17.701   7.801  12.206 -0.1800 -0.0411  0.0766
 2785W        W21639   3.413  18.055  12.073 -0.0225  0.2166 -0.2621
 2786W        W21640  18.727  17.319   2.940 -0.0401  0.1164  0.2598
 2787W        W21641  10.265   6.318   0.463 -0.2985  0.1197 -0.2146
 2788W        W21642   1.490   9.571   4.081 -0.1096  0.1528 -0.1701
 2789W        W21643   3.461  10.655  11.725  0.1324 -0.0392  0.1273
 2790W        W21644   8.112  17.174  10.051  0.1041 -0.2841  0.0316
 2791W        W21645  15.617   5.113   4.217 -0.2737  0.0787  0.0547
 2792W        W21646  12.785   6.279   1.582 -0.1303 -0.0029  0.0387
 2793W        W21647   7.614  10.780   0.346 -0.3549 -0.1072  0.0561
 2794W        W21648   3.027   2.605  11.982  0.0871  0.4394 -0.2281
 2795W        W21649  17.886  14.741  14.333 -0.3248  0.3461 -0.1147
 2796W        W21650  14.504   2.999   2.187  0.0999 -0.0792 -0.1443
 2797W        W21651  11.779   2.911  10.684  0.0058  0.1152 -0.0518
 2798W        W21652   0.249   9.108  12.601  0.1311  0.0234 -0.0696
 2799W        W21653  17.424  15.275  11.503 -0.0212 -0.2768  0.5429
 2800W        W21654  11.695  16.306   2.243  0.3234  0.0195 -0.1618
 2801W        W21655  13.271   3.919   4.142 -0.2507  0.2772 -0.0883
 2802W        W21656  15.150  17.757   3.496  0.3964 -0.0509 -0.2274
 2803W        W21657  12.045   6.688   1.400  0.1934 -0.3160 -0.0548
 2804W        W21658   2.800  14.160   0.323 -0.1357  0.1651 -0.0123
 2805W        W21659   1.809  16.498   0.739 -0.0878  0.1300  0.1202
 2806W        W21660  16.976   1.368  13.175 -0.2877 -0.2256  0.0879
 2807W        W21661   1.862   1.886   1.111  0.1230 -0.0491 -0.0297
 2808W        W21662  15.487   3.328   3.155  0.1062 -0.1433  0.0043
 2809W        W21663   3.540   7.391   0.566  0.1382 -0.1124 -0.1132
 2810W        W21664   5.719   3.428   3.735 -0.2446  0.1747 -0.2263
 2811W        W21665  11.570   0.218  11.067 -0.4240  0.2578  0.1997
 2812W        W21666   8.020   7.140   1.832 -0.0940  0.0696 -0.0169
 2813W        W21667  11.617  11.072  14.205  0.2736 -0.1257 -0.1093
 2814W        W21668   2.189   9.023  12.053 -0.0222  0.0435 -0.1969
 2815W        W21669   5.241  18.161   3.078  0.1081  0.4232 -0.1517
 2816W        W21670   3.148   3.948   4.084  0.0347  0.0184 -0.0968
 2817W        W21671  15.564   2.357   2.701 -0.0628 -0.0180  0.0158
 2818W        W21672  12.297  18.598   3.091 -0.4602 -0.1429 -0.0171
 2819W        W21673  18.307  15.772   3.771 -0.2049 -0.0868 -0.1557
 2820W        W21674  12.625  15.042  10.397  0.2096  0.0925  0.4127
 2821W        W21675  16.740   3.352  14.206  0.3215 -0.3423 -0.4546
 2822W        W21676   5.070  18.638   4.638 -0.0856  0.0004  0.0068
 2823W        W21677   2.032   8.622  10.986 -0.0462  0.0187 -0.1336
 2824W        W21678   9.262   6.211  13.135  0.1257 -0.2641 -0.1425
 2825W        W21679   2.653   5.073  13.907  0.2194  0.0820 -0.1541
 2826W        W21680   1.350   1.094   0.567 -0.1041 -0.0933  0.2553
 2827W        W21681  10.560   0.239  11.176  0.0135 -0.0304  0.1376
 2828W        W21682  16.309   3.144  14.307  0.2304  0.0790 -0.0302
 2829W        W21683  17.203  17.957  13.651  0.1546 -0.2554 -0.1120
 2830W        W21684  16.042  18.509   3.549  0.0102  0.2654 -0.2219
 2831W        W21685  10.649  14.775  10.999 -0.0624  0.3060 -0.0862
 2832W        W21686   4.827  15.707   0.709 -0.2704  0.2125 -0.2674
 2833W        W21687  10.887  17.445  13.371 -0.1082 -0.4296  0.0062
 2834W        W21688   1.392   7.542   2.217 -0.1022 -0.1083 -0.0946
 2835W        W21689  13.891   1.414   4.106  0.0952  0.1370  0.2343
 2836W        W21690  17.596   4.034   0.485 -0.1234 -0.1742  0.0078
 2837W        W21691  17.768  10.759   4.146  0.0495 -0.1014 -0.3258
 2838W        W21692  12.437   2.585  10.973 -0.0551 -0.0372 -0.1118
 2839W        W21693  11.641   9.375   4.290  0.0703 -0.1659  0.2725
 2840W        W21694  12.427  16.898  13.446  0.0464  0.2780 -0.1892
 2841W        W21695  15.914   9.771  14.178 -0.1484 -0.2199  0.2641
 2842W        W21696   1.148   9.590  11.226 -0.1481  0.5280  0.0414
 2843W        W21697  15.071  16.413   3.376 -0.1108  0.0728 -0.3698
 2844W        W21698   7.251  17.843  13.929 -0.0815 -0.1628 -0.3901
 2845W        W21699  15.225  11.445   4.542  0.1042 -0.0033  0.0134
 2846W        W21700   1.907   9.799   3.829 -0.0605  0.2130  0.2119
 2847W        W21701   2.297  17.591   0.888 -0.1124  0.0384  0.1750
 2848W        W21702  13.086   0.803  10.986  0.0379  0.1650  0.1409
 2849W        W21703   7.561  17.347  11.195 -0.1412  0.0610  0.0654
 2850W        W21704   2.991   0.656  13.400  0.2418 -0.0365 -0.1015
 2851W        W21705  18.844   7.482  11.989 -0.0255 -0.0118  0.0159
 2852W        W21706  17.163  14.819   3.880  0.0539  0.2136 -0.1844
 2853W        W21707  16.146  14.264   4.124  0.0096 -0.1655  0.1978
 2854W        W21708   5.456  17.834   1.240  0.1010 -0.1722  0.2182
 2855W        W21709  10.047   8.309   3.570 -0.3682 -0.0131  0.0533
 2856W        W21710   8.697   0.761   3.058 -0.0760 -0.0029 -0.0123
 2857W        W21711  12.207  12.696   0.792  0.1288 -0.1505 -0.3740
 2858W        W21712  12.895  10.054  14.232 -0.2027 -0.0362  0.0282
 2859W        W21713   2.816   3.550  13.507 -0.3420  0.1823 -0.1691
 2860W        W21714  11.424  18.063   2.960  0.1478  0.0599 -0.3334
 2861W        W21715  16.914   2.008   0.585  0.1679 -0.4005  0.0892
 2862W        W21716  14.491  12.051  13.082 -0.0489 -0.3576 -0.0904
 2863W        W21717   8.573  18.843   2.085  0.2364  0.2300 -0.0745
 2864W        W21718   5.409   9.798  12.213  0.0791 -0.3080  0.1510
 2865W        W21719   6.091  17.541  12.149  0.0449 -0.0104  0.1073
 2866W        W21720   9.009   8.532   2.674  0.0670 -0.2268  0.0026
 2867W        W21721  12.006  11.850   2.704  0.0278 -0.3481  0.2860
 2868W        W21722  10.778  11.348   2.288  0.1257  0.2143 -0.1496
 2869W        W21723  13.146   0.973  11.891 -0.0050 -0.0260 -0.1125
 2870W        W21724  15.415  11.272  13.528 -0.0385  0.0766 -0.0044
 2871W        W21725  16.562  18.183   2.872 -0.1596  0.2374 -0.3777
 2872W        W21726  15.297  13.952   3.700  0.0087 -0.1643 -0.1413
 2873W        W21727  15.326   8.987  13.341  0.0240  0.1650  0.1803
 2874W        W21728   6.704   5.373   1.978  0.0671  0.0622  0.2420
 2875W        W21729   5.690  11.230   1.534 -0.4481  0.2111 -0.1358
 2876W        W21730   7.113   3.729  12.415  0.1752  0.0696 -0.0293
 2877W        W21731  13.307   6.107  13.711 -0.0134  0.1709 -0.2730
 2878W        W21732  12.294  14.107   0.750 -0.1372  0.3702 -0.0002
 2879W        W21733   3.568  15.800  11.255  0.0121 -0.2095  0.0408
 2880W        W21734   5.788   3.365   1.192  0.1433  0.1709  0.2142
 2881W        W21735   6.279  11.962  11.829 -0.1201 -0.0181 -0.2476
 2882W        W21736  17.072   1.260   3.764 -0.2237 -0.3463  0.2123
 2883W        W21737   7.454   7.021   0.742 -0.0025 -0.2030  0.1282
 2884W        W21738  15.837   4.034  13.996 -0.3886  0.1574  0.0084
 2885W        W21739   7.626  17.466  14.755 -0.0956  0.0048 -0.1688
 2886W        W21740  18.748  12.150  13.785 -0.2537  0.1094  0.3146
 2887W        W21741   7.595   1.054   0.273  0.0476 -0.2115 -0.0878
 2888W        W21742  16.053  10.382  14.229  0.0367  0.0638  0.2296
 2889W        W21743   6.945   7.414  14.691  0.1690 -0.3028 -0.0371
 2890W        W21744  10.491  10.674   0.721  0.2773 -0.0558 -0.3829
 2891W        W21745   2.808   6.306   2.473 -0.4442 -0.3039  0.2575
 2892W        W21746   4.083  12.673   3.976 -0.3241  0.0010 -0.2905
 2893W        W21747   7.313   8.007   3.822 -0.1531  0.1537 -0.1834
 2894W        W21748   7.857  15.090   0.845 -0.0986  0.1536  0.0567
 2895W        W21749  13.068   7.146  13.635  0.0333 -0.0919 -0.3849
 2896W        W21750  15.931   6.263   2.188 -0.1441  0.2958 -0.0034
 2897W        W21751   9.759  10.441  11.324  0.0658  0.2904  0.0061
 2898W        W21752   0.977   0.728  13.957  0.0352 -0.3174 -0.0044
 2899W        W21753  18.073  14.637  12.993 -0.2745 -0.0183  0.0754
 2900W        W21754   0.794   3.539  11.863  0.3141  0.1352  0.0131
 2901W        W21755   7.231  18.597   4.920 -0.0332 -0.2725 -0.0985
 2902W        W21756   8.984  13.525  13.667 -0.1587 -0.0518 -0.0555
 2903W        W21757   4.871   7.336  13.968 -0.0708 -0.1994 -0.1454
 2904W        W21758   0.588  12.826   4.322 -0.2438 -0.0874  0.1892
 2905W        W21759   8.712   0.410   4.189  0.0243  0.0721 -0.1174
 2906W        W21760   3.179   9.081  11.726  0.1680 -0.0123  0.1103
 2907W        W21761  10.874   3.081  13.721 -0.1411  0.0509  0.0919
 2908W        W21762   1.070   4.347   2.158 -0.2863 -0.0089 -0.4303
 2909W        W21763  12.165   0.524  11.873  0.0013  0.1643  0.0732
 2910W        W21764   5.651   3.624   4.569  0.3263 -0.1364  0.2898
 2911W        W21765   7.395  13.617  11.081  0.1544 -0.1081  0.1703
 2912W        W21766   9.003   1.452  11.891  0.0033 -0.1859  0.0648
 2913W        W21767   5.542  18.660   4.308 -0.2144 -0.0020 -0.0333
 2914W        W21768  12.313   2.461   4.339  0.2117  0.1581 -0.2758
 2915W        W21769  18.840  13.103   3.298 -0.0418  0.2203  0.0293
 2916W        W21770   8.809  15.108  12.005  0.0382 -0.0200  0.1081
 2917W        W21771  18.793   4.983   2.448 -0.1339  0.0614  0.1190
 2918W        W21772   5.715  10.938   3.275  0.2434  0.0074  0.0808
 2919W        W21773  14.874  17.544   0.488  0.0506  0.1266  0.2205
 2920W        W21774  16.358   3.566  13.924  0.3652 -0.0347 -0.0411
 2921W        W21775  17.856   1.585  12.338  0.2911 -0.4223  0.1077
 2922W        W21776  12.905   9.169   1.011  0.2659  0.1898 -0.0318
 2923W        W21777  11.578  10.901  13.635  0.0602  0.2236 -0.4171
 2924W        W21778   3.279  12.503   0.334 -0.0902  0.2188 -0.1336
 2925W        W21779  18.489   5.303   0.572  0.0004  0.3671  0.3163
 2926W        W21780   7.890   7.687  12.909  0.0061 -0.3596 -0.1442
 2927W        W21781   8.140   5.991  14.221 -0.4476  0.0996 -0.3505
 2928W        W21782   3.473   4.747   0.055 -0.0889 -0.2179  0.1195
 2929W        W21783   2.332   6.116  14.716  0.0579 -0.4011  0.1454
 2930W        W21784   6.903  17.947   3.091  0.1404 -0.2695  0.1083
 2931W        W21785   8.997   3.818   3.894  0.3801 -0.2473 -0.1374
 2932W        W21786   9.377  13.606  11.851  0.0391 -0.0926  0.2899
 2933W        W21787  11.061  11.888   0.355 -0.3287  0.2672  0.2561
 2934W        W21788  16.486   0.835   2.741  0.0482 -0.1362  0.1986
 2935W        W21789  12.859  16.503   2.633 -0.0328 -0.1668  0.2150
 2936W        W21790  11.749   6.307  14.914 -0.0989  0.0784  0.1303
 2937W        W21791   6.112  11.477   1.475  0.0116  0.1321  0.0760
 2938W        W21792  11.581  17.296  13.931  0.1351 -0.1357 -0.0780
 2939W        W21793  10.013   1.632   2.480 -0.0351  0.0055  0.4660
 2940W        W21794  11.511  13.509   2.266 -0.0938 -0.2339  0.0780
 2941W        W21795   2.052   6.059  12.237 -0.0350  0.0367 -0.2093
 2942W        W21796  12.131  18.623   2.265  0.1331 -0.0050 -0.0997
 2943W        W21797   4.326  15.364   0.705  0.1492 -0.1292 -0.0889
 2944W        W21798   3.738   7.370  11.726  0.0862 -0.3345  0.1472
 2945W        W21799  17.106   4.563   3.713 -0.3214 -0.3003 -0.2672
 2946W        W21800  16.665  15.022   2.020 -0.0555  0.0524 -0.1125
 2947W        W21801  17.853   2.767  11.195 -0.0652  0.0452  0.2202
 2948W        W21802   2.653   9.769   2.218 -0.0497  0.0085 -0.3814
 2949W        W21803   1.956  15.867  14.768 -0.2483 -0.1238  0.0708
 2950W        W21804  16.624  10.433  12.127  0.0582 -0.3735  0.0031
 2951W        W21805  14.259   7.651  13.600  0.0536 -0.0823 -0.1325
 2952W        W21806  14.279   2.835   1.692 -0.0488  0.1597  0.2807
 2953W        W21807   8.518  17.766  11.823 -0.1863 -0.0929 -0.3287
 2954W        W21808   0.705   2.699  13.209 -0.1693  0.1564 -0.2663
 2955W        W21809   1.560   5.984   1.011  0.2362 -0.0441 -0.0050
 2956W        W21810   4.662  17.052   5.155 -0.2367 -0.1866 -0.1911
 2957W        W21811   9.599  15.859   0.002  0.0096 -0.0445  0.1554
 2958W        W21812  16.552  13.324   2.241 -0.1088 -0.1787  0.0867
 2959W        W21813   3.842  15.358  10.543  0.2643 -0.0861 -0.0679
 2960W        W21814  12.689  18.645  13.734  0.0306 -0.0640  0.0327
 2961W        W21815   2.677  14.929  13.782  0.1690 -0.1193  0.1303
 2962W        W21816  18.056  18.273  14.341 -0.1130  0.1739 -0.0780
 2963W        W21817  15.622  11.393  14.860 -0.1159 -0.0999 -0.0443
 2964W        W21818  15.780   1.115   0.081  0.0817 -0.2988  0.0099
 2965W        W21819  13.016  13.836  12.576 -0.1797  0.1743 -0.3681
 2966W        W21820  12.234   0.362  12.877  0.1197  0.2323  0.1435
 2967W        W21821  18.444  15.112  14.881 -0.1926  0.1111  0.2998
 2968W        W21822   1.274   0.107   0.425  0.1512 -0.3356 -0.0385
 2969W        W21823   8.675   1.636  12.721 -0.1166  0.1690  0.0555
 2970W        W21824  10.395   3.134   1.484  0.0613  0.1752  0.0896
 2971W        W21825   7.177  15.026  14.459 -0.2047 -0.0159 -0.2467
 2972W        W21826   8.241   8.899  13.443 -0.0116  0.0524 -0.1275
 2973W        W21827   4.877   7.017   0.912  0.0299 -0.4418  0.2252
 2974W        W21828  13.221  12.365   4.208  0.1951  0.3320  0.0638
 2975W        W21829   3.502  18.552  11.956 -0.0906 -0.0195  0.1364
 2976W        W21830   1.789  14.659   3.840  0.0997  0.0204  0.1152
 2977W        W21831  11.923  13.537   3.203 -0.1351  0.2670 -0.0538
 2978W        W21832  17.754   2.270   1.900  0.1454  0.0003 -0.2252
 2979W        W21833  11.239   8.522   0.339  0.4434 -0.1027  0.1625
 2980W        W21834   7.670   5.823   4.746  0.2086 -0.1095 -0.0688
 2981W        W21835  15.172  15.652  12.264  0.0870  0.0343  0.3329
 2982W        W21836   8.086  13.995  12.599 -0.1516  0.1126 -0.2269
 2983W        W21837   5.799  15.891   0.700 -0.2917 -0.1006  0.3597
 2984W        W21838  10.210   5.046   3.752 -0.5498 -0.0171 -0.3470
 2985W        W21839   2.658  11.995  15.028 -0.0965 -0.1184 -0.1539
 2986W        W21840  17.448  12.897  12.676  0.0855 -0.2789 -0.0918
 2987W        W21841  14.007   0.558  12.306  0.1332 -0.0560 -0.2304
 2988W        W21842   9.939  17.719  11.379  0.3581 -0.0794  0.1321
 2989W        W21843   9.010   4.373   1.742 -0.0904 -0.3592  0.0499
 2990W        W21844  17.913   2.402   3.821 -0.2646  0.0043  0.2763
 2991W        W21845   6.162   8.160  14.832 -0.0092 -0.1835  0.0011
 2992W        W21846  12.292  17.559  15.021  0.1265  0.0977 -0.0247
 2993W        W21847   0.553  14.950  11.387 -0.1338  0.1125  0.0046
 2994W        W21848   6.338  12.263   0.073 -0.0459 -0.0362 -0.3225
 2995W        W21849   9.394  10.221  12.354 -0.1733 -0.0318 -0.1121
 2996W        W21850   4.056  10.926   0.979  0.0438  0.0878  0.1675
 2997W        W21851  16.623   7.011  14.741  0.0714  0.0644  0.0780
 2998W        W21852   6.228   7.096   3.321  0.2098 -0.0022 -0.2866
 2999W        W21853   4.494   2.821  14.177  0.0960  0.1798 -0.0639
 3000W        W21854   3.605   6.520  14.321 -0.5712 -0.3833  0.0011
 3001W        W21855   9.156   7.829   1.586  0.1382  0.0418 -0.0188
 3002W        W21856  11.751   2.789   2.811  0.2337 -0.0593  0.0170
 3003W        W21857   0.581   8.832   2.230  0.4092  0.1443  0.2616
 3004W        W21858   6.012   2.809  12.339  0.2459  0.1739  0.1380
 3005W        W21859   7.481  10.416   1.283  0.0718 -0.1098  0.0582
 3006W        W21860  12.432  16.942   4.033  0.1490 -0.2483  0.0790
 3007W        W21861   2.980  14.298  10.261  0.2361 -0.2264 -0.2637
 3008W        W21862  18.555   8.741   0.261  0.2743 -0.1241 -0.2660
 3009W        W21863  17.108   6.514   3.156  0.2479  0.1423 -0.2448
 3010W        W21864  10.645  13.317   4.917  0.0276 -0.2579  0.0237
 3011W        W21865   8.097   2.322  11.845  0.1097  0.1119  0.3399
 3012W        W21866   6.040   8.705  11.380 -0.0159 -0.1203 -0.1120
 3013W        W21867   2.769  10.844  11.714  0.3734  0.1568  0.2345
 3014W        W21868  15.393   1.670  11.412  0.0870  0.0218 -0.1417
 3015W        W21869   4.061   2.199   0.656  0.2300  0.0641 -0.0102
 3016W        W21870   9.649  13.312   4.778 -0.2884 -0.2788  0.0732
 3017W        W21871  16.376  13.478  13.500  0.1818  0.1087  0.0960
 3018W        W21872   2.224   4.900   4.727 -0.0168 -0.1178 -0.3202
 3019W        W21873  10.360   6.312  14.506 -0.0512  0.1487 -0.1408
 3020W        W21874   1.516   4.193  10.256  0.2661 -0.1910 -0.0382
 3021W        W21875   5.855   3.013  13.624  0.2183  0.0484 -0.1965
 3022W        W21876  11.050   4.597   1.584 -0.0274  0.1071  0.1569
 3023W        W21877   9.533   3.663  11.704  0.3797 -0.0949  0.1562
 3024W        W21878   6.784  13.017   3.943 -0.1775  0.0676  0.1457
 3025W        W21879  16.797   1.894   3.422  0.0364  0.1452  0.1033
 3026W        W21880   1.057   0.167   5.543  0.1767 -0.0394 -0.2935
 3027W        W21881  16.024   3.566  14.321 -0.1223  0.0597 -0.2303
 3028W        W21882   3.342  12.384   0.884  0.0932  0.3295 -0.1319
 3029W        W21883   2.927   0.952   3.400  0.0590  0.0588  0.2368
 3030W        W21884   4.664  10.474   2.348  0.1397 -0.0683  0.2944
 3031W        W21885  14.561  10.137   2.505 -0.0981 -0.1808  0.0039
 3032W        W21886   4.279   9.555   0.987 -0.1777  0.3107  0.0481
 3033W        W21887   0.686  13.125  14.377  0.3319  0.4703  0.0793
 3034W        W21888   0.914   7.273  12.261 -0.1105 -0.1171  0.2420
 3035W        W21889   6.015   7.079   0.956  0.1496 -0.1419 -0.1582
 3036W        W21890  16.240   6.194  10.219  0.0424 -0.1959 -0.0618
 3037W        W21891  14.173   9.223   2.122  0.3347  0.0061 -0.0496
 3038W        W21892  13.009   0.398  13.031  0.0148 -0.1492  0.0547
 3039W        W21893  10.527   1.884  11.339  0.2782 -0.2459  0.0170
 3040W        W21894  13.937  13.861  13.611 -0.2922 -0.1771  0.3321
 3041W        W21895  16.870   6.045  12.098  0.0801 -0.0932 -0.1135
 3042W        W21896   3.527  14.082  12.470  0.0388  0.0315  0.0017
 3043W        W21897  16.081  12.403  10.620  0.0181  0.4645  0.0428
 3044W        W21898   9.285  13.063   2.987  0.0600 -0.0157 -0.3496
 3045W        W21899  10.412  11.854  10.135 -0.1707  0.0270 -0.2013
 3046W        W21900   6.369  15.125  13.057  0.2151  0.0187 -0.1831
 3047W        W21901  13.613   9.301  10.950 -0.1054  0.1050  0.0313
 3048W        W21902   0.589  17.001   1.169 -0.0570  0.0200  0.4263
 3049W        W21903   4.835  13.462  14.842 -0.1569 -0.2289 -0.0536
 3050W        W21904   2.336  11.426   2.372  0.1761  0.0604 -0.2523
 3051W        W21905   4.951  16.909   4.454 -0.0826 -0.1869 -0.1417
 3052W        W21906  12.550  14.973   4.881 -0.2351 -0.1802  0.4095
 3053W        W21907   6.887   4.893  13.845 -0.0038 -0.3304 -0.0948
 3054W        W21908  11.920   3.409  12.684 -0.2216  0.1466 -0.2961
 3055W        W21909   1.439   3.557   3.936 -0.2167  0.2914 -0.0799
 3056W        W21910  13.371  16.019   5.036 -0.1478 -0.1088 -0.2215
 3057W        W21911  14.249   0.157  14.568 -0.0582 -0.5884 -0.0226
 3058W        W21912   0.860  12.639  14.408 -0.2506 -0.0187  0.2192
 3059W        W21913  18.792   0.464   3.317  0.0600  0.2573 -0.0506
 3060W        W21914   4.143   8.131   2.446 -0.0703  0.2143 -0.0860
 3061W        W21915   9.285  13.742   0.141 -0.1689 -0.0492 -0.0012
 3062W        W21916   6.734  18.635  10.805 -0.0345  0.0734  0.3120
 3063W        W21917   4.176  12.481   0.248  0.0596 -0.1739  0.1262
 3064W        W21918   8.138   8.295   0.874 -0.0701 -0.0734 -0.0083
 3065W        W21919  12.968   3.970   2.620  0.1374  0.1240 -0.0116
 3066W        W21920   4.142   9.511  14.853 -0.2103  0.2796  0.0193
 3067W        W21921   1.398   0.391  11.960  0.0386 -0.0901 -0.1799
 3068W        W21922  14.053   8.237   1.111  0.0311  0.1214 -0.3244
 3069W        W21923  15.627  13.017   1.157 -0.0068 -0.1140 -0.1837
 3070W        W21924  12.729  11.642  11.238 -0.0237 -0.1518 -0.1626
 3071W        W21925  11.305  16.018  12.798 -0.0218 -0.0582  0.1910
 3072W        W21926   6.048  12.368  12.108  0.1411 -0.1410  0.0254
 3073W        W21927  11.131   6.038   0.421 -0.0254 -0.2261  0.1225
 3074W        W21928   5.140   2.787  12.599 -0.0023  0.3459 -0.0490
 3075W        W21929   9.093  13.061  10.086 -0.1617 -0.0422 -0.0597
 3076W        W21930  17.394  17.179   1.760  0.2635  0.1168  0.2292
 3077W        W21931  13.040   4.899  11.401 -0.1414 -0.0409 -0.1405
 3078W        W21932  11.468   1.825   1.167 -0.0387  0.1497  0.3245
 3079W        W21933   7.915  14.017  11.800  0.0969 -0.1133  0.2373
 3080W        W21934  15.694   9.555   4.197  0.0067  0.1996 -0.0693
 3081W        W21935   1.828   7.553   4.254  0.2032  0.2228  0.4209
 3082W        W21936  17.360  16.966   0.799 -0.0143 -0.1384  0.1259
 3083W        W21937   5.875  16.482   4.526  0.2877  0.1731 -0.3196
 3084W        W21938  10.308  10.091   3.499 -0.1816  0.1048  0.2900
 3085W        W21939   1.142  17.769   3.908 -0.0521  0.0007  0.0355
 3086W        W21940   6.938   2.542   1.647 -0.3060  0.0756 -0.1617
 3087W        W21941  17.208   4.825  10.655 -0.0042  0.3078 -0.0419
 3088W        W21942  10.600   0.831  11.075 -0.1326  0.1330  0.0920
 3089W        W21943   3.351   6.649  11.377  0.1580  0.2556  0.4195
 3090W        W21944   8.688  17.617  12.948 -0.0680 -0.0651  0.0340
 3091W        W21945   2.095  12.579  11.292 -0.1559  0.1346  0.1528
 3092W        W21946  12.073   9.079  14.617 -0.0696  0.0004  0.3473
 3093W        W21947   8.094  16.986   1.154 -0.2787  0.1804  0.1627
 3094W        W21948   0.755  10.205   0.155 -0.0796  0.0831 -0.0633
 3095W        W21949   8.188   1.131   3.638  0.0214 -0.1890  0.1653
 3096W        W21950   8.644  13.816   3.332  0.1571 -0.2309 -0.0749
 3097W        W21951   8.110   3.054   3.683  0.1091 -0.0714  0.0903
 3098W        W21952   0.543   2.613   2.399 -0.1895 -0.0686 -0.3755
 3099W        W21953  15.800   3.537  11.626  0.0502  0.0117  0.2263
 3100W        W21954  14.359   6.345   2.155 -0.1101 -0.0018  0.0148
 3101W        W21955  12.334  18.327  11.462 -0.2522 -0.2593  0.1152
 3102W        W21956   1.156   9.235  11.597 -0.2504 -0.3625 -0.3264
 3103W        W21957   2.027  18.655  11.354 -0.3019 -0.0605 -0.0591
 3104W        W21958   8.060  12.837   0.870 -0.1238 -0.0316 -0.2257
 3105W        W21959   4.640  13.337  14.341  0.2750  0.0037  0.0574
 3106W        W21960  12.000  16.455   0.922 -0.0077 -0.0726  0.0250
 3107W        W21961   0.285  14.048   3.789 -0.0400  0.4506  0.0233
 3108W        W21962  14.528   0.477  12.222 -0.1196 -0.0984  0.0815
 3109W        W21963   2.175  11.964  14.169 -0.0791  0.0886 -0.0820
 3110W        W21964  17.486  18.333  12.955  0.3834 -0.1907 -0.4859
 3111W        W21965  13.549  10.391  13.569 -0.0121 -0.1813  0.0991
 3112W        W21966  18.815  13.566  11.238  0.0254 -0.3554  0.1342
 3113W        W21967   9.396  18.620  13.407 -0.3226  0.1073 -0.3705
 3114W        W21968   0.445  16.774   2.532 -0.3822 -0.0511  0.1597
 3115W        W21969   7.405  15.035  11.093 -0.1865 -0.2197  0.0077
 3116W        W21970  13.303   1.977  12.948 -0.2832 -0.2678 -0.1873
 3117W        W21971  11.791  15.362  11.981  0.3297 -0.0684 -0.2511
 3118W        W21972   2.214   5.845   3.184 -0.0003  0.0623 -0.1470
 3119W        W21973   0.518  12.889  10.687 -0.2338 -0.2329  0.2111
 3120W        W21974  18.639  10.119   2.073 -0.1619  0.0869 -0.3927
 3121W        W21975  10.717  14.828   1.197  0.1533  0.0428  0.0800
 3122W        W21976  17.974  12.736   3.870 -0.5657  0.1486  0.0455
 3123W        W21977  12.990   3.996  11.854 -0.0441 -0.1034  0.3908
 3124W        W21978   3.607  11.274   4.694  0.2857 -0.1889  0.1377
 3125W        W21979   1.879  16.458  14.810  0.1312 -0.0196  0.2212
 3126W        W21980  15.691   1.016  12.636  0.0001  0.2150 -0.1720
 3127W        W21981  15.151  15.236  12.785 -0.0458 -0.4604 -0.0607
 3128W        W21982   2.171   3.562   3.248 -0.1524  0.0121 -0.1139
 3129W        W21983   8.737   3.184  11.953  0.1212 -0.2023  0.3580
 3130W        W21984  15.267  10.041  11.805  0.2073  0.0446 -0.0332
 3131W        W21985  15.081  11.882  11.074  0.1238 -0.1936  0.0273
 3132W        W21986  10.356   9.575   2.713 -0.1276  0.0375  0.1691
 3133W        W21987  15.498  17.221  15.058  0.1498 -0.1573  0.0597
 3134W        W21988   7.166   2.062  12.545  0.1778 -0.1467  0.2444
 3135W        W21989   2.622  12.902   1.929  0.2828 -0.2003  0.0190
 3136W        W21990  16.806  10.038  11.864  0.1042  0.2784  0.1460
 3137W        W21991   5.772   9.822  13.329 -0.3249 -0.1515  0.1456
 3138W        W21992   0.402   9.858   0.385 -0.1171 -0.0155  0.1564
 3139W        W21993  13.086  18.071   4.087 -0.0521 -0.0318 -0.0943
 3140W        W21994  16.443   6.131   2.048  0.6381  0.3004 -0.1235
 3141W        W21995   4.070   0.988  11.850  0.2646  0.1432  0.2672
 3142W        W21996   4.530   9.518  14.497 -0.2536  0.0770 -0.1960
 3143W        W21997   9.008   4.403  15.068 -0.0885  0.2046 -0.1559
 3144W        W21998   5.331  10.770   2.942  0.1802 -0.2043 -0.1951
 3145W        W21999   9.482   5.124  15.108 -0.1289 -0.1805  0.2596
 3146W        W22000  14.247  17.635   1.891 -0.0200  0.1488 -0.1827
 3147W        W22001  15.952   9.934   1.921 -0.2715 -0.3137  0.1057
 3148W        W22002   4.810   5.823   2.627  0.0963  0.1501  0.2394
 3149W        W22003   5.833   9.669   0.651  0.1077  0.0388  0.0554
 3150W        W22004   4.428  17.003  13.359 -0.1558  0.0317 -0.1662
 3151W        W22005  12.188   7.659   2.576  0.1539 -0.1898  0.0998
 3152W        W22006  16.288   1.337   0.013 -0.1637  0.1371 -0.1759
 3153W        W22007  11.239   1.357   3.318 -0.2766 -0.3064  0.0351
 3154W        W22008   3.726   0.989   1.481 -0.1574  0.3244  0.2458
 3155W        W22009  15.263   2.920   3.288  0.4019 -0.0548 -0.0078
 3156W        W22010  13.915  12.111  14.311 -0.2644 -0.0570 -0.2323
 3157W        W22011   5.429   3.326  12.035  0.0317  0.0885  0.2093
 3158W        W22012  14.827   2.320   0.359 -0.2134 -0.0195 -0.1816
 3159W        W22013   9.085   5.282  11.161  0.0974 -0.1666 -0.1408
 3160W        W22014   2.706  16.423   0.286  0.1128 -0.2750 -0.1727
 3161W        W22015   8.505  18.636  13.553 -0.1350 -0.0637  0.0088
 3162W        W22016  13.220   1.141  13.207 -0.0906 -0.0700  0.1568
 3163W        W22017   3.661   5.849   4.588 -0.0256  0.1902 -0.0849
 3164W        W22018  15.833   5.777  13.758  0.1932  0.0458  0.0927
 3165W        W22019  11.101   3.559   0.886  0.1740 -0.1914  0.1404
 3166W        W22020  13.980   4.702   2.365  0.2328  0.1419 -0.4038
 3167W        W22021   7.694   5.025  13.543  0.0669 -0.0023 -0.0875
 3168W        W22022   3.890  14.100  12.098 -0.0327 -0.1078 -0.0885
 3169W        W22023   0.758  18.234   3.311 -0.0289  0.2713 -0.0421
 3170W        W22024   4.082  16.050  13.651 -0.0899 -0.0772  0.2228
 3171W        W22025  10.757  17.423  11.129 -0.2892 -0.2115  0.0910
 3172W        W22026   5.463  13.216   0.507 -0.1839 -0.1879  0.0524
 3173W        W22027   1.510   9.329  12.847  0.1658  0.0624  0.2558
 3174W        W22028   1.917   8.784   3.727  0.0927 -0.0614  0.1779
 3175W        W22029  11.626   1.476   1.461  0.3624 -0.0578 -0.1505
 3176W        W22030   2.570  11.948  14.518 -0.0727  0.2315  0.0123
 3177W        W22031   2.925  17.699  14.064  0.2195  0.1087  0.3091
 3178W        W22032   1.787  12.577   2.552 -0.1938  0.0525  0.2339
 3179W        W22033  18.457  17.970   4.259  0.2845  0.0182 -0.0067
 3180W        W22034   7.292  10.910   1.096 -0.0728 -0.1713 -0.3793
 3181W        W22035  15.964   5.370   3.994  0.2611 -0.0088 -0.1783
 3182W        W22036   4.612   4.211   3.169 -0.1640  0.0173  0.1340
 3183W        W22037  17.321   3.065  13.629 -0.0927 -0.1148 -0.0719
 3184W        W22038  13.403   0.331  10.147 -0.1719 -0.1053 -0.0694
 3185W        W22039   8.681  16.904   4.143 -0.0182  0.3138 -0.1473
 3186W        W22040   4.261   1.481   3.271 -0.1631 -0.0790 -0.0262
 3187W        W22041  16.585   9.925  13.136  0.4235  0.1832 -0.0288
 3188W        W22042   6.515  14.664   2.031  0.0471 -0.1308  0.1338
 3189W        W22043  18.643  12.031  14.673  0.1120  0.1216 -0.1121
 3190W        W22044  16.475   1.309   0.570 -0.0948 -0.1298  0.2276
 3191W        W22045   9.002   1.229   2.255  0.0526 -0.1203  0.0351
 3192W        W22046  17.148   5.485   4.164 -0.3261  0.1102  0.1890
 3193W        W22047   0.026   6.862   1.226 -0.2320  0.0103 -0.2323
 3194W        W22048   0.297  16.640   1.476  0.2444 -0.0258 -0.1839
 3195W        W22049   9.473   8.982   3.178  0.0097  0.2360 -0.2278
 3196W        W22050   2.901   3.906  14.106  0.1785 -0.2970  0.0533
 3197W        W22051  14.340   8.265  10.875  0.3769  0.0051 -0.0335
 3198W        W22052  15.518   2.845   1.104 -0.2432 -0.2030  0.1528
 3199W        W22053   3.793   3.354   2.578 -0.1059 -0.4950 -0.1539
 3200W        W22054   5.542   3.592   2.664  0.1562  0.0067 -0.2923
 3201W        W22055  14.681  14.820   1.978 -0.0756 -0.1061 -0.1147
 3202W        W22056   0.850  17.851  11.745 -0.1345 -0.2214  0.0994
 3203W        W22057   8.791  12.398  12.918 -0.1128  0.0338  0.4400
 3204W        W22058   1.110  12.849   9.571  0.0490  0.0222 -0.0490
 3205W        W22059  14.965   8.081  13.201  0.0419  0.1645  0.0497
 3206W        W22060  14.705  10.030   2.045 -0.0353  0.0186  0.2860
 3207W        W22061  11.487   0.717  10.934 -0.2235  0.2535  0.5826
 3208W        W22062   0.825  10.764   1.240 -0.0959  0.0238  0.1835
 3209W        W22063  10.351  12.480   3.389 -0.1051 -0.1983  0.0035
 3210W        W22064  18.757  18.314   0.884 -0.1411  0.0972 -0.1741
 3211W        W22065  17.241  17.306  12.448 -0.4794  0.2814 -0.0591
 3212W        W22066   0.717   8.984  11.096 -0.2009 -0.3958  0.1080
 3213W        W22067   2.287  17.915   1.686 -0.3078  0.1158  0.0459
 3214W        W22068   1.597  17.581  14.312 -0.2508 -0.3988 -0.0989
 3215W        W22069   9.189   8.049  13.218 -0.1446  0.2784  0.1959
 3216W        W22070  18.691   7.940  13.883  0.0743  0.3107 -0.3152
 3217W        W22071  18.422  17.372   1.735  0.3148  0.1332  0.0119
 3218W        W22072   1.589   0.399   2.864 -0.1150  0.0236 -0.0233
 3219W        W22073   4.479   2.725   1.988 -0.0193 -0.0424  0.0687
 3220W        W22074  10.442   8.796   2.311 -0.1364  0.0636 -0.0574
 3221W        W22075   5.674   4.940   2.850  0.1138  0.0891 -0.1177
 3222W        W22076   4.191  13.270  10.585 -0.2325  0.0357 -0.0829
 3223W        W22077   0.923  12.831  11.038  0.2033  0.3698 -0.0315
 3224W        W22078  17.320  16.648  14.341  0.0092  0.0287  0.0729
 3225W        W22079   6.183  15.088   2.139 -0.1295  0.0277 -0.1059
 3226W        W22080  10.027   9.618   3.673  0.4397 -0.1132  0.1475
 3227W        W22081   6.972   3.782  12.914  0.0503  0.1291 -0.1834
 3228W        W22082  12.408   8.146   1.200 -0.0473 -0.2340  0.1725
 3229W        W22083   4.880   9.481  14.888  0.2531  0.0369  0.0130
 3230W        W22084   1.597  10.477  12.010 -0.0608  0.0819 -0.2617
 3231W        W22085  11.221   2.358  11.125 -0.2271 -0.0215  0.0314
 3232W        W22086   6.162   2.059   1.293 -0.1219 -0.2743  0.0698
 3233W        W22087  12.124  14.747   2.830 -0.0420  0.0161 -0.1596
 3234W        W22088  15.223  10.138  10.044 -0.0033 -0.0320  0.0572
 3235W        W22089  12.570   3.135  12.935  0.3606 -0.0580  0.0368
 3236W        W22090   4.357   6.421   1.564  0.2495  0.0883  0.2069
 3237W        W22091   8.308  12.626  11.797 -0.0565 -0.1550  0.0116
 3238W        W22092   7.736   8.248  13.375 -0.1011  0.0847 -0.1703
 3239W        W22093   2.209  16.429   2.496  0.1091  0.1793  0.1040
 3240W        W22094  17.007   6.524  11.222 -0.2593 -0.0561  0.1245
 3241W        W22095  14.979   5.056   3.742 -0.1304 -0.0636  0.0460
 3242W        W22096  16.229  10.848   3.290  0.0668 -0.2233 -0.0370
 3243W        W22097  18.018   1.381   0.584 -0.3716 -0.2516 -0.1070
 3244W        W22098  12.673  12.580  13.456  0.0844 -0.1162 -0.3130
 3245W        W22099  17.038   0.959   4.156  0.0554 -0.5206 -0.2342
 3246W        W22100   0.230  10.348   1.971  0.1182  0.0574  0.3443
 3247W        W22101   5.927  16.069   3.914 -0.1657 -0.0949  0.2489
 3248W        W22102  15.295   8.766   5.056  0.0280 -0.2570  0.2504
 3249W        W22103  15.344   2.459  10.944  0.0055  0.0416 -0.1370
 3250W        W22104   0.386   6.022  11.542  0.1034  0.1608  0.2586
 3251W        W22105  15.152  12.900   3.233 -0.0153  0.1569  0.0253
 3252W        W22106  15.660  10.805   2.533 -0.2024  0.1492 -0.1929
 3253W        W22107   0.189  10.123   1.181 -0.1372 -0.1963 -0.1891
 3254W        W22108   7.919   9.844  13.395  0.1553 -0.0273 -0.2307
 3255W        W22109  14.319  17.238   2.703 -0.1025 -0.2876  0.1250
 3256W        W22110  15.416   3.850  12.376 -0.0405  0.0615 -0.0211
 3257W        W22111   0.618   9.864   2.481 -0.0740  0.0432 -0.0978
 3258W        W22112  11.738   3.098  14.977  0.0958  0.1133 -0.3159
 3259W        W22113   4.663  13.755   2.085  0.0312 -0.0730 -0.2101
 3260W        W22114  15.676   8.302   1.187  0.1622 -0.2884 -0.0498
 3261W        W22115   5.028  18.300  13.663 -0.2397  0.4173 -0.0604
 3262W        W22116  10.760  11.698   3.058 -0.0425 -0.2757 -0.1524
 3263W        W22117  13.384  10.355   1.933  0.4427  0.1167 -0.0586
 3264W        W22118  14.152   5.847   0.799  0.1074 -0.1988  0.0325
 3265W        W22119  11.388  17.660   3.858 -0.0990  0.2377  0.1396
 3266W        W22120   7.931  14.811  11.784 -0.0157 -0.3365 -0.3138
 3267W        W22121  14.354  12.376   3.375 -0.2253 -0.2800  0.0750
 3268W        W22122  16.529   0.395   2.542  0.0456 -0.3494  0.1930
 3269W        W22123  15.069  11.826   4.903 -0.0551  0.0443 -0.1003
 3270W        W22124  10.636  12.976  13.932 -0.3950 -0.0120  0.3922
 3271W        W22125  15.208   6.101   4.177  0.3193 -0.0865 -0.2735
 3272W        W22126   5.774  12.523  14.449  0.1802  0.2832  0.2268
 3273W        W22127   2.300   2.100   2.094 -0.0913  0.2445  0.0277
 3274W        W22128   2.305   6.800  13.826 -0.2688  0.2792 -0.0223
 3275W        W22129  12.072   7.254  11.713  0.0773  0.0041 -0.1849
 3276W        W22130   4.957  18.529   2.917  0.4363  0.1472  0.1443
 3277W        W22131   9.839   9.632   2.809 -0.2196 -0.0287 -0.0925
 3278W        W22132   6.409  17.583  14.422 -0.1195  0.3156  0.0085
 3279W        W22133   4.599   9.695  11.766  0.0703 -0.2579  0.1234
 3280W        W22134  16.955   8.607  12.398  0.0461 -0.4788 -0.3107
 3281W        W22135  10.867  13.863  12.542  0.0062  0.2551 -0.0316
 3282W        W22136  12.585  18.446   2.653 -0.2609  0.1914  0.0540
 3283W        W22137   4.006   7.292   0.785 -0.3772 -0.1042 -0.2899
 3284W        W22138  10.503   7.429  10.892  0.0652  0.0230 -0.0497
 3285W        W22139  13.460  10.829   1.848  0.0159 -0.0992  0.0229
 3286W        W22140   7.591   9.809   0.121 -0.2644 -0.0218  0.2751
 3287W        W22141   2.134   6.931   0.046 -0.0006 -0.1753 -0.1335
 3288W        W22142   7.581   2.275  13.414 -0.0850 -0.1435  0.4414
 3289W        W22143  14.363   9.382   0.861 -0.1784 -0.0565  0.1528
 3290W        W22144   6.125  16.553  13.648 -0.0123 -0.2450  0.1982
 3291W        W22145  10.503   9.512  11.594  0.3108  0.2034 -0.0310
 3292W        W22146  15.240  15.905   1.068  0.4211 -0.1394  0.0805
 3293W        W22147   6.617   5.922   1.679  0.3117 -0.0964 -0.1122
 3294W        W22148   6.085  17.166   1.176  0.0275  0.1907 -0.2611
 3295W        W22149   5.579   1.898   4.163  0.0402  0.1627 -0.1129
 3296W        W22150  10.692   0.434  10.679  0.0763  0.1267 -0.5018
 3297W        W22151   6.699  15.406   5.365  0.0191 -0.2512  0.3206
 3298W        W22152  16.265   2.492   4.091 -0.0853 -0.1286 -0.0136
 3299W        W22153  17.543   7.310  12.362 -0.1941  0.2198 -0.2209
 3300W        W22154  13.849  18.462  13.830 -0.2442 -0.0811 -0.4156
 3301W        W22155  16.305  10.702  12.592  0.0800 -0.0456 -0.2032
 3302W        W22156   7.264   4.292   0.623  0.1852  0.0726 -0.0119
 3303W        W22157  11.912   4.976  13.198  0.1494 -0.1046 -0.0604
 3304W        W22158   7.843   9.593  12.620 -0.1421  0.1865  0.2725
 3305W        W22159   7.044   8.431   3.443  0.1930  0.2719 -0.0249
 3306W        W22160  14.696   5.120   2.059  0.3532 -0.0721  0.0287
 3307W        W22161  17.602  10.273  12.306 -0.0410 -0.2512  0.0100
 3308W        W22162   7.258  14.414   1.239  0.0457 -0.2996 -0.1014
 3309W        W22163  18.435  11.972   3.840 -0.0585  0.0314  0.0954
 3310W        W22164  14.886  15.392   2.767  0.1232  0.0030 -0.0419
 3311W        W22165  16.975  18.334  11.119  0.0011 -0.1635 -0.0860
 3312W        W22166   9.981  15.006   1.170 -0.1236  0.1146 -0.2216
 3313W        W22167  10.321  16.058   2.095 -0.3271 -0.1976  0.0084
 3314W        W22168   4.905   5.453  12.144  0.1258  0.2889  0.2388
 3315W        W22169  18.035   7.529  13.104 -0.1336 -0.2310  0.1298
 3316W        W22170  11.824   0.112   1.147 -0.0094 -0.1527 -0.1138
 3317W        W22171  16.821  17.401   0.123 -0.3441  0.1763 -0.1510
 3318W        W22172  15.494  16.277   4.245  0.2239  0.0999  0.0171
 3319W        W22173  13.105  17.894  11.245  0.0248 -0.0574  0.3761
 3320W        W22174  10.916  12.421  12.729  0.1019  0.4717 -0.2484
 3321W        W22175   4.097   8.432   3.306  0.0456  0.0104  0.0321
 3322W        W22176  18.314  16.315   3.583 -0.1097 -0.2834 -0.0834
 3323W        W22177   0.943  18.502  14.588  0.1258  0.0233  0.0416
 3324W        W22178  14.881   9.220   3.181  0.2727 -0.1613 -0.2338
 3325W        W22179  10.853  11.599  11.247 -0.0148 -0.0506  0.3128
 3326W        W22180   8.046  18.717  13.005 -0.0383 -0.4171 -0.2395
 3327W        W22181   9.396   3.676   2.965  0.4091 -0.0266 -0.0188
 3328W        W22182  14.488   4.711   3.138  0.0540  0.1231  0.0329
 3329W        W22183  12.312  16.647  14.890 -0.0958 -0.0058 -0.1490
 3330W        W22184   1.731  12.565   3.076  0.1362 -0.1258  0.1785
 3331W        W22185  15.047   3.535   0.541 -0.0589 -0.0971  0.2063
 3332W        W22186  15.779   4.070   9.788 -0.0057  0.0117 -0.2758
 3333W        W22187  16.517  18.553   3.828  0.0620 -0.2165 -0.0819
 3334W        W22188   1.822   6.553   3.547 -0.0440  0.1931  0.0885
 3335W        W22189   6.083  16.591   3.940  0.0126 -0.0132  0.2384
 3336W        W22190  17.813  16.899  14.291  0.0844 -0.2842 -0.0154
 3337W        W22191   9.921   4.223  12.926 -0.1534  0.0056  0.1614
 3338W        W22192   1.375   0.718  14.944  0.1938 -0.4044  0.1077
 3339W        W22193  12.694   1.479  13.150  0.2375 -0.0135  0.0223
 3340W        W22194   9.850   7.575  14.895 -0.1002 -0.2386 -0.0408
 3341W        W22195  18.474   0.085  11.780 -0.3273 -0.2586  0.0747
 3342W        W22196  17.685  12.930   5.222 -0.0282 -0.0868  0.0117
 3343W        W22197  17.187   3.135  14.457  0.0297  0.0029  0.4096
 3344W        W22198   8.558   2.594   3.107  0.1809  0.0520  0.2603
 3345W        W22199   9.648  18.284   2.315 -0.3773 -0.2867 -0.1480
 3346W        W22200   2.418   2.576   3.889  0.4377 -0.0258 -0.0436
 3347W        W22201   5.495  11.145  14.386 -0.0426  0.0378 -0.0445
 3348W        W22202   9.372  17.103   1.290 -0.1913 -0.1982 -0.0935
 3349W        W22203  15.508   3.083  11.391  0.1675  0.0740 -0.1904
 3350W        W22204   5.146   9.617   4.108  0.0438  0.3370  0.2604
 3351W        W22205  15.851  15.852   1.366  0.4703 -0.4851 -0.1665
 3352W        W22206  13.545   9.967   0.110 -0.1661 -0.1116  0.1906
 3353W        W22207   0.916  12.119   1.383 -0.1465 -0.2292 -0.2439
 3354W        W22208  11.900   7.703   2.979  0.1571 -0.0992 -0.6016
 3355W        W22209   9.775  14.935   2.291  0.1071 -0.0416  0.0576
 3356W        W22210  18.323  10.443  13.906  0.3100  0.2440 -0.0192
 3357W        W22211  13.067   9.282   0.043 -0.0964 -0.1915  0.0228
 3358W        W22212   1.644   2.637  12.102  0.0608  0.1790  0.2162
 3359W        W22213   5.673  16.878   1.407 -0.0350  0.3921 -0.1058
 3360W        W22214  12.655   1.990  13.273 -0.2056  0.1939 -0.1493
 3361W        W22215   3.052   8.442   2.651 -0.0497  0.3038 -0.0509
 3362W        W22216   7.478  13.782   2.955  0.1525  0.1307 -0.3438
 3363W        W22217   9.409  11.628  12.010 -0.0475  0.4174  0.1251
 3364W        W22218   8.759  18.312   0.842 -0.1395 -0.1894 -0.0114
 3365W        W22219   5.744   4.577   4.305  0.0015  0.0349  0.4900
 3366W        W22220  13.072   0.865   3.957  0.0453 -0.0949 -0.0950
 3367W        W22221  10.520   7.716  10.485 -0.1360 -0.0891  0.0085
 3368W        W22222   8.159   8.992   2.720  0.0062  0.0662 -0.2343
 3369W        W22223   8.178   0.995   4.126 -0.1540 -0.1392  0.0591
 3370W        W22224   7.487   1.866   4.176 -0.2769 -0.1015  0.2576
 3371W        W22225  13.108  17.729  14.462  0.1866  0.0197  0.1537
 3372W        W22226  10.320   2.419  14.755  0.1967  0.1804 -0.0586
 3373W        W22227   2.570   6.190  13.221 -0.0522 -0.2502  0.3727
 3374W        W22228   4.296  13.900  15.041 -0.1085  0.2386 -0.2193
 3375W        W22229   3.067   5.984  12.658  0.3055 -0.1323  0.0325
 3376W        W22230  12.278  10.950  10.754 -0.1266  0.2069  0.1262
 3377W        W22231  13.144   9.264  14.669 -0.2342 -0.0944  0.1479
 3378W        W22232   1.836   5.687  11.383  0.2481 -0.0045  0.0748
 3379W        W22233  12.573  13.870  13.270 -0.0053 -0.1351 -0.0458
 3380W        W22234  10.350  11.018   3.043  0.0640  0.0131 -0.0718
 3381W        W22235   6.940   8.616  10.716 -0.1473  0.1340 -0.2853
 3382W        W22236  17.470  11.409  10.517  0.2456  0.0513  0.1289
 3383W        W22237  17.773   3.656  12.539  0.1103 -0.0755 -0.1078
 3384W        W22238  17.332   5.541  11.078  0.0728 -0.2490 -0.4175
 3385W        W22239   8.877   5.375  14.356  0.0064 -0.1071 -0.1359
 3386W        W22240  16.442  15.145  12.495 -0.0781  0.0913 -0.0584
 3387W        W22241  15.457  13.532   1.198  0.0897  0.0396  0.1971
 3388W        W22242   0.104  13.679   4.123  0.0951 -0.0432  0.1039
 3389W        W22243  16.514  16.822   0.871  0.2393  0.1936 -0.1231
 3390W        W22244  14.545  13.529   4.947 -0.3641 -0.2279 -0.0566
 3391W        W22245   1.484  10.761   3.231 -0.0044 -0.2866  0.0370
 3392W        W22246   9.164   6.509   0.762 -0.0641 -0.1720 -0.0576
 3393W        W22247   6.695  12.839   2.753 -0.2489 -0.0122 -0.0549
 3394W        W22248   8.023   1.527   3.929  0.2703  0.2090  0.1124
 3395W        W22249  11.069  16.506  11.965 -0.0150  0.0041  0.3217
 3396W        W22250  11.239   6.230  12.056  0.2773  0.1521  0.0366
 3397W        W22251   0.231   2.706  12.375 -0.3626  0.0618 -0.0272
 3398W        W22252   4.012   9.310  12.294  0.0207  0.0094 -0.1250
 3399W        W22253   2.035  17.500   4.450 -0.0706  0.0997  0.1577
 3400W        W22254  16.730   5.740  14.166  0.1026 -0.3439 -0.0011
 3401W        W22255   8.412  18.216  12.205  0.0392  0.0464 -0.0353
 3402W        W22256   0.358   4.078   0.333 -0.2107  0.0238 -0.1551
 3403W        W22257  13.915  18.668   2.698  0.0379 -0.2886 -0.1834
 3404W        W22258   7.853  17.715   3.174  0.0341 -0.0555 -0.0135
 3405W        W22259  16.368  13.212   4.535 -0.0147 -0.1517  0.2469
 3406W        W22260   9.748   1.383  14.799 -0.0429  0.0322  0.0038
 3407W        W22261  10.838  17.641   0.709 -0.1614  0.0648 -0.3076
 3408W        W22262   0.496   0.357  15.111 -0.1906 -0.1242 -0.3053
 3409W        W22263   1.047  12.017   0.396 -0.2601  0.0157  0.0226
 3410W        W22264   8.915   1.720   3.877 -0.0860  0.0053  0.0140
 3411W        W22265   4.745   9.862  12.362 -0.1470  0.2456 -0.0429
 3412W        W22266  16.408   7.731  10.431  0.2397  0.0212  0.0267
 3413W        W22267   3.040   6.877   1.205 -0.1658  0.1251  0.2716
 3414W        W22268   9.904   9.676   4.745 -0.0743 -0.0430 -0.0411
 3415W        W22269  16.763   5.228  14.266 -0.0115 -0.0352  0.0186
 3416W        W22270   4.348   5.220   2.319 -0.0050 -0.0908 -0.4141
 3417W        W22271  10.519   0.482   0.861  0.1152  0.0171 -0.0078
 3418W        W22272  10.572  11.803   9.658  0.0191  0.0671  0.1483
 3419W        W22273  15.449   5.229  12.624  0.2031 -0.3058  0.3998
 3420W        W22274   8.467   2.153  12.168  0.1084 -0.1024 -0.0112
 3421W        W22275   4.043   3.154  14.187 -0.0455 -0.1927  0.1442
 3422W        W22276  17.551  17.519  13.628  0.1053  0.2361 -0.2413
 3423W        W22277  18.466  12.818  12.372  0.0261 -0.2613 -0.0634
 3424W        W22278  15.799   0.576   4.061  0.1971 -0.3959 -0.0544
 3425W        W22279   2.280  17.084   1.741  0.0702  0.0135 -0.2388
 3426W        W22280  10.782  10.115  14.135 -0.3095 -0.1735 -0.0202
 3427W        W22281   6.754  14.859   5.316  0.2087 -0.0535  0.2237
 3428W        W22282   2.839  15.387   2.289  0.1918 -0.0406  0.1223
 3429W        W22283  14.135  15.778   4.046 -0.0566 -0.0211 -0.3736
 3430W        W22284   8.897   5.179   1.398  0.1314  0.1504 -0.0650
 3431W        W22285  12.104   7.136  13.287 -0.0832  0.0308 -0.0995
 3432W        W22286  17.001   5.755  11.491  0.2456  0.0580  0.4601
 3433W        W22287   9.869   2.408   3.278 -0.0791 -0.1416 -0.1369
 3434W        W22288  14.920   2.887  14.284  0.0074  0.0495 -0.2912
 3435W        W22289  12.536   2.752   1.292 -0.0293  0.1477  0.2256
 3436W        W22290   1.354  17.188  11.331  0.0455  0.2985  0.2844
 3437W        W22291   1.791  15.719  12.513 -0.0174 -0.1339  0.2927
 3438W        W22292   3.420   3.564  11.918 -0.0524 -0.2587 -0.1314
 3439W        W22293   6.941  13.407   0.140 -0.3551 -0.0077 -0.1567
 3440W        W22294   3.199   6.517  10.859 -0.0423 -0.2444  0.0693
 3441W        W22295  13.573   4.859  14.671 -0.1030 -0.0503  0.1210
 3442W        W22296   6.676   2.065   5.766  0.0938  0.0086 -0.0309
 3443W        W22297  12.007  16.580   3.563 -0.2645 -0.2090  0.3495
 3444W        W22298   5.320   7.610  13.057  0.3419 -0.0708 -0.1209
 3445W        W22299   6.536   4.323  11.711  0.1104 -0.0630 -0.3135
 3446W        W22300   2.956  18.329  12.693 -0.0092  0.0981 -0.0180
 3447W        W22301  17.441   5.477  13.226  0.1097 -0.0644 -0.4813
 3448W        W22302   5.577   6.250  13.433 -0.0341  0.1136 -0.1681
 3449W        W22303   6.657  11.674   0.625 -0.0735 -0.0148 -0.1070
 3450W        W22304  14.527   8.413  12.397 -0.3763  0.0457 -0.3133
 3451W        W22305   2.767   1.737  13.153 -0.1934 -0.0438  0.0251
 3452W        W22306   1.341   4.599   0.425 -0.1106  0.1202 -0.4421
 3453W        W22307  12.757  10.670  13.325  0.2481 -0.1177  0.0664
 3454W        W22308  13.098  18.678  11.782  0.2090 -0.1601  0.0142
 3455W        W22309   8.349   7.154   0.587  0.2791  0.1604 -0.1871
 3456W        W22310   4.500   4.859   3.268  0.0485 -0.1037  0.1672
 3457W        W22311   8.862  10.246   2.132  0.0187  0.2541 -0.2504
 3458W        W22312   4.998  16.086  10.990  0.0422 -0.1261 -0.1403
 3459W        W22313  15.277  17.209  14.249 -0.1100  0.0878 -0.1745
 3460W        W22314   8.118  13.018  11.469  0.2982 -0.2477  0.0392
 3461W        W22315  16.163  14.799   4.015  0.1154  0.0928  0.2065
 3462W        W22316  18.598  14.308  12.613  0.1702  0.0792  0.1947
 3463W        W22317   3.522   1.955  14.081 -0.1556 -0.1197 -0.1197
 3464W        W22318   8.830  18.592  11.561  0.0063  0.1515 -0.1183
 3465W        W22319  13.416  11.147  12.937 -0.1585 -0.2177  0.0737
 3466W        W22320   9.027   3.395  14.054 -0.2470 -0.2402  0.0686
 3467W        W22321  13.360  12.304   3.676  0.3132 -0.1600 -0.1703
 3468W        W22322   3.884  13.651  13.191 -0.1787  0.3847 -0.0244
 3469W        W22323   1.388  11.626  13.526 -0.1487  0.1397  0.0554
 3470W        W22324   9.234   3.933  14.299  0.0519 -0.1484  0.1571
 3471W        W22325  13.431   8.734  12.257 -0.0831 -0.0632 -0.0393
 3472W        W22326  17.129  15.824  14.139 -0.3886 -0.2595 -0.0134
 3473W        W22327  13.446  18.247  12.421 -0.3265 -0.1823 -0.1998
 3474W        W22328  17.917   3.643   0.452  0.0432  0.2008  0.2598
 3475W        W22329   6.327  13.165  13.434 -0.0828 -0.5274 -0.2284
 3476W        W22330  16.026  14.488  14.641 -0.0411 -0.0905 -0.0443
 3477W        W22331   5.479  14.725   1.353  0.0707  0.1073 -0.1037
 3478W        W22332   6.635   0.076  12.616 -0.0844 -0.3206 -0.0671
 3479W        W22333  15.056   5.086  13.764  0.0417 -0.0321 -0.0559
 3480W        W22334  18.293   7.418  10.689  0.1343 -0.0024  0.0871
 3481W        W22335   3.667  10.125   3.083 -0.0610  0.3700  0.3049
 3482W        W22336  13.319   7.943   0.645  0.1326 -0.3190 -0.1174
 3483W        W22337  13.301   5.396   1.542 -0.3726  0.1181  0.0980
 3484W        W22338  15.604   1.061   4.017  0.0378  0.0104 -0.0936
 3485W        W22339   4.509  18.403  11.135  0.2543 -0.0415 -0.1021
 3486W        W22340   8.272   0.595  11.191  0.4881 -0.1607 -0.1583
 3487W        W22341   8.617   0.523  14.851  0.2448  0.0520  0.3830
 3488W        W22342  12.121  15.987  13.127 -0.1008  0.1927 -0.1908
 3489W        W22343   1.669   2.222   0.776 -0.2034 -0.0793 -0.2124
 3490W        W22344   4.424  16.322   1.195 -0.0419  0.0664  0.1690
 3491W        W22345  14.162  17.708  13.222 -0.0946 -0.0288  0.1926
 3492W        W22346   4.392  11.810  11.686 -0.0217 -0.0196  0.0042
 3493W        W22347  14.586   2.573  12.594 -0.0532 -0.2702 -0.0235
 3494W        W22348  17.473  11.622  12.667  0.0566  0.0463 -0.1169
 3495W        W22349   8.894   1.644   0.549 -0.1557 -0.2833 -0.1702
 3496W        W22350  18.050  12.425   2.804 -0.1941  0.0537  0.1257
 3497W        W22351   8.969   9.267   0.393 -0.0175  0.1737 -0.0288
 3498W        W22352   6.388   3.277  14.432  0.1931  0.4155  0.1438
 3499W        W22353  10.420   4.912  13.498 -0.0240 -0.1145  0.1210
 3500W        W22354  12.890   4.776  12.912  0.1733  0.1552  0.1651
 3501W        W22355  14.269  11.047   2.963 -0.0419  0.0306 -0.1688
 3502W        W22356  11.235   2.825   2.449 -0.3788  0.1933 -0.1758
 3503W        W22357  14.722   1.822   0.025 -0.0422  0.0300  0.1713
 3504W        W22358  18.355  18.473   4.046  0.0359  0.1915  0.1175
 3505W        W22359  12.546  14.882   0.030  0.0323 -0.3005 -0.1401
 3506W        W22360   3.040  15.363   0.442 -0.0437 -0.0453  0.1814
 3507W        W22361  14.536   6.985   3.143 -0.0174  0.0753 -0.2548
 3508W        W22362   1.714   9.078  10.940  0.0942  0.0118  0.1664
 3509W        W22363  17.222  10.886  12.841  0.0861 -0.1167 -0.2700
 3510W        W22364   6.115  16.534   1.302  0.0342 -0.0848  0.2579
 3511W        W22365   8.757   3.947   2.843 -0.1233 -0.0274  0.0351
 3512W        W22366   9.400   3.635   2.104 -0.0052  0.0269 -0.0807
 3513W        W22367  16.690   1.930   5.363  0.1184  0.1861 -0.1242
 3514W        W22368  14.140   8.754  12.457 -0.0388  0.0582 -0.0901
 3515W        W22369  15.745  12.160   2.569  0.0891 -0.2062  0.2220
 3516W        W22370   3.769   9.310   0.061 -0.2997  0.0507 -0.1315
 3517W        W22371   7.379   0.613   0.960 -0.3441  0.1194  0.0921
 3518W        W22372   3.830  16.771   3.475  0.1810 -0.0771  0.0455
 3519W        W22373  11.805  14.913  13.902 -0.0586  0.3367 -0.3905
 3520W        W22374  11.289   3.395  14.975 -0.0757  0.1443  0.0629
 3521W        W22375   8.893   5.461  13.341 -0.0606  0.0301  0.1434
 3522W        W22376   5.606   9.460  14.257 -0.0667 -0.0149  0.1752
 3523W        W22377  15.593  14.152  13.350 -0.0505 -0.1567  0.0357
 3524W        W22378  18.415  16.485   9.823 -0.1591 -0.0260 -0.1337
 3525W        W22379  18.653   4.217   3.508  0.3828  0.0638 -0.1042
 3526W        W22380   4.406   1.416   3.778 -0.1662 -0.2747  0.1439
 3527W        W22381   7.396  14.246   4.723 -0.0273  0.1634 -0.0784
 3528W        W22382   6.545   6.600  11.417 -0.2673  0.0163  0.1693
 3529W        W22383   6.956   5.771   3.655  0.1131  0.2790 -0.3277
 3530W        W22384  14.228   1.990   1.271  0.1972 -0.1589 -0.0190
 3531W        W22385   2.914   9.575  10.925 -0.0784 -0.1822  0.1154
 3532W        W22386   9.598  16.334   1.351 -0.0056 -0.2399 -0.0927
 3533W        W22387   9.389  15.381   1.801 -0.0693 -0.3078  0.1527
 3534W        W22388   6.019  15.241  11.330 -0.0060 -0.0326 -0.0176
 3535W        W22389   0.731  17.760   2.512 -0.0257 -0.0649 -0.4592
 3536W        W22390  13.144   4.304   2.292  0.0055 -0.2164  0.1630
 3537W        W22391   1.598   7.627   2.765  0.2804  0.2498  0.0449
 3538W        W22392   2.895  13.405   1.234 -0.0150  0.2551 -0.1986
 3539W        W22393  17.674  17.905   0.358  0.1104 -0.1817  0.0095
 3540W        W22394   2.953   1.279   3.019  0.0962 -0.0421 -0.5171
 3541W        W22395  17.467   5.165   1.931  0.1361  0.0485 -0.2464
 3542W        W22396   6.625   1.376   3.560  0.1435 -0.0091  0.0419
 3543W        W22397  12.505  12.994  12.069  0.0997  0.1274 -0.2083
 3544W        W22398   2.254   7.492  11.907 -0.3255  0.2880  0.2249
 3545W        W22399   1.879   0.390  14.179  0.4911  0.0937  0.2066
 3546W        W22400   4.236  11.796   4.542 -0.0379  0.0425  0.0037
 3547W        W22401   3.806  14.040   2.446 -0.0812 -0.3203 -0.1462
 3548W        W22402   8.942   6.609  14.526  0.2867  0.0203 -0.1319
 3549W        W22403   2.664   9.669   1.410  0.0733 -0.2134  0.0264
 3550W        W22404  14.148  16.641   1.599  0.0491 -0.0687 -0.2658
 3551W        W22405   7.969  10.287  11.707 -0.1113 -0.1009 -0.1119
 3552W        W22406   3.951  15.535  13.768 -0.0065 -0.1531 -0.0729
 3553W        W22407  10.141   6.693  11.772  0.0086 -0.1671 -0.2509
 3554W        W22408  14.037   9.126   4.375  0.0658  0.3108  0.2918
 3555W        W22409  18.723  14.762  14.037  0.0687  0.0417 -0.2329
 3556W        W22410  14.994   3.421   2.860 -0.1193 -0.1754 -0.0576
 3557W        W22411  18.394   5.186   2.824  0.1431 -0.0086  0.2122
 3558W        W22412  11.075   8.856   5.326 -0.1261 -0.5087  0.0686
 3559W        W22413  16.873  16.270  12.404  0.1698 -0.0530 -0.2409
 3560W        W22414   7.706  17.205   3.931  0.0232 -0.2196  0.3027
 3561W        W22415   6.608  12.457   2.498  0.0071  0.0862 -0.0735
 3562W        W22416   8.838   9.469  14.625 -0.1283  0.0362 -0.0085
 3563W        W22417   5.324   5.467   3.339  0.4404  0.0061  0.1159
 3564W        W22418  18.169   1.199  11.039 -0.0426  0.0199  0.0070
 3565W        W22419  15.193  17.529   3.070 -0.0699  0.2303  0.0503
 3566W        W22420   9.694   3.652   0.410 -0.4790  0.0657  0.0103
 3567W        W22421   7.835   0.757  14.234  0.0519  0.2250  0.0605
 3568W        W22422   7.026   2.561  14.256  0.1351  0.1133 -0.0864
 3569W        W22423  15.236   7.783  12.833  0.0050  0.0533  0.0519
 3570W        W22424   0.016   3.147   0.629 -0.2214 -0.0179  0.1178
 3571W        W22425   6.159   3.974  11.715  0.0324 -0.3455 -0.3650
 3572W        W22426  17.782   7.176   2.822  0.0001  0.0415  0.1762
 3573W        W22427  16.449   6.544   4.054 -0.0467  0.1790  0.0925
 3574W        W22428  14.912   5.866  12.914  0.2647 -0.0334  0.1099
 3575W        W22429  16.388  16.575   4.282  0.0366  0.0371 -0.1073
 3576W        W22430  10.133   9.138  12.377  0.0133  0.1094 -0.1185
 3577W        W22431   1.177   5.350   2.616 -0.2430 -0.3842 -0.0526
 3578W        W22432   6.533   3.340   1.642  0.1859 -0.1842  0.0179
 3579W        W22433  15.437   3.706  12.895 -0.1711  0.0055  0.2615
 3580W        W22434  14.723  15.102  11.289 -0.0399  0.1776 -0.1309
 3581W        W22435  18.703   7.961  12.031  0.2726  0.2170 -0.0356
 3582W        W22436  13.625   4.814  12.209  0.2980  0.2209  0.2809
 3583W        W22437   9.073  11.452   3.205  0.0900 -0.1201  0.0609
 3584W        W22438  17.069   6.714  13.047 -0.0059  0.0986 -0.0701
 3585W        W22439   3.480   6.902  12.818 -0.1549  0.0136 -0.0617
 3586W        W22440   9.688   4.679   1.317  0.0497  0.0825 -0.0561
 3587W        W22441   4.719   5.994   0.290  0.2480  0.0797  0.2609
 3588W        W22442  11.607   2.363   4.324 -0.0397  0.2556  0.0271
 3589W        W22443  13.899   3.747   2.213  0.0485  0.0693 -0.1491
 3590W        W22444   3.130   4.401   3.798 -0.0780  0.0109 -0.0499
 3591W        W22445  10.052   2.194  11.287  0.0382 -0.0042 -0.0553
 3592W        W22446   4.148  14.942  10.387 -0.2102 -0.1515 -0.1739
 3593W        W22447  16.765  16.787   1.512 -0.0076  0.0096 -0.0509
 3594W        W22448   9.546  10.170  14.900  0.0123  0.1263 -0.0204
 3595W        W22449  18.640  11.207  14.990 -0.2049 -0.0858 -0.4003
 3596W        W22450   6.257  18.644   1.052  0.3318 -0.1099 -0.0570
 3597W        W22451   7.647  17.575  13.883 -0.0290 -0.0406 -0.1752
 3598W        W22452   5.491  12.406   1.822 -0.0647 -0.1108  0.1654
 3599W        W22453  12.934   2.062   0.028  0.2926 -0.0629  0.0657
 3600W        W22454  17.913  13.820   2.355 -0.2132  0.0588  0.2877
 3601W        W22455   7.775   4.335  13.185  0.0670 -0.2747 -0.1557
 3602W        W22456   0.466   7.896   1.859 -0.4118 -0.2271 -0.0507
 3603W        W22457   4.651   3.737   3.397  0.5389  0.2018 -0.4057
 3604W        W22458   7.575   3.708  13.091 -0.2715 -0.1044  0.1410
 3605W        W22459  13.828  14.519  11.460  0.1841  0.1892 -0.4603
 3606W        W22460   1.483  18.625   1.673 -0.1755  0.0965 -0.3026
 3607W        W22461   6.811   2.340   2.086 -0.2179 -0.0224  0.1011
 3608W        W22462   0.707   7.794   0.502 -0.3056 -0.1501 -0.0715
 3609W        W22463  16.488  18.319   3.387 -0.2374 -0.0806 -0.0531
 3610W        W22464   3.253  14.432   3.822  0.4529  0.3800  0.0759
 3611W        W22465   6.393   7.662  12.641  0.1003 -0.0371  0.1313
 3612W        W22466   5.673   4.124   4.522 -0.0172  0.0160 -0.0213
 3613W        W22467  10.500   8.521   4.195 -0.0225  0.3697 -0.1800
 3614W        W22468   3.451  14.357  11.088  0.2914 -0.1175  0.1171
 3615W        W22469   0.897   1.259  14.006 -0.0343  0.0776 -0.1253
 3616W        W22470  16.646  12.935  11.613  0.0258  0.2318  0.1720
 3617W        W22471  12.030   5.993  13.744 -0.1267  0.1684 -0.0466
 3618W        W22472  10.673  15.560   4.212  0.6037 -0.1215  0.2115
 3619W        W22473   2.911   5.947   2.037 -0.0034  0.4556 -0.1409
 3620W        W22474   6.384   1.636   1.527  0.1021  0.1260  0.1286
 3621W        W22475   8.925  15.859  13.447 -0.2386 -0.3193 -0.2959
 3622W        W22476   2.341  13.021  11.472 -0.1898 -0.1286  0.0556
 3623W        W22477   9.333  15.188  11.196 -0.1184 -0.1437  0.0019
 3624W        W22478  10.902   9.715   5.222  0.1349 -0.3216 -0.1298
 3625W        W22479   3.390   3.357  10.868 -0.1613  0.0073  0.1889
 3626W        W22480   4.990   9.749  13.296 -0.1200 -0.1666 -0.1880
 3627W        W22481   9.279  11.901  13.967 -0.0986 -0.0461 -0.0300
 3628W        W22482   3.664  16.610  12.596 -0.1301 -0.2016 -0.1901
 3629W        W22483   1.405   1.019   3.576 -0.0505  0.1260 -0.1007
 3630W        W22484   5.670  18.810   1.129 -0.2545 -0.1084 -0.0812
 3631W        W22485  18.385  17.513  14.060 -0.1479  0.3956  0.1631
 3632W        W22486   3.691  14.373   2.080  0.0656 -0.0519 -0.2399
 3633W        W22487  10.600  14.835   3.675  0.1951 -0.0126 -0.2201
 3634W        W22488   1.225  18.361   0.447  0.0478  0.0220 -0.0364
 3635W        W22489   0.904   3.843   1.543 -0.1654 -0.1647  0.0852
 3636W        W22490   4.098  10.461  14.111 -0.3094  0.2173  0.4054
 3637W        W22491  14.039   7.978   0.002 -0.0995  0.0689 -0.0885
 3638W        W22492   4.865  12.350   2.427  0.0854  0.2923 -0.0793
 3639W        W22493  12.412   8.478   3.300  0.1379  0.1086  0.2312
 3640W        W22494   7.243  14.779   3.123  0.0920  0.1748 -0.0701
 3641W        W22495   7.837  10.310  13.439  0.0651  0.2921 -0.3438
 3642W        W22496   8.365  13.541   2.921  0.0814 -0.0681 -0.2176
 3643W        W22497   9.424   2.160  13.863  0.1102 -0.0053  0.0147
 3644W        W22498  10.265  14.218   2.593  0.0408  0.2598 -0.1410
 3645W        W22499  16.523   0.966  11.561 -0.5412  0.1624  0.1277
 3646W        W22500  11.694  17.753  13.295 -0.1914 -0.1203 -0.0246
 3647W        W22501   1.321   2.709  14.684  0.3467  0.1936 -0.0495
 3648W        W22502   6.160  18.079  11.995 -0.1865  0.0337 -0.1111
 3649W        W22503  13.317   5.521  14.968  0.0854  0.3411 -0.0106
 3650W        W22504   5.129   7.246   4.814  0.1162 -0.0055 -0.0812
 3651W        W22505   0.756   8.490  12.785  0.3705  0.0263 -0.0030
 3652W        W22506   6.833   2.124  14.546  0.0224  0.0486 -0.0051
 3653W        W22507  15.187  13.973  15.070 -0.2099 -0.2805  0.1379
 3654W        W22508   7.336  17.323  12.216  0.1097  0.0743  0.2003
 3655W        W22509   0.153  10.764  11.810  0.0841  0.2013  0.0540
 3656W        W22510   0.617  18.781  14.255  0.1719 -0.2100  0.1282
 3657W        W22511  13.503  11.853   1.879 -0.3423  0.4800  0.2774
 3658W        W22512   3.319   2.600   0.091  0.0001 -0.2201  0.0360
 3659W        W22513   2.712   2.624  14.194 -0.3771 -0.1543 -0.0194
 3660W        W22514   4.098   4.783  13.876  0.0428  0.3701 -0.0118
 3661W        W22515   3.580  18.298   0.335  0.0257 -0.0403  0.0308
 3662W        W22516  15.478  17.210   2.786  0.1787  0.1788 -0.3578
 3663W        W22517   6.878  15.726  12.629  0.0807  0.1227  0.1313
 3664W        W22518   1.589   0.507   0.238 -0.1494  0.2526  0.0709
 3665W        W22519   4.751  17.900  11.403  0.1152  0.0561  0.2085
 3666W        W22520  13.565   9.951  12.986 -0.1782 -0.3470 -0.0313
 3667W        W22521   4.684  11.097  11.595  0.1242  0.0896 -0.2258
 3668W        W22522  18.792  12.328  14.285  0.2542 -0.2283 -0.1993
 3669W        W22523   5.900   0.921  13.577 -0.4303  0.2130  0.1532
 3670W        W22524  11.714  12.717   2.193 -0.0572  0.1635 -0.2804
 3671W        W22525   2.170   4.317  12.081 -0.0454  0.1250 -0.0540
 3672W        W22526   7.412   4.210  14.506  0.0623 -0.0333 -0.1074
 3673W        W22527   4.827  14.417   0.063  0.1943 -0.0092 -0.2175
 3674W        W22528   4.403  17.510  11.388  0.2262 -0.1663  0.0964
 3675W        W22529  11.799  10.723   0.149  0.1438  0.0019 -0.2760
 3676W        W22530   9.666   3.873   4.409  0.2183  0.4762 -0.0478
 3677W        W22531  16.364  17.098  15.063  0.0083  0.0039 -0.4759
 3678W        W22532  16.054   6.184   0.973 -0.0778 -0.4814  0.1976
 3679W        W22533  14.030  14.844  11.802 -0.1510 -0.2778 -0.0429
 3680W        W22534  18.247  18.186   3.408 -0.1849 -0.0169  0.0240
 3681W        W22535   0.403   9.311   2.140 -0.0701 -0.1158  0.1163
 3682W        W22536   5.874   6.942   0.472  0.2817 -0.1778 -0.0105
 3683W        W22537   9.759   5.532  14.663 -0.2312 -0.0889 -0.1712
 3684W        W22538  18.444  18.050  14.091 -0.0927  0.0267 -0.2953
 3685W        W22539  18.168   7.074   1.598  0.2722  0.2404 -0.1506
 3686W        W22540  11.273   3.872  12.235  0.0396  0.3058 -0.2943
 3687W        W22541  10.961   2.366   3.132 -0.0151 -0.2933 -0.1165
 3688W        W22542  14.178  17.777   1.097  0.0584 -0.0137 -0.0582
 3689W        W22543  11.089  18.687  14.272  0.0369 -0.2417  0.1993
 3690W        W22544  15.446   5.382   3.451  0.4079 -0.0775 -0.0307
 3691W        W22545   8.237  17.068   4.040 -0.1955  0.1912  0.3520
 3692W        W22546  10.356   8.663  11.898 -0.0416  0.3128 -0.0433
 3693W        W22547   6.286  12.816  13.090  0.2332  0.0657  0.1460
 3694W        W22548  13.038   8.630  12.640 -0.1992 -0.1302 -0.2475
 3695W        W22549   0.463   4.763  14.699 -0.3064  0.1714  0.1582
 3696W        W22550   7.005   2.175   3.450 -0.1836  0.2977 -0.1483
 3697W        W22551  17.555  15.075  13.918  0.1029  0.2405  0.0253
 3698W        W22552  12.467   1.578   4.063 -0.2018  0.0063 -0.2662
 3699W        W22553  13.988  15.904   2.651  0.1398 -0.1299  0.1360
 3700W        W22554   7.552   0.190   1.851  0.1418 -0.0029 -0.4006
 3701W        W22555  15.957  13.613   2.874 -0.0874  0.0204 -0.1024
 3702W        W22556   6.511   8.670  11.598 -0.0102  0.2548  0.1037
 3703W        W22557  10.433  16.881   3.842 -0.0848 -0.1052 -0.2790
 3704W        W22558   0.919  15.150  12.892  0.0979  0.0127 -0.2419
 3705W        W22559   7.618  17.066  12.572 -0.0400 -0.1154 -0.0630
 3706W        W22560   6.134  18.705  12.724  0.3460  0.2381 -0.0550
 3707W        W22561   2.164  10.547  10.617  0.0353 -0.1649 -0.3437
 3708W        W22562  12.917  13.630  14.736  0.0880 -0.1249  0.2521
 3709W        W22563  16.238   8.824  12.161  0.0522  0.5214 -0.0886
 3710W        W22564   3.406  13.608  13.936  0.2468 -0.0909  0.1430
 3711W        W22565  10.346  10.149  13.852  0.3063  0.1515 -0.0447
 3712W        W22566   6.291  18.672  13.520 -0.1934 -0.0396 -0.0248
 3713W        W22567  14.983   2.799  10.780 -0.2959 -0.1372  0.3800
 3714W        W22568  14.783  16.862  14.206 -0.2360  0.3877  0.0604
 3715W        W22569  18.701  14.071   3.580  0.3135  0.1278  0.1217
 3716W        W22570  14.776   4.192  14.135  0.0307  0.2670 -0.0826
 3717W        W22571   4.055   0.528  14.908 -0.1187  0.0434  0.0531
 3718W        W22572   5.545   9.129   1.555 -0.0763  0.4174  0.0150
 3719W        W22573  11.874  13.080   2.526 -0.0891 -0.0294  0.2631
 3720W        W22574  16.806   4.305  11.391 -0.3826  0.1344 -0.1000
 3721W        W22575   1.025   4.227  12.399 -0.0449  0.0369 -0.0066
 3722W        W22576   4.829   2.264  13.298  0.4616 -0.2289  0.1383
 3723W        W22577  18.132  10.004   3.512 -0.1072 -0.4129  0.0911
 3724W        W22578   4.458   1.316  10.725 -0.1214  0.2067 -0.0989
 3725W        W22579   5.021  10.419  13.490 -0.0787  0.0092  0.1223
 3726W        W22580  16.280  12.248   3.676  0.1383  0.2994 -0.0933
 3727W        W22581   1.605   9.541  14.381 -0.0708 -0.1176 -0.0222
 3728W        W22582   0.808   8.327  12.272  0.0973 -0.1085  0.1981
 3729W        W22583  16.860  18.289  13.830 -0.0942 -0.0145 -0.2509
 3730W        W22584   2.896  18.334  10.594 -0.1316  0.2902 -0.0121
 3731W        W22585   2.420   2.456  12.842  0.1245  0.1400 -0.1483
 3732W        W22586  11.779   4.381  14.492  0.1719  0.2681 -0.0570
 3733W        W22587   3.383   6.687  11.946 -0.0324  0.0512 -0.1746
 3734W        W22588  13.691  16.949   3.103 -0.2118  0.1705 -0.1768
 3735W        W22589   6.475  11.793   1.739 -0.1524 -0.0644  0.1983
 3736W        W22590  16.762  12.423  10.700  0.1336  0.0718 -0.3851
 3737W        W22591   4.028   2.050  12.950  0.0255  0.0731  0.0840
 3738W        W22592  15.499  11.215   2.023 -0.0064  0.0652  0.1661
 3739W        W22593   1.256  17.649   2.620 -0.1910 -0.1702  0.1066
 3740W        W22594  14.186  12.527  14.864 -0.3410  0.3408 -0.1333
 3741W        W22595  13.375   5.840  13.271  0.1032 -0.1724 -0.1853
 3742W        W22596  18.394  14.851   2.492 -0.3355 -0.0524  0.0734
 3743W        W22597   5.104  10.904  13.568  0.2734 -0.0058 -0.0852
 3744W        W22598  11.690  11.410  13.517 -0.1882 -0.2012  0.2029
 3745W        W22599   6.506   8.484  12.828  0.0463  0.1444  0.0918
 3746W        W22600   8.043   5.695   0.447  0.1669  0.1647 -0.2225
 3747W        W22601  17.121  13.039  13.826 -0.0430  0.0445 -0.2160
 3748W        W22602   0.011   4.046  12.327  0.2666 -0.2754  0.0739
 3749W        W22603  15.471  12.579   2.925 -0.0228  0.1408  0.1340
 3750W        W22604   3.744   5.903   2.526  0.1017  0.1745  0.1759
 3751W        W22605   5.687  16.347   1.570 -0.0365  0.2075 -0.2082
 3752W        W22606  12.492  10.658  12.243  0.0378  0.0279  0.2245
 3753W        W22607  10.758  17.184  14.996 -0.1458 -0.0797  0.2518
 3754W        W22608   6.582   2.455   1.279 -0.0017  0.1149 -0.0328
 3755W        W22609  15.718  11.852  11.659 -0.2020  0.3403  0.1982
 3756W        W22610   3.601   1.339  11.652  0.0103  0.1581 -0.2337
 3757W        W22611   0.059   7.496  13.454  0.0762 -0.3597 -0.1321
 3758W        W22612   0.511   8.845  13.611 -0.1667  0.1092  0.1058
 3759W        W22613   6.602  12.503   5.261  0.0571 -0.2491 -0.0554
 3760W        W22614  12.248   6.761   4.861  0.1519  0.0141 -0.0356
 3761W        W22615   5.244   3.559  13.310  0.0977  0.1152  0.2987
 3762W        W22616   1.494   2.062   9.868 -0.3171  0.1428  0.2613
 3763W        W22617  12.775   3.498  13.257  0.1959  0.1076 -0.2469
 3764W        W22618  13.777  14.880  12.209  0.0627  0.2611  0.1759
 3765W        W22619  10.273   5.342   0.502  0.2694  0.0279  0.0041
 3766W        W22620   3.759   9.174  13.956 -0.2333  0.2291  0.2407
 3767W        W22621  14.515   8.944   1.771 -0.0903  0.0242  0.0320
 3768W        W22622   0.366  11.198  12.069  0.0767  0.2730  0.2015
 3769W        W22623  14.508   7.017   3.740  0.1188 -0.3033  0.1821
 3770W        W22624  16.898   4.109   0.042  0.1099 -0.1726 -0.2181
 3771W        W22625  13.714   8.238  10.328 -0.1003  0.4704 -0.2631
 3772W        W22626   2.194  11.048  10.417  0.2792  0.2276  0.2799
 3773W        W22627  15.345   6.597   0.904  0.0636  0.1733  0.1265
 3774W        W22628  17.914  17.440   3.018 -0.2148  0.0647  0.4339
 3775W        W22629  15.910   4.855  11.232  0.1110 -0.0173 -0.2271
 3776W        W22630   7.437   9.144  14.067  0.0336 -0.0748  0.0263
 3777W        W22631  14.789  18.206  14.969 -0.0221  0.0491 -0.3067
 3778W        W22632   9.467  15.988  12.818  0.1437 -0.0319  0.0781
 3779W        W22633  13.840  12.485   2.350 -0.0641  0.0037 -0.1196
 3780W        W22634  16.653   5.879  10.122  0.2397 -0.0854  0.0150
 3781W        W22635   9.843  15.777   4.771  0.0608 -0.2767 -0.1896
 3782W        W22636   8.419  15.423   2.718  0.1293 -0.0950  0.0735
 3783W        W22637  14.318  16.845   0.843  0.1504 -0.0651  0.1617
 3784W        W22638  17.239   9.205  13.852  0.1914 -0.0367  0.1393
 3785W        W22639  15.732   5.298  13.511  0.0936  0.2158  0.2249
 3786W        W22640   5.847   1.080  13.135  0.2010  0.0190 -0.0169
 3787W        W22641   2.981  11.659  14.473  0.2654  0.1296  0.0116
 3788W        W22642   2.419  12.697   0.636 -0.3032 -0.1033  0.0377
 3789W        W22643   2.516   2.787  11.942  0.3558 -0.4639  0.0998
 3790W        W22644  15.916  13.601   3.355  0.0833  0.0847 -0.3051
 3791W        W22645   4.080   8.255   1.546  0.0755  0.1415  0.0158
 3792W        W22646   1.234  11.916  13.984  0.2772  0.1532 -0.2021
 3793W        W22647   7.389  18.457  14.717 -0.2554  0.0124  0.2686
 3794W        W22648  10.252  15.078  14.677 -0.0175 -0.0278 -0.1420
 3795W        W22649  17.050   5.061  11.120  0.0734 -0.1625  0.0107
 3796W        W22650   1.363   5.035  14.827 -0.1610 -0.1231 -0.0424
 3797W        W22651   0.436   2.727   4.289 -0.1012  0.0609  0.0807
 3798W        W22652  17.400  18.674   2.875 -0.0082 -0.0383 -0.1529
 3799W        W22653   5.433  13.695  11.027  0.0563  0.2151  0.2266
 3800W        W22654  16.380  13.375   0.449  0.0577  0.1740  0.1066
 3801W        W22655  11.441  10.410   0.987  0.0455  0.1415  0.1992
 3802W        W22656   7.109  13.005   3.601 -0.2080 -0.1002 -0.2562
 3803W        W22657   8.971   4.407  12.766  0.5388  0.1605 -0.1999
 3804W        W22658  12.317   7.194  14.595  0.3185  0.1144  0.0017
 3805W        W22659   9.304   6.700  12.906  0.4262 -0.1252 -0.2510
 3806W        W22660  18.743   4.053  11.774  0.1304  0.0108  0.0302
 3807W        W22661   4.224   1.668  12.517 -0.2208 -0.2478 -0.1127
 3808W        W22662   3.205   5.323   5.675  0.3846  0.2245 -0.0940
 3809W        W22663   7.423  11.333   0.178  0.1428 -0.0387 -0.2080
 3810W        W22664   8.971   8.987   2.847 -0.0766 -0.1921 -0.0508
 3811W        W22665  18.096   2.907   2.603 -0.1479 -0.2344  0.3059
 3812W        W22666  12.735   1.126   0.860 -0.1401  0.2433  0.0554
 3813W        W22667  17.475   7.213   4.437  0.1213  0.4865 -0.4062
 3814W        W22668   7.166  15.028   3.962  0.0543  0.0734 -0.0646
 3815W        W22669  10.934  14.269   0.589  0.0348  0.1614 -0.0830
 3816W        W22670   4.351   0.454   1.010 -0.0774 -0.2883 -0.0843
 3817W        W22671  15.527   4.095   2.721 -0.3202 -0.0995  0.0909
 3818W        W22672   0.027  14.134   2.010  0.3185  0.0441 -0.5753
 3819W        W22673  11.734  10.774   3.701  0.4932 -0.0419 -0.1289
 3820W        W22674   4.222   7.560   2.315  0.0413 -0.0776  0.1262
 3821W        W22675  15.343  11.093   0.770  0.1658 -0.0917  0.3187
 3822W        W22676   7.758  17.654   0.470 -0.0571 -0.0973  0.3766
 3823W        W22677  14.803  12.701  14.028  0.1581 -0.0850 -0.1347
 3824W        W22678   1.829  13.380  11.698  0.2326 -0.1817 -0.1794
 3825W        W22679   0.425  15.942  12.523 -0.0070  0.1249  0.4153
 3826W        W22680   8.407   7.954  11.558  0.1940  0.3808 -0.4566
 3827W        W22681  14.119  15.977  10.960 -0.2474  0.1556 -0.0456
 3828W        W22682  13.030  14.148   3.039 -0.2272 -0.3995 -0.1680
 3829W        W22683  18.498  15.168   1.005  0.0472 -0.1446 -0.3965
 3830W        W22684   7.805   0.536   2.127  0.0660 -0.1016  0.3290
 3831W        W22685  17.380  14.758  13.585 -0.4040 -0.1364 -0.2269
 3832W        W22686  16.419  15.173  12.981  0.0575 -0.0187  0.0730
 3833W        W22687  15.578   7.389  11.106  0.0027  0.1260 -0.1511
 3834W        W22688  11.012   3.848  14.988 -0.1123  0.3975  0.1264
 3835W        W22689  10.190  10.019  14.314  0.0994  0.0539 -0.0623
 3836W        W22690   9.561  14.787   4.240 -0.0113  0.2175 -0.0802
 3837W        W22691  15.362   5.614  10.593  0.2011 -0.1001  0.0613
 3838W        W22692  18.585  10.297   2.825  0.0569  0.1652 -0.1293
 3839W        W22693  17.001   0.661   0.316  0.2127  0.1291  0.1698
 3840W        W22694  17.178   3.584  14.305  0.1283 -0.2772  0.1849
 3841W        W22695  13.814   1.058   1.997  0.2539 -0.3342 -0.2222
 3842W        W22696   3.602   3.153  11.645 -0.1539 -0.0112 -0.1932
 3843W        W22697   1.775   3.300   3.073 -0.5334 -0.4098 -0.0294
 3844W        W22698   8.810  18.122   2.594 -0.2096  0.0980  0.2123
 3845W        W22699   1.686  10.923   3.732  0.4103  0.0500 -0.0293
 3846W        W22700  10.183  11.356  13.102  0.3409  0.1577  0.0039
 3847W        W22701  10.183   1.631  11.068 -0.0027 -0.0237  0.0019
 3848W        W22702  17.402   4.955  13.187  0.2921  0.0864 -0.1534
 3849W        W22703  16.479  16.848  14.661 -0.0422 -0.0406  0.0109
 3850W        W22704   6.682  14.709  11.723  0.1395 -0.1167  0.1786
 3851W        W22705   7.446   1.055   1.260  0.3910 -0.0814 -0.2457
 3852W        W22706  16.836  15.231   0.671  0.0728 -0.2058  0.3619
 3853W        W22707  14.098  13.019  10.586  0.1928  0.2484 -0.1994
 3854W        W22708   0.533   3.979  12.327 -0.1225 -0.0551 -0.2057
 3855W        W22709   8.867  16.796  13.274  0.3069  0.1364 -0.2624
 3856W        W22710   0.869  18.617   2.434  0.2666 -0.2759 -0.1786
 3857W        W22711  14.682   7.540  12.329  0.2564  0.1384  0.1382
 3858W        W22712  11.992  17.086  13.317  0.0024  0.0954  0.0777
 3859W        W22713   1.593   8.383  10.697 -0.2279 -0.3150  0.1534
 3860W        W22714   1.411   3.855  13.630 -0.0067 -0.0188 -0.1667
 3861W        W22715   4.528   2.173  14.374  0.3606 -0.0967 -0.0196
 3862W        W22716   2.642   9.396  13.913  0.0029 -0.2373 -0.1963
 3863W        W22717   4.457  11.956  14.282  0.0268 -0.2877 -0.0919
 3864W        W22718  10.349  16.871  11.620  0.1962 -0.0799 -0.1153
 3865W        W22719   0.378   6.281   0.374 -0.0463 -0.3839  0.2439
 3866W        W22720   0.917   2.660   4.133  0.1919  0.1730  0.0739
 3867W        W22721   0.626   6.268  10.625  0.0455  0.2824 -0.1107
 3868W        W22722  15.366   3.223   0.768  0.2597  0.1725 -0.1833
 3869W        W22723  11.133  14.735   3.848  0.0253 -0.2650  0.0276
 3870W        W22724   3.551  12.394  11.868  0.1017  0.1891 -0.0692
 3871W        W22725   3.778   3.864  12.286 -0.0473 -0.0666 -0.0473
 3872W        W22726   4.276   8.220   5.219 -0.0517  0.1104  0.0644
 3873W        W22727  10.686   4.608   4.676 -0.0045 -0.2086  0.3153
 3874W        W22728  17.860   8.715   1.063  0.0871  0.1356 -0.2355
 3875W        W22729   5.025   2.748  14.043 -0.0911  0.1745 -0.0081
 3876W        W22730   0.986  11.967   1.959  0.1558 -0.1523  0.3102
 3877W        W22731   8.948   2.735   3.937  0.1531  0.3729  0.0025
 3878W        W22732   0.177  10.225   0.641 -0.2729 -0.0180 -0.1279
 3879W        W22733   6.448  15.096   1.151  0.4255 -0.1212 -0.4122
 3880W        W22734   5.959  12.998  12.719 -0.0939  0.2692  0.1706
 3881W        W22735   3.381   5.546   4.269 -0.1570  0.0709  0.1350
 3882W        W22736   3.963  17.013   2.002  0.1862  0.0676 -0.0706
 3883W        W22737  14.509   1.949   3.698  0.2007  0.2466  0.1076
 3884W        W22738   1.630  18.029   0.421 -0.0436 -0.2417  0.2136
 3885W        W22739  15.867   7.361   3.701  0.0240 -0.0698  0.1579
 3886W        W22740   5.110  17.504   1.315 -0.0492 -0.0037  0.0497
 3887W        W22741   3.440  10.162   2.611  0.2420  0.0343 -0.0098
 3888W        W22742  13.179  10.891   2.456  0.0252  0.1989 -0.1414
 3889W        W22743   6.965   2.848   4.283  0.0045 -0.0547  0.1153
 3890W        W22744   0.492  13.677  12.222  0.0090  0.0541  0.3141
 3891W        W22745   1.907   0.239   1.352 -0.1618 -0.0615  0.4335
 3892W        W22746  18.622  11.700   1.644  0.0762 -0.0739  0.0442
 3893W        W22747   5.283  16.920  11.828  0.3585  0.1559 -0.3697
 3894W        W22748  14.036  18.589  14.317  0.4602 -0.1442  0.0886
 3895W        W22749   8.821   7.469  10.782 -0.0851 -0.1109  0.1457
 3896W        W22750  15.926   2.100   2.415  0.3115  0.1577 -0.3590
 3897W        W22751   5.115   1.774   1.081 -0.1514 -0.0031  0.1429
 3898W        W22752  16.123  14.399  14.160 -0.0229 -0.1380  0.2746
 3899W        W22753  14.760   7.873   2.787 -0.2029 -0.0456 -0.0232
 3900W        W22754   9.818  14.502   2.030  0.1450 -0.3103 -0.0245
 3901W        W22755  12.426   4.400  14.891  0.0136 -0.1381 -0.0516
 3902W        W22756   5.901  11.558  13.575 -0.1054 -0.2227  0.1084
 3903W        W22757   7.426  13.878   0.523  0.0266 -0.1945  0.0854
 3904W        W22758  11.872   8.141  13.128 -0.0528 -0.1546  0.1751
 3905W        W22759   0.526   5.143   4.643 -0.1167 -0.0588  0.2203
 3906W        W22760   0.593  11.942  12.708  0.4330  0.0816 -0.0103
 3907W        W22761   7.625  17.967  14.253  0.0711 -0.1317  0.4109
 3908W        W22762   3.284   0.710  13.790 -0.0265  0.0394  0.1920
 3909W        W22763  15.338   3.855  10.486 -0.1891 -0.0501 -0.3033
 3910W        W22764  17.415   8.543  14.119 -0.0080 -0.2109  0.0454
 3911W        W22765   6.203  12.653  11.746  0.0647  0.1142  0.1696
 3912W        W22766   6.383   5.897  12.283  0.2677 -0.2430 -0.2099
 3913W        W22767  13.201   9.814  14.907  0.0370  0.0535 -0.0044
 3914W        W22768   0.554   9.259   4.093  0.1102 -0.0941 -0.1900
 3915W        W22769  18.132   7.502   2.354 -0.1072 -0.0486  0.1985
 3916W        W22770   7.203  12.553   4.128 -0.0258  0.1218 -0.0596
 3917W        W22771  10.443   2.403  12.701  0.0835 -0.0885 -0.1357
 3918W        W22772  14.886   6.965  13.051  0.2770 -0.1186  0.0176
 3919W        W22773  18.473   7.823  14.851  0.0600  0.0503  0.0340
 3920W        W22774  17.619  13.247   0.615  0.3794  0.3377 -0.1991
 3921W        W22775  16.613  17.533  14.170 -0.1269  0.0106  0.1051
 3922W        W22776  12.603   9.950  12.615 -0.0698  0.3928 -0.0473
 3923W        W22777  18.079   1.570  13.789  0.1103  0.3491  0.1767
 3924W        W22778  15.166   6.916  11.865  0.0643 -0.0660  0.4196
 3925W        W22779   3.997  11.932  13.058 -0.1100 -0.2243 -0.0055
 3926W        W22780  10.793   7.875   3.461 -0.1726 -0.1505  0.2195
 3927W        W22781  17.231   2.456   0.530  0.1492  0.0244  0.0359
 3928W        W22782   5.586  17.544  11.113 -0.0825  0.1690 -0.1483
 3929W        W22783  10.377  18.187  11.114  0.1499  0.1965  0.0273
 3930W        W22784  15.768   9.686  13.011 -0.0230  0.2263  0.0220
 3931W        W22785   3.485  16.886  10.303 -0.2594  0.1935  0.0504
 3932W        W22786  15.972  15.739  14.695 -0.4409 -0.1628 -0.0871
 3933W        W22787   4.488   0.909  13.378 -0.0947  0.2416 -0.2718
 3934W        W22788   3.902  13.806   0.260  0.0470  0.2838  0.1027
 3935W        W22789  12.859  11.234   4.952  0.0182 -0.1336  0.1494
 3936W        W22790  18.175  16.551   1.358 -0.0325 -0.1482  0.0127
 3937W        W22791  18.046  13.131  12.038 -0.1581 -0.0009 -0.2098
 3938W        W22792   5.451   0.055   3.470 -0.4482  0.0939  0.0395
 3939W        W22793   3.337   2.701  13.873 -0.0625 -0.0966  0.2996
 3940W        W22794  14.366  10.244   4.363  0.2240 -0.0258 -0.1775
 3941W        W22795  13.053  13.030  12.101  0.1419 -0.1204  0.1306
 3942W        W22796  17.468   9.419  10.524  0.0147 -0.2512 -0.3281
 3943W        W22797  14.348   9.756   0.526 -0.1038 -0.1282  0.3735
 3944W        W22798  17.762   6.129  11.080 -0.0155 -0.3260 -0.0381
 3945W        W22799  12.457   0.314   3.133  0.2929  0.0645 -0.5132
 3946W        W22800   3.170  16.646  11.087 -0.1720 -0.0035  0.2131
 3947W        W22801   6.563   3.508   4.058  0.1074  0.0073 -0.1086
 3948W        W22802  11.400  15.006  11.011  0.0483  0.3875 -0.1602
 3949W        W22803   3.074  10.157  12.386 -0.0045  0.1443 -0.1791
 3950W        W22804   6.596  14.481   3.394  0.0451  0.1858  0.1655
 3951W        W22805   6.338   9.618   0.555 -0.3970  0.2873  0.1205
 3952W        W22806   2.746  12.605  13.154  0.0556 -0.2081  0.0883
 3953W        W22807   5.876   0.471  10.725  0.0186 -0.0177  0.1687
 3954W        W22808   7.837  10.524  15.101  0.1102  0.0491  0.2917
 3955W        W22809   3.101   3.830  10.139  0.1553  0.0408 -0.1240
 3956W        W22810   0.771  14.593   0.298  0.0581 -0.1091  0.1632
 3957W        W22811  12.143  16.291  14.050 -0.2985  0.1218  0.1832
 3958W        W22812  17.014  13.108  11.330  0.0146 -0.1770  0.1550
 3959W        W22813   9.080   3.288  11.579 -0.0179  0.2024 -0.0962
 3960W        W22814  17.318   7.757  13.777 -0.0899  0.1995  0.3581
 3961W        W22815   5.266  17.153   0.570  0.0845  0.1116 -0.0413
 3962W        W22816   8.669  16.396   2.172  0.1524 -0.1167 -0.1367
 3963W        W22817  14.329  12.074   1.700  0.0443  0.2123  0.2309
 3964W        W22818  13.910  18.197  12.837 -0.0307  0.2735 -0.1787
 3965W        W22819  12.902   9.917   3.011  0.0540  0.0540  0.0895
 3966W        W22820  10.163  14.553   0.903 -0.0374  0.2362 -0.2796
 3967W        W22821  13.989   4.596   5.925  0.2435  0.0767  0.0310
 3968W        W22822  18.366  11.294   2.885 -0.0316 -0.2327  0.1864
 3969W        W22823  16.611  10.080   5.395  0.2244 -0.6132  0.5035
 3970W        W22824   5.990   9.368  12.760  0.0585  0.2752  0.1287
 3971W        W22825   4.815  18.320  14.625  0.0899 -0.0843  0.1539
 3972W        W22826  16.201   9.379  12.836 -0.0515 -0.2685  0.1028
 3973W        W22827  11.354  12.539   1.035  0.1173 -0.2268  0.0748
 3974W        W22828  18.656   7.643  11.045 -0.1901  0.1086 -0.0171
 3975W        W22829  11.089   8.566  13.920  0.2645 -0.2448  0.0031
 3976W        W22830   1.892  16.731   1.708  0.0290  0.0998 -0.0308
 3977W        W22831  13.382   3.738  11.590 -0.3411  0.0537  0.0449
 3978W        W22832  18.401   7.356   4.927  0.2502  0.3283  0.1480
 3979W        W22833  13.475   1.486  14.185 -0.0232 -0.1653 -0.3665
 3980W        W22834  12.511  14.202   3.045  0.0119 -0.2139  0.0582
 3981W        W22835   6.584   0.060   0.766  0.0616 -0.1097 -0.0711
 3982W        W22836  17.434  12.556   3.102  0.0596 -0.3726 -0.3365
 3983W        W22837  14.211  15.610   0.293  0.2900 -0.0631  0.2492
 3984W        W22838   8.804  18.601   2.479  0.1811 -0.0319 -0.3385
 3985W        W22839  12.136  15.629   3.741  0.0602  0.1107 -0.3506
 3986W        W22840   9.518  17.914   0.575 -0.1014 -0.1024 -0.2761
 3987W        W22841  15.582   0.855   3.126 -0.0896 -0.2657  0.0939
 3988W        W22842   0.394  12.869   0.099 -0.0825  0.2204  0.1726
 3989W        W22843  12.420   6.390   4.495  0.1005  0.0781 -0.0336
 3990W        W22844  12.033   8.911  12.514  0.1510  0.0812  0.0282
 3991W        W22845  10.074  18.466   3.895 -0.1784 -0.0075  0.0554
 3992W        W22846   4.888   3.062   4.644 -0.0802 -0.1024 -0.2212
 3993W        W22847   2.146  14.305  10.953  0.3381  0.4427  0.0473
 3994W        W22848   1.088   2.437   0.538 -0.0324  0.0703 -0.1074
 3995W        W22849   7.509  13.263   3.773 -0.0845 -0.0364 -0.2440
 3996W        W22850   3.834  13.675  11.786 -0.0623  0.1831 -0.0718
 3997W        W22851  17.535  18.678  14.262  0.4474 -0.1625 -0.1085
 3998W        W22852  13.340   9.394  13.895  0.1527  0.1202  0.0820
 3999W        W22853  14.684   9.868  11.955 -0.0834 -0.0269  0.1284
 4000W        W22854   9.214   0.159  13.167  0.0125  0.0024  0.1513
 4001W        W22855  14.432   3.307  13.458 -0.0530  0.2837  0.2390
 4002W        W22856   9.319   0.067   3.010  0.0755 -0.2461  0.2140
 4003W        W22857   3.161   4.399  14.981 -0.0532 -0.0063 -0.3858
 4004W        W22858   6.039  11.699  14.033 -0.2719  0.0459 -0.0821
 4005W        W22859  10.331  13.223  14.245  0.2997 -0.0497 -0.1209
 4006W        W22860   0.124  10.258  10.868  0.2459 -0.2057 -0.1022
 4007W        W22861  18.409  13.703  12.006  0.1208 -0.0727  0.0357
 4008W        W22862   0.339  15.161  13.646 -0.0514 -0.3394  0.1438
 4009W        W22863   0.302  15.896  13.444 -0.0508 -0.1413 -0.0508
 4010W        W22864  15.583   5.024  11.668 -0.2796 -0.0365 -0.1108
 4011W        W22865   9.926  16.797   3.866  0.0484 -0.1621  0.1574
 4012W        W22866   6.086   1.993  13.541 -0.3607  0.1155 -0.0672
 4013W        W22867  11.188   2.571   1.284  0.2610  0.0450  0.0421
 4014W        W22868   5.413  12.912   1.812  0.2766 -0.0996  0.1589
 4015W        W22869  15.168  16.850  13.780 -0.0265  0.0290  0.0588
 4016W        W22870   4.794  16.737   3.948 -0.0410  0.2980  0.1652
 4017W        W22871  10.217  13.649   4.075 -0.0335 -0.0305 -0.0776
 4018W        W22872   5.756   0.991   3.004 -0.3766  0.2693 -0.0520
 4019W        W22873   0.650   0.594  10.548  0.1285 -0.0643  0.2894
 4020W        W22874  15.590  11.752  13.427  0.2292  0.0779  0.1796
 4021W        W22875  16.281   3.547  11.455  0.0912 -0.0676  0.1099
 4022W        W22876   9.651  17.174  13.240 -0.1072 -0.0751 -0.2111
 4023W        W22877  15.870   7.816   3.433 -0.1903  0.0874 -0.1075
 4024W        W22878   6.459   2.310   4.673  0.2466 -0.1213  0.0542
 4025W        W22879   8.100   8.102  14.620  0.1597  0.2712 -0.2533
 4026W        W22880  11.094  18.405   2.293 -0.5049 -0.1171 -0.0549
 4027W        W22881   3.468  10.563   3.134 -0.0105  0.0280 -0.0189
 4028W        W22882  16.577  17.783  12.764  0.1478  0.0866  0.0719
 4029W        W22883  15.748   6.396   3.617 -0.1877 -0.0584 -0.1326
 4030W        W22884   9.853   5.463  14.162  0.1668  0.1529 -0.0621
 4031W        W22885  12.888  14.655  12.921 -0.0171 -0.1726 -0.0565
 4032W        W22886   5.307   4.403   2.609  0.0879  0.1825  0.4066
 4033W        W22887   6.066   5.465  15.019 -0.1530  0.0106 -0.3014
 4034W        W22888  18.703  15.723   3.040 -0.1657 -0.3037 -0.2752
 4035W        W22889  12.328  13.003  13.705 -0.5178  0.2199  0.0297
 4036W        W22890   5.819   4.492   2.602 -0.0950  0.0271 -0.0227
 4037W        W22891   6.505   8.212  14.043 -0.3417  0.0562 -0.3115
 4038W        W22892  10.740   1.149  11.777  0.1789  0.1100 -0.1138
 4039W        W22893  15.128   8.419   3.660  0.3115  0.1448 -0.1290
 4040W        W22894  11.924  11.297  11.708  0.1765 -0.0724 -0.3280
 4041W        W22895   9.536   3.591  15.025 -0.0065 -0.0364 -0.1696
 4042W        W22896  12.449   4.994   1.657  0.1356  0.0679  0.0675
 4043W        W22897   9.606   8.263  12.869  0.0018 -0.1246 -0.3374
 4044W        W22898   5.023  13.488  13.486  0.0989 -0.2649  0.0955
 4045W        W22899  17.548  15.717   2.747 -0.1133  0.0466  0.3405
 4046W        W22900   9.535   3.501  14.248 -0.0261 -0.1126 -0.1952
 4047W        W22901   2.372   6.148  10.310  0.0245  0.0678  0.1790
 4048W        W22902   5.330   8.728   3.610 -0.1030 -0.0549 -0.1630
 4049W        W22903   5.312  10.294  14.751  0.0456  0.1908  0.2594
 4050W        W22904  15.323   4.314  14.171 -0.4132 -0.2122 -0.0028
 4051W        W22905   6.008  17.102  12.335 -0.1312 -0.3020  0.0870
 4052W        W22906   2.430   5.913   0.058  0.0100 -0.6117  0.0635
 4053W        W22907   1.248   3.344  13.626  0.1885  0.1528 -0.1722
 4054W        W22908   6.453  15.219  10.853  0.1371  0.1811 -0.1617
 4055W        W22909   8.087   3.580   2.324  0.0716  0.1081 -0.1028
 4056W        W22910  15.857   6.988  11.657 -0.3670  0.1688 -0.0107
 4057W        W22911  17.417   2.303  12.017 -0.0787  0.0670 -0.0008
 4058W        W22912   2.085   6.652   1.213 -0.1680  0.0342 -0.1250
 4059W        W22913   3.352   2.213   3.438  0.1778 -0.2092  0.0926
 4060W        W22914  16.277  12.069  13.581  0.1360 -0.0499 -0.3090
 4061W        W22915  18.115  16.450   5.508  0.0865  0.0066 -0.1900
 4062W        W22916   8.279  11.482   2.592 -0.0099  0.3154  0.1170
 4063W        W22917  14.257  18.750  11.460 -0.0329  0.0258  0.0598
 4064W        W22918   0.297   7.317   0.188 -0.0944  0.1236  0.0787
 4065W        W22919  12.959  14.358   4.391  0.0003  0.1877  0.0186
 4066W        W22920   5.240  14.115   2.065  0.1915 -0.0554  0.1076
 4067W        W22921   6.280   3.443   0.635  0.0322  0.0115  0.1452
 4068W        W22922   8.197  11.155   4.263 -0.1572  0.0327  0.2935
 4069W        W22923  11.091   6.392   0.003 -0.1460 -0.1163 -0.2707
 4070W        W22924   5.485  15.960   1.320 -0.1256 -0.1362 -0.1516
 4071W        W22925   7.171  10.594   1.660 -0.0627  0.1474 -0.0310
 4072W        W22926   7.182  13.852   4.354 -0.0445  0.0102 -0.1980
 4073W        W22927   1.446   4.624   1.913  0.2708 -0.0606  0.0534
 4074W        W22928  17.150  11.762  10.786  0.0236 -0.0091  0.0250
 4075W        W22929   4.576  10.568   2.827  0.0627  0.1351 -0.0730
 4076W        W22930   1.431   8.220   3.244 -0.2269  0.2195  0.1958
 4077W        W22931  17.036   8.592   2.727  0.2885  0.0160  0.0445
 4078W        W22932   8.310  10.396  13.536 -0.0497  0.2460 -0.1192
 4079W        W22933   5.750  16.780   0.376  0.1089  0.0045 -0.0026
 4080W        W22934  14.128  14.375   1.899  0.1689  0.0032 -0.0320
 4081W        W22935  10.807   1.096  12.327  0.1995 -0.2064  0.2354
 4082W        W22936   7.290   4.318  11.110  0.0857  0.4223  0.0313
 4083W        W22937   6.052   2.556   5.357  0.0125  0.1895 -0.0455
 4084W        W22938   4.691   0.208   0.692 -0.0462  0.2110 -0.1826
 4085W        W22939  12.620  10.735   3.537  0.1026 -0.2717  0.1133
 4086W        W22940   9.616  15.341  11.545 -0.0613 -0.0257  0.1135
 4087W        W22941   7.405   8.855   3.635  0.0988 -0.2610 -0.0046
 4088W        W22942   2.905   5.270  13.347 -0.1816 -0.0452  0.2869
 4089W        W22943  11.767   0.669   3.051  0.0730 -0.0280 -0.1027
 4090W        W22944   9.841  15.151  11.108  0.0263 -0.2138 -0.0327
 4091W        W22945   6.882  17.811  13.625  0.0034  0.1695 -0.1963
 4092W        W22946  10.733   7.838  14.533 -0.1808  0.1484 -0.0082
 4093W        W22947   6.715   1.524   0.765 -0.0077 -0.1780  0.1087
 4094W        W22948  14.402   7.536   0.055 -0.0244 -0.2290 -0.1841
 4095W        W22949   3.415   2.761   1.709 -0.2061 -0.1104  0.2172
 4096W        W22950  17.557  18.093  14.433 -0.0532  0.0490 -0.1651
 4097W        W22951   1.333   5.083  12.802 -0.0518 -0.1121  0.0049
 4098W        W22952  13.601  15.436  11.388 -0.2145 -0.0914  0.0143
 4099W        W22953  12.545  12.001  14.716  0.0683  0.4534 -0.2528
 4100W        W22954  15.124   8.844   1.859  0.3649 -0.1994 -0.0633
 4101W        W22955   6.496   2.657  12.268 -0.1248 -0.1467  0.1048
 4102W        W22956   3.332  11.554   2.507  0.0922  0.1642  0.1916
 4103W        W22957  15.166   0.352   2.241  0.1656  0.1113 -0.2501
 4104W        W22958  13.083  15.876   2.077 -0.2824 -0.1071  0.4653
 4105W        W22959   2.573  12.928  12.051 -0.0891 -0.1561  0.0415
 4106W        W22960   4.693   3.328  11.483 -0.4245 -0.1917 -0.0912
 4107W        W22961   3.176   1.653   1.001  0.2493 -0.0068 -0.4858
 4108W        W22962  17.863   3.269  11.729  0.0646  0.0725  0.3378
 4109W        W22963   2.647  16.742  10.979  0.1088  0.0062  0.4802
 4110W        W22964   4.756   7.441  10.491 -0.3983  0.0607  0.4208
 4111W        W22965  12.774   1.482   2.342  0.0727  0.0678 -0.3093
 4112W        W22966   8.779  12.823   0.144  0.3150  0.1248 -0.1862
 4113W        W22967  11.752  18.167  11.209 -0.0603 -0.1859 -0.1247
 4114W        W22968   6.663  18.104   2.012  0.0811 -0.1790  0.2929
 4115W        W22969   9.829  11.936   3.755  0.1973 -0.1565  0.4371
 4116W        W22970   4.910   4.038   1.739  0.0857  0.2412  0.0853
 4117W        W22971  14.194   2.457   0.948  0.0045  0.1421  0.1835
 4118W        W22972   4.403   0.544  13.032 -0.2848  0.2002 -0.3580
 4119W        W22973  11.324   6.653  14.733 -0.0528 -0.2877 -0.2197
 4120W        W22974   9.709   6.024  14.632  0.0236  0.3144  0.1338
 4121W        W22975  15.746   9.092  11.597 -0.0666  0.0048  0.0454
 4122W        W22976  13.546   3.404   2.631  0.0909  0.2566 -0.1583
 4123W        W22977  17.223   8.601  11.975  0.2106 -0.2250  0.2774
 4124W        W22978   9.103  11.346   1.932 -0.0483  0.0222  0.2335
 4125W        W22979   6.093   5.292   2.774 -0.1273 -0.1799  0.1822
 4126W        W22980  17.623  15.675  13.272  0.0376 -0.0585  0.1597
 4127W        W22981   6.993  16.579  11.212 -0.1058  0.0130 -0.1053
 4128W        W22982  16.684  12.611   3.717 -0.0826 -0.1253  0.0271
 4129W        W22983   7.711  17.917  14.885  0.0960  0.1171  0.0545
 4130W        W22984   7.499  14.917   2.690 -0.2507 -0.0517 -0.1467
 4131W        W22985   6.220   6.313   0.913  0.0969 -0.2311  0.1028
 4132W        W22986  10.031   4.268   3.149 -0.1070  0.1757 -0.1942
 4133W        W22987  16.708   0.195   0.484  0.0219  0.0713 -0.2049
 4134W        W22988   7.664  11.834  10.072 -0.3006 -0.2269 -0.2951
 4135W        W22989  12.898   9.535  13.554 -0.1926 -0.3097  0.1438
 4136W        W22990  12.069   4.904  12.412  0.0134 -0.6714 -0.0473
 4137W        W22991  15.850   8.142  13.500 -0.0826 -0.2124  0.2028
 4138W        W22992  17.101   5.100   3.801 -0.0724 -0.1540  0.1136
 4139W        W22993   6.369  10.412  14.655 -0.0303 -0.0436  0.2161
 4140W        W22994  16.209   7.632  11.614 -0.1065 -0.2174 -0.0933
 4141W        W22995  16.411   7.932  11.970  0.0287 -0.0166  0.4629
 4142W        W22996   1.449  11.351  14.272 -0.1932 -0.0987  0.0157
 4143W        W22997   2.859   5.358   1.113  0.0851 -0.0348 -0.0369
 4144W        W22998   5.653  14.379   2.113  0.2251 -0.1069  0.1548
 4145W        W22999  13.984  17.823   4.147 -0.1660 -0.2925  0.1481
 4146W        W23000   3.515  18.106   0.754  0.1015 -0.2560  0.0798
 4147W        W23001  14.710   5.405  13.122  0.0474  0.2467 -0.1241
 4148W        W23002  16.904  11.025   0.794 -0.0183 -0.0718  0.1257
 4149W        W23003   3.943  17.579  12.454  0.1242  0.0632 -0.0574
 4150W        W23004   4.773   7.288   1.957 -0.1074 -0.3591 -0.0658
 4151W        W23005   2.466   2.978   1.892  0.2244 -0.0750 -0.1351
 4152W        W23006  13.263  17.990   3.448 -0.2097  0.4920  0.1751
 4153W        W23007  18.641   5.867  12.013  0.0399  0.3446 -0.0006
 4154W        W23008   6.953  11.204  10.096 -0.1421 -0.0256 -0.0111
 4155W        W23009  16.999   8.238  10.475 -0.1005 -0.3724 -0.2543
 4156W        W23010   4.733   2.035   4.460  0.1641 -0.1035 -0.1595
 4157W        W23011  12.749   8.071   3.132  0.2081 -0.0581  0.2731
 4158W        W23012   7.840   3.034   0.643 -0.0073 -0.2365  0.2137
 4159W        W23013   4.214   5.999   0.690 -0.3268  0.2526 -0.0573
 4160W        W23014   6.353   6.593   1.635  0.4634 -0.1857 -0.0316
 4161W        W23015   6.195  11.654   0.872 -0.5859 -0.1211 -0.1583
 4162W        W23016   1.908   0.628   3.265  0.3829 -0.0465  0.0351
 4163W        W23017  13.602   4.100   3.153  0.1495  0.2838  0.1179
 4164W        W23018   5.350   9.346  11.232  0.1652  0.2311  0.0018
 4165W        W23019  16.505  11.370   0.999 -0.3251  0.2686  0.0276
 4166W        W23020  10.943  13.468  11.005 -0.1175 -0.0022 -0.0962
 4167W        W23021   2.855   3.831   2.908  0.2646  0.0314  0.0249
 4168W        W23022  15.728  12.299   5.760 -0.0968  0.0242  0.1419
 4169W        W23023  18.744  12.833  13.995 -0.1320 -0.1418  0.1975
 4170W        W23024  13.276   4.991   4.472  0.0020 -0.1842  0.1378
 4171W        W23025  11.864   4.685   0.915  0.0456  0.0001 -0.3058
 4172W        W23026   3.332  17.046  10.896 -0.1986  0.0726  0.0046
 4173W        W23027   4.766  17.840  15.072  0.1427  0.6349  0.0974
 4174W        W23028  18.771  10.632   3.224 -0.0067 -0.0754  0.2339
 4175W        W23029  15.962   8.283  12.184 -0.1286 -0.0307 -0.0940
 4176W        W23030   9.541   1.600   4.625 -0.2017  0.0161 -0.0229
 4177W        W23031   4.591   0.818   2.411  0.0777 -0.0140  0.0211
 4178W        W23032  10.628   2.198  12.184  0.0496  0.0895  0.1397
 4179W        W23033   3.093  15.163  11.684  0.2098  0.3780  0.0291
 4180W        W23034   4.757   4.710  14.746  0.1566 -0.2095  0.0431
 4181W        W23035  18.111   0.816  12.606 -0.0905 -0.2415  0.4471
 4182W        W23036   8.136  17.449  11.774  0.0478 -0.0672  0.1029
 4183W        W23037   9.192  12.856  12.547 -0.0517  0.1188 -0.0788
 4184W        W23038   1.404  15.082  11.370 -0.2988  0.0938  0.1239
 4185W        W23039  17.666   5.524  12.022 -0.0821  0.5836  0.1409
 4186W        W23040  10.013   4.039   0.491 -0.0379  0.3065  0.2272
 4187W        W23041  12.764  10.786  10.816 -0.1851 -0.1713  0.1623
 4188W        W23042  14.317  12.179   0.722  0.0326  0.1404  0.0274
 4189W        W23043   2.428   5.803   0.967  0.0593 -0.0189 -0.0249
 4190W        W23044  10.216  16.405  14.045  0.1146  0.0116 -0.1885
 4191W        W23045  15.200  10.432   0.493  0.1787 -0.0843 -0.0126
 4192W        W23046  13.896  16.420   2.508  0.0762 -0.5136  0.0855
 4193W        W23047   2.571   3.364  11.477 -0.2214  0.0084 -0.1215
 4194W        W23048   3.424   8.445  11.181 -0.0104 -0.2237 -0.0865
 4195W        W23049  15.842   3.863  10.505  0.1788 -0.0109 -0.0222
 4196W        W23050   5.913   9.839  14.250  0.0404 -0.1912 -0.0874
 4197W        W23051  12.587  18.462  14.944 -0.0378  0.1944 -0.1948
 4198W        W23052   9.561   1.677   9.826 -0.1353  0.0007 -0.2032
 4199W        W23053   3.376  11.218  14.499 -0.1602  0.2758  0.1313
 4200W        W23054  17.572   5.461   3.102  0.1302  0.0986  0.1327
 4201W        W23055   6.236   5.436  13.846 -0.1606  0.2302 -0.1845
 4202W        W23056  16.970   6.562   4.033 -0.0362 -0.3783  0.1076
 4203W        W23057  15.302   2.517   4.704 -0.0526 -0.0786 -0.2005
 4204W        W23058   2.314  12.373  14.394  0.0135  0.0467  0.0654
 4205W        W23059   5.551   6.681  11.297 -0.1465  0.0026  0.0789
 4206W        W23060  14.264  16.974  13.801 -0.2099  0.3586 -0.2516
 4207W        W23061  10.591   4.532   0.857  0.0716  0.1121  0.1152
 4208W        W23062  16.963  18.294   3.669  0.4264 -0.1165 -0.3076
 4209W        W23063   7.965   6.462  13.973 -0.0525  0.0880 -0.0265
 4210W        W23064  15.053   3.171  14.658 -0.0971  0.0253  0.1849
 4211W        W23065   0.253   8.266  12.185  0.1944 -0.1906  0.1036
 4212W        W23066  11.198  11.923   3.182  0.2145  0.1609  0.0142
 4213W        W23067  16.002  16.108   4.298 -0.1431  0.3644  0.2116
 4214W        W23068   2.381   9.057  14.289 -0.2335  0.0570 -0.1169
 4215W        W23069   3.750  12.344  12.287  0.0106  0.0489  0.0510
 4216W        W23070  12.318  12.270  14.127 -0.0285 -0.3392 -0.0314
 4217W        W23071  12.900  18.800  14.980 -0.1959  0.1760  0.1555
 4218W        W23072   4.907  16.835  11.465  0.0090  0.2027 -0.2767
 4219W        W23073   8.732  15.977   0.387  0.1122  0.0967  0.2336
 4220W        W23074   3.930  18.383  12.252 -0.0851  0.1361 -0.2935
 4221W        W23075   6.302  17.621   2.297  0.1482 -0.1229 -0.0915
 4222W        W23076  16.672  11.820   2.956 -0.1158  0.2865 -0.2710
 4223W        W23077   0.701  13.065   3.346  0.1707 -0.0224  0.1851
 4224W        W23078   9.368   9.786  11.877  0.1291 -0.2241 -0.2359
 4225W        W23079   8.370  15.155   4.140 -0.1843 -0.0891  0.0445
 4226W        W23080  14.685   0.998  13.439 -0.3220 -0.5143 -0.3047
 4227W        W23081   9.662   4.980   2.045  0.1615 -0.2776 -0.1008
 4228W        W23082   9.700   8.817   2.121  0.0316 -0.1305  0.1564
 4229W        W23083   9.729   8.038  11.933  0.0299  0.0061  0.2006
 4230W        W23084  16.773   4.670   2.304 -0.3721 -0.0373 -0.1006
 4231W        W23085  16.705   2.648   0.043  0.2797 -0.0927  0.1095
 4232W        W23086   9.508   8.262   4.353  0.1146  0.0747 -0.5408
 4233W        W23087   7.604   9.722   0.680  0.0486  0.1660 -0.0930
 4234W        W23088   3.803  16.325   0.055  0.1898  0.0678 -0.0583
 4235W        W23089  11.805   6.343   3.126  0.2166 -0.0108 -0.1946
 4236W        W23090   9.607  14.869   3.121 -0.2663 -0.0528 -0.2415
 4237W        W23091   0.389   3.053   1.564 -0.1192 -0.3536 -0.0458
 4238W        W23092   0.896  16.891  11.451 -0.3876  0.4472  0.0667
 4239W        W23093  13.018   2.935  11.011  0.0655 -0.0124  0.1227
 4240W        W23094  16.293  15.407  14.444  0.0653  0.1255  0.0033
 4241W        W23095   4.154   6.474  11.507  0.1677  0.1151 -0.1656
 4242W        W23096   6.004   6.480   0.361 -0.4049 -0.0919  0.1106
 4243W        W23097  17.580  12.014   9.443  0.2785 -0.1950 -0.1502
 4244W        W23098   2.347  15.940   4.060 -0.1389 -0.0993  0.0976
 4245W        W23099  14.032   5.762   1.485 -0.1270 -0.1069  0.1007
 4246W        W23100   9.652  12.460   0.965 -0.3063  0.0194  0.2334
 4247W        W23101   9.763   2.410   1.206  0.1567  0.3211  0.0412
 4248W        W23102   8.649   5.539  11.280 -0.1297 -0.1968 -0.2580
 4249W        W23103  13.698   1.134  13.307  0.3446 -0.0253 -0.0055
 4250W        W23104  18.581   7.695  11.588  0.2895  0.0174  0.3297
 4251W        W23105  11.031  12.947  11.007 -0.1170 -0.1344  0.2771
 4252W        W23106   2.979  10.407  11.882 -0.2254 -0.2790 -0.2401
 4253W        W23107   0.695  10.268   2.153  0.1737 -0.1509  0.1548
 4254W        W23108   1.758  15.599   3.223  0.1761 -0.0494 -0.0362
 4255W        W23109  11.753  15.440  14.085  0.0020 -0.1261  0.4211
 4256W        W23110  18.320  13.724  14.311 -0.0067 -0.0265  0.0358
 4257W        W23111   0.807   0.435   1.267 -0.3160  0.2268 -0.1150
 4258W        W23112   9.896  14.699   3.479 -0.0886 -0.1300 -0.0146
 4259W        W23113  12.942  11.181   4.228  0.0662 -0.1094  0.3902
 4260W        W23114  13.735   2.961  14.804  0.0273  0.0106 -0.2908
 4261W        W23115  12.087   1.697   2.259  0.0368  0.1484  0.1208
 4262W        W23116   2.910   6.611   2.848 -0.3993 -0.1517 -0.1665
 4263W        W23117  14.287  13.241  13.664 -0.0040  0.0025 -0.0772
 4264W        W23118  12.934  13.391  11.270 -0.0153  0.0934  0.0844
 4265W        W23119  12.644  10.018   2.506 -0.2831  0.4646 -0.0646
 4266W        W23120   4.866   8.373  14.200 -0.3353  0.0590 -0.2314
 4267W        W23121   0.350   4.344  10.653 -0.0333 -0.0202  0.5084
 4268W        W23122   1.908   8.123  10.940  0.2497  0.0343  0.0229
 4269W        W23123  11.195   6.282   3.995  0.0698  0.2066 -0.1057
 4270W        W23124  14.316   9.216   2.721  0.2390 -0.0595  0.1503
 4271W        W23125   0.947  14.933  14.481  0.0403  0.0082  0.1026
 4272W        W23126   2.996   1.161   0.085  0.0056  0.1114  0.3964
 4273W        W23127  17.362  16.953   4.879  0.1460  0.1180 -0.0079
 4274W        W23128   0.125  13.825  11.763  0.3729  0.3136  0.1742
 4275W        W23129  13.197  12.189   1.829 -0.2978  0.3950  0.1163
 4276W        W23130  17.813  12.017   3.657  0.3412  0.3625 -0.0716
 4277W        W23131   7.776  17.591  12.156  0.1597 -0.1622 -0.2987
 4278W        W23132   0.484  12.417   2.671  0.2523  0.0760 -0.0430
 4279W        W23133  10.423   7.864  12.010  0.0423  0.0375  0.0124
 4280W        W23134   3.582   0.977   3.737  0.1759 -0.0197  0.3053
 4281W        W23135   5.908   0.427  11.727  0.2081  0.2210  0.0213
 4282W        W23136  12.577  11.752  10.369 -0.4621  0.1516  0.1804
 4283W        W23137   1.734  15.234   4.522 -0.0769  0.0539  0.0559
 4284W        W23138   8.367  15.302   1.246 -0.2001  0.0533 -0.2143
 4285W        W23139   2.252   5.397   0.730 -0.2435  0.1863 -0.2897
 4286W        W23140  17.754   7.614  10.815  0.0445  0.0595  0.2232
 4287W        W23141  10.832   7.585   2.953  0.0568 -0.0557  0.0877
 4288W        W23142   6.050   8.576  12.615 -0.3222  0.4497  0.1131
 4289W        W23143   6.622  17.320   3.169 -0.0062 -0.3544 -0.0172
 4290W        W23144  16.408  14.607   1.821 -0.4925 -0.0462  0.0078
 4291W        W23145  15.422  15.066   3.431 -0.0334 -0.0654 -0.0518
 4292W        W23146   0.441   0.635   4.302  0.2496  0.3355  0.5224
 4293W        W23147   8.989   8.101   5.183 -0.1476  0.1213  0.1597
 4294W        W23148   1.742  12.548  11.717 -0.0222 -0.0006 -0.1108
 4295W        W23149  12.772  17.841   3.357  0.1415 -0.0789 -0.0803
 4296W        W23150  15.435   0.932  14.739  0.4598  0.0064  0.0014
 4297W        W23151   4.859  16.443   2.927 -0.3152  0.2045  0.1561
 4298W        W23152   6.021   8.600   0.735 -0.3630  0.1779  0.2990
 4299W        W23153   3.948   0.111   2.748  0.1089  0.2857  0.0576
 4300W        W23154   0.066   4.136  13.569 -0.2029 -0.0310  0.1706
 4301W        W23155   1.091  17.274  15.050  0.0064  0.0768  0.0681
 4302W        W23156   8.083   3.039  14.742 -0.1072  0.2298 -0.0904
 4303W        W23157  17.155   4.474  13.157 -0.1222 -0.0343 -0.1880
 4304W        W23158  11.339  18.427   1.667 -0.1855  0.3511  0.1912
 4305W        W23159   9.592   0.215   1.137 -0.1553 -0.1993 -0.2594
 4306W        W23160  14.628  12.933  14.457 -0.1027  0.0934 -0.2201
 4307W        W23161   5.030   8.170   4.162  0.0641 -0.3002 -0.1631
 4308W        W23162   1.374  18.656   2.540 -0.0571  0.0899  0.0601
 4309W        W23163  13.768   0.143  12.412  0.0589  0.2293  0.0686
 4310W        W23164   8.741   5.303   3.224 -0.1539 -0.0246 -0.0687
 4311W        W23165  16.051  11.197  12.155 -0.2776 -0.2951  0.1561
 4312W        W23166  16.153   7.428   4.105  0.1443 -0.1759 -0.1812
 4313W        W23167   6.449   1.554  12.746  0.1411 -0.3001 -0.1517
 4314W        W23168   3.929   7.039   4.065  0.1956  0.4059  0.0117
 4315W        W23169  13.649  10.393   2.987 -0.3031  0.2508  0.1347
 4316W        W23170   5.376  10.529  11.199  0.0724  0.1144 -0.0231
 4317W        W23171  12.636  13.239  12.549  0.1869 -0.1928  0.1668
 4318W        W23172   6.255  12.576  12.615  0.1196 -0.4175 -0.1538
 4319W        W23173  12.511  10.953   0.383  0.3494  0.1525  0.1463
 4320W        W23174  10.986   7.210  12.035 -0.1266 -0.1668 -0.0792
 4321W        W23175   6.153   1.780   2.001  0.3821  0.0379 -0.1803
 4322W        W23176  18.006  16.100  10.335 -0.0859 -0.2042  0.1740
 4323W        W23177   5.565  14.960  11.542  0.0182 -0.2830  0.1646
 4324W        W23178  15.238   9.650  12.628 -0.0259  0.2352  0.1553
 4325W        W23179  13.594  10.873   1.379 -0.0387  0.0488  0.3305
 4326W        W23180  12.226   7.593  13.283 -0.0277 -0.1215 -0.2921
 4327W        W23181   6.547  13.560   3.009  0.0468  0.1252 -0.2228
 4328W        W23182  11.760  11.404   3.529  0.1313 -0.2448 -0.0000
 4329W        W23183  12.894   7.825   1.994 -0.3181  0.0621  0.3143
 4330W        W23184   7.576   0.501   0.258  0.2521  0.0126 -0.0925
 4331W        W23185   4.005   8.907  14.969 -0.2901 -0.0347 -0.0187
 4332W        W23186  10.668   0.517   2.919 -0.1546  0.0007 -0.0688
 4333W        W23187  13.114  15.550   2.625 -0.2050  0.0228  0.1142
 4334W        W23188  10.557  13.289   1.418 -0.2430 -0.3759  0.1392
 4335W        W23189   1.975   3.085   9.745 -0.1193  0.1681  0.1236
 4336W        W23190  11.391   0.039   1.505  0.1044 -0.1782  0.1284
 4337W        W23191  13.915  17.850  12.459  0.2092  0.1507 -0.0522
 4338W        W23192   5.458   8.362   0.032  0.1017  0.0784  0.2913
 4339W        W23193  16.314  15.767  13.821 -0.3080 -0.0750  0.3720
 4340W        W23194  13.682  14.649   1.663 -0.2391  0.1287 -0.0916
 4341W        W23195  12.296   6.666  14.190  0.1258 -0.2121 -0.1897
 4342W        W23196  18.189   4.189   0.056 -0.0930  0.2577  0.1177
 4343W        W23197  15.221  12.609  12.689 -0.0414  0.0210  0.2028
 4344W        W23198  16.431  15.884  14.636 -0.0734 -0.0489 -0.2611
 4345W        W23199  15.129   4.156  12.102 -0.1297 -0.0757 -0.0044
 4346W        W23200  17.072   7.620  15.000 -0.1780 -0.0579  0.1028
 4347W        W23201   2.629   2.095  12.190  0.0199  0.1231 -0.1316
 4348W        W23202   4.586   9.274  13.669  0.1608  0.0330  0.0475
 4349W        W23203   3.455  12.705  10.291 -0.2706  0.2021  0.1233
 4350W        W23204   9.646   4.409   3.417 -0.1695 -0.2158 -0.0404
 4351W        W23205   8.461   5.995   0.317  0.3761  0.0500  0.0018
 4352W        W23206  14.541   2.425   1.373 -0.0748  0.0117  0.1238
 4353W        W23207   6.391  10.688  14.078 -0.3307  0.0213 -0.0858
 4354W        W23208  12.251  12.702   3.567 -0.2629  0.2508  0.2586
 4355W        W23209   6.558   5.340  11.507  0.4896 -0.2065 -0.1323
 4356W        W23210  11.797  13.082   3.550  0.0363  0.1025  0.3637
 4357W        W23211  10.160   0.155   0.955  0.2005  0.0174  0.0396
 4358W        W23212  10.628   1.363  12.741  0.2442  0.0314  0.1726
 4359W        W23213   8.502   4.998   3.633 -0.2262 -0.0715  0.1370
 4360W        W23214  12.853   5.935  14.084  0.1945  0.0856 -0.1913
 4361W        W23215   5.007   9.597  13.769 -0.0158  0.1876 -0.0288
 4362W        W23216   2.529  12.147  13.909 -0.0332  0.2627  0.0191
 4363W        W23217  17.466   6.981  13.022  0.0823  0.2649 -0.1139
 4364W        W23218   1.376  12.729  11.320  0.3552 -0.0493  0.0683
 4365W        W23219  16.361  13.298  14.078 -0.1559  0.0224  0.2162
 4366W        W23220   9.475   5.477   3.857 -0.0426  0.2886 -0.2324
 4367W        W23221  15.101   1.802  11.012 -0.1367 -0.0858 -0.1024
 4368W        W23222  12.810  12.363   3.810 -0.1009 -0.1650 -0.0479
 4369W        W23223  11.880  18.706  10.799  0.1099 -0.1580  0.0342
 4370W        W23224   7.307  12.946  14.254  0.1284 -0.0538  0.0988
 4371W        W23225  14.916   1.221  13.035 -0.1735  0.1642  0.1256
 4372W        W23226   3.335   8.318  13.025  0.3352 -0.0308  0.5932
 4373W        W23227  12.175   8.446  12.031  0.2469  0.0327 -0.0181
 4374W        W23228  11.079   5.429   3.779 -0.2949  0.1596 -0.2925
 4375W        W23229   3.345   3.344  14.928 -0.1716 -0.3242 -0.4959
 4376W        W23230   9.565  17.910  14.488 -0.4422 -0.1065 -0.0419
 4377W        W23231   2.714  14.846   2.007 -0.3285  0.0669 -0.0298
 4378W        W23232   4.099  18.021   2.832 -0.1971 -0.0402  0.2186
 4379W        W23233   6.832  10.878   0.861 -0.0626  0.1017  0.0184
 4380W        W23234  10.060   2.387   4.240 -0.0876 -0.2222 -0.1177
 4381W        W23235   1.257  12.459   1.290  0.0164  0.1736 -0.0435
 4382W        W23236  16.616  17.783   2.605 -0.0681  0.0388  0.2239
 4383W        W23237   5.046  17.262   2.631 -0.4617 -0.0497  0.0309
 4384W        W23238  14.320  12.459  12.168 -0.2855 -0.0334  0.3016
 4385W        W23239  15.711   8.939   3.077  0.0240 -0.1567 -0.2895
 4386W        W23240   5.833   3.804  14.549 -0.1798  0.0683 -0.0664
 4387W        W23241   4.817   6.929  12.277  0.1481  0.2291  0.2619
 4388W        W23242   0.879  12.330   4.360 -0.0763  0.3374 -0.1242
 4389W        W23243  14.203  10.688   4.267  0.1400  0.1322  0.0904
 4390W        W23244   9.282  15.258   4.164 -0.1281  0.1135  0.2285
 4391W        W23245   6.608  15.556  12.133 -0.0368 -0.2521  0.0022
 4392W        W23246  12.015  11.351   3.087 -0.0578  0.1944 -0.0457
 4393W        W23247   3.507  14.501   4.325 -0.1583 -0.4101  0.2014
 4394W        W23248  18.661   5.456   9.793 -0.0720 -0.0976 -0.0003
 4395W        W23249   6.372   7.009  11.219 -0.0304 -0.1955 -0.0438
 4396W        W23250   3.531   0.115  14.326  0.1733 -0.0122 -0.1480
 4397W        W23251   1.250  12.450   1.804 -0.1485 -0.2756  0.0035
 4398W        W23252  10.903   2.717  12.787 -0.1344  0.0926  0.0907
 4399W        W23253   1.899  12.595  14.736 -0.1970  0.2202  0.1299
 4400W        W23254   0.027   8.952  10.959 -0.3534  0.0342 -0.1586
 4401W        W23255   6.681  16.498  11.588 -0.0398 -0.0211 -0.2496
 4402W        W23256  15.432   6.987  11.334  0.1099 -0.0679 -0.2464
 4403W        W23257   2.269   2.930  14.496 -0.0105  0.1058  0.0943
 4404W        W23258  18.548   9.015  11.326  0.2028  0.0664 -0.4376
 4405W        W23259   0.795  15.985  13.649 -0.1181  0.2343 -0.3342
 4406W        W23260  10.156   4.502  11.875 -0.0673  0.2909 -0.1541
 4407W        W23261   0.278  12.301   0.134 -0.2314  0.0782 -0.1528
 4408W        W23262  15.987  16.917  11.632  0.0426 -0.1754 -0.0605
 4409W        W23263   1.876  16.097  13.907 -0.0910  0.0904 -0.1539
 4410W        W23264   0.837   9.984   0.591  0.0380 -0.1333 -0.4485
 4411W        W23265   5.923  12.669  11.311 -0.2042 -0.1963 -0.1073
 4412W        W23266  18.231   3.365   0.032  0.1252 -0.0101  0.3046
 4413W        W23267  15.477   6.223  10.964 -0.0111 -0.2818  0.0654
 4414W        W23268  13.343  13.765   2.834 -0.0048 -0.1479 -0.0603
 4415W        W23269   3.885   2.582  12.311 -0.0386 -0.3070 -0.0038
 4416W        W23270   9.269  12.811   0.828  0.3372  0.3413  0.1192
 4417W        W23271   3.314   6.559   0.969 -0.1009  0.0795 -0.1318
 4418W        W23272   2.520  16.947  12.999 -0.0037  0.0676 -0.1330
 4419W        W23273   0.533   4.985   0.216 -0.4606  0.2553  0.2526
 4420W        W23274   2.908  12.599   0.689  0.1415  0.0944  0.0995
 4421W        W23275   3.390   7.183   4.648  0.1140  0.0848  0.1197
 4422W        W23276   7.322  15.334   1.592  0.1748  0.0391  0.1632
 4423W        W23277  12.181   6.694  12.390 -0.0176  0.0638 -0.0067
 4424W        W23278  16.763   7.947   2.239  0.2108  0.4513  0.1908
 4425W        W23279   7.485   6.061   2.239  0.1981 -0.1320 -0.0442
 4426W        W23280   5.860  17.736   2.729  0.1246 -0.2164  0.0965
 4427W        W23281   1.920   5.125   0.963 -0.2520  0.1233 -0.1150
 4428W        W23282  12.220   3.629   2.853  0.2155  0.0202  0.3098
 4429W        W23283   3.131   3.262  11.327 -0.1963 -0.3054 -0.0421
 4430W        W23284   0.882   9.114  13.404  0.2470  0.0900 -0.1196
 4431W        W23285  11.627   4.599  13.006  0.1940  0.1975  0.3125
 4432W        W23286  13.923  18.055  10.945  0.0633 -0.0125  0.1446
 4433W        W23287  13.611  13.987  11.712  0.0178 -0.0074 -0.0215
 4434W        W23288   0.449   2.475  12.839  0.0375  0.0996 -0.2293
 4435W        W23289  11.417   7.843   1.080  0.0364 -0.1533 -0.2294
 4436W        W23290   9.776   4.880   0.325 -0.2491 -0.3383 -0.0960
 4437W        W23291  15.757  11.257  13.207 -0.0130 -0.0457 -0.1362
 4438W        W23292   1.945  14.401  14.015  0.1143  0.1712  0.0884
 4439W        W23293   2.748   4.711   0.125  0.1189  0.0699  0.3216
 4440W        W23294   9.067  18.683  12.742  0.3229  0.0654  0.2128
 4441W        W23295  13.726  16.934  14.696  0.0021 -0.2245 -0.0283
 4442W        W23296   9.199   0.669   0.319 -0.1168  0.1097 -0.1706
 4443W        W23297  10.597   2.751  14.468  0.1424 -0.0251  0.1271
 4444W        W23298  10.551  17.451  13.761  0.0295  0.0464 -0.3241
 4445W        W23299  17.003  17.903  13.070  0.0832 -0.1591 -0.0792
 4446W        W23300   1.964   8.833  14.519 -0.0497  0.2141 -0.0211
 4447W        W23301  17.514   6.695  10.491 -0.1696  0.0592  0.3127
 4448W        W23302  10.770   9.067  13.321  0.2084 -0.1373 -0.2501
 4449W        W23303  11.131   7.883  13.352  0.0115 -0.5772  0.2823
 4450W        W23304   5.453  12.260  12.772  0.1754 -0.1446 -0.2725
 4451W        W23305  15.419   0.355  13.237 -0.1355  0.1659  0.0654
 4452W        W23306  18.397  15.962  11.642  0.0694 -0.1766 -0.2872
 4453W        W23307  17.892  17.120   1.521  0.4516  0.1967  0.0058
 4454W        W23308   9.665  17.837  12.734  0.2487  0.0032 -0.0843
 4455W        W23309  15.525   9.302  11.149  0.3533  0.0875  0.0306
 4456W        W23310  17.213  15.586  11.209  0.0220  0.1237  0.0499
 4457W        W23311   8.451   5.534  12.490 -0.0236  0.1575 -0.0361
 4458W        W23312   1.264   1.218  11.262  0.0772 -0.0070 -0.1012
 4459W        W23313   7.574   6.139   3.050  0.0105 -0.1828  0.1641
 4460W        W23314   6.159  12.063  13.503  0.0964  0.2643 -0.2444
 4461W        W23315   8.182   6.392   1.065 -0.0074  0.0379 -0.0863
 4462W        W23316   4.620   4.192   9.974 -0.0130  0.2186 -0.0361
 4463W        W23317   5.224  14.963  11.893 -0.2270 -0.1451  0.0250
 4464W        W23318   1.711  18.810  10.994  0.2456 -0.2035  0.0504
 4465W        W23319   5.644   0.929   3.462  0.1845 -0.3828  0.0815
 4466W        W23320  13.440   9.160   1.149 -0.1102 -0.0679 -0.2146
 4467W        W23321  15.452   8.946  13.880  0.1238  0.4296  0.2918
 4468W        W23322  12.863  17.875   2.368 -0.2297 -0.2991  0.2235
 4469W        W23323  13.379   9.892   0.652 -0.1247 -0.1813  0.0843
 4470W        W23324  13.779  18.259   0.015  0.0722  0.0122 -0.0536
 4471W        W23325  16.761   1.820  11.717  0.2871  0.0876 -0.2465
 4472W        W23326   2.782   3.381  14.906  0.2061 -0.1596 -0.1803
 4473W        W23327  15.257  10.374  10.907 -0.0559 -0.0531 -0.1738
 4474W        W23328  16.287   6.640   1.163  0.0005 -0.0393 -0.0646
 4475W        W23329   5.113  11.352   3.274  0.1638  0.2373  0.0477
 4476W        W23330   3.806  13.240   0.300 -0.1332 -0.2109 -0.2729
 4477W        W23331   0.997  17.598  14.342 -0.0818  0.2111  0.2749
 4478W        W23332  12.673   7.783  13.108 -0.1111 -0.2276  0.0002
 4479W        W23333  11.883   2.425  12.470 -0.3094  0.0513 -0.1593
 4480W        W23334   2.380  10.024  14.359 -0.0588 -0.3064 -0.0743
 4481W        W23335   2.219   9.532  12.157 -0.1357  0.0908  0.2045
 4482W        W23336   5.873   1.437  11.326 -0.0741 -0.0945  0.3637
 4483W        W23337  16.114  15.609   4.400 -0.5542 -0.0199 -0.3801
 4484W        W23338  11.581   8.257   9.997  0.1321  0.2634 -0.0094
 4485W        W23339  14.153  15.118   3.368 -0.4484 -0.0924 -0.0429
 4486W        W23340  10.592   6.554  14.113  0.1346 -0.1856 -0.0808
 4487W        W23341   1.839  14.589   2.927  0.2076 -0.0882  0.2786
 4488W        W23342  14.447   5.844  10.705  0.1371 -0.0814 -0.1854
 4489W        W23343  13.228  14.233  12.738 -0.0508  0.0020  0.0763
 4490W        W23344   8.876   9.794   2.428 -0.0181  0.1823  0.2910
 4491W        W23345   2.414  14.116   2.668 -0.1940 -0.0488 -0.1573
 4492W        W23346   2.381   9.009   3.754  0.0382 -0.2747  0.1212
 4493W        W23347  15.588   6.153  14.070 -0.0594  0.0740  0.0252
 4494W        W23348   1.521   2.049   3.154  0.1530 -0.0587 -0.1708
 4495W        W23349  10.618  17.840   3.691  0.0893 -0.1703  0.2553
 4496W        W23350  10.157  15.829   3.967 -0.0901 -0.1236  0.2349
 4497W        W23351  17.972  12.937   0.281  0.3820  0.0719  0.3655
 4498W        W23352  14.402  11.275  12.077  0.3436 -0.0314 -0.1043
 4499W        W23353   4.825  15.735   4.079 -0.0657 -0.1921  0.1432
 4500W        W23354   8.146  16.868  14.050 -0.1243  0.0225 -0.0399
 4501W        W23355   1.206  11.501  12.230  0.0761  0.2572  0.0730
 4502W        W23356   8.559   5.913   1.130 -0.3706  0.0687  0.0293
 4503W        W23357   4.522  17.104   4.199 -0.0956  0.0255 -0.1722
 4504W        W23358  14.821   9.811  12.813 -0.1180 -0.3877  0.2607
 4505W        W23359  11.682  15.004   0.444  0.1336  0.2098  0.0630
 4506W        W23360  17.269  10.234   9.594 -0.1188  0.0058 -0.0853
 4507W        W23361  15.163   9.573  15.063  0.1752  0.0283 -0.0048
 4508W        W23362   3.080  15.771   2.622 -0.2552 -0.3130  0.3586
 4509W        W23363  14.979   4.951  14.596 -0.0824  0.0361  0.0331
 4510W        W23364  10.267  13.341  10.003  0.0100  0.1259 -0.0666
 4511W        W23365   9.247   8.720  10.841  0.0924  0.5114  0.2553
 4512W        W23366   2.705   9.248  10.626  0.3352  0.1202  0.1446
 4513W        W23367   1.375  11.348  11.775  0.0315 -0.1081 -0.1180
 4514W        W23368  10.034  16.704   4.441 -0.0058 -0.1566  0.0746
 4515W        W23369   2.830   0.524   1.840 -0.2092  0.0096  0.0576
 4516W        W23370  12.980  13.262  10.555  0.1978  0.1801 -0.2213
 4517W        W23371  15.625   7.024   4.561 -0.3388  0.0147  0.1639
 4518W        W23372  16.389  18.562  14.977 -0.0139 -0.0642 -0.1210
 4519W        W23373  12.980   8.151   2.630  0.0174 -0.0718  0.1663
 4520W        W23374   8.853  13.659   2.928 -0.1288  0.1747  0.1270
 4521W        W23375   1.975   6.063  11.047 -0.2107  0.3868 -0.1596
 4522W        W23376   5.006  11.940  14.383 -0.2077 -0.1005  0.0674
 4523W        W23377  14.345   2.111  12.964 -0.1304  0.0109 -0.0766
 4524W        W23378   5.428   0.739  13.333  0.1008  0.1431 -0.0829
 4525W        W23379   6.386   8.375   0.421 -0.1079 -0.0179 -0.0457
 4526W        W23380   0.220  16.782  13.122  0.1406 -0.2239 -0.0386
 4527W        W23381   0.709   6.666   4.010  0.1609 -0.2204 -0.0460
 4528W        W23382   8.639   6.035  11.197 -0.2148 -0.0112  0.3190
 4529W        W23383   9.820   5.356  11.152  0.0919 -0.0613 -0.1690
 4530W        W23384   3.380   0.429   1.989  0.1478 -0.3168  0.1670
 4531W        W23385   4.500  15.719  12.245 -0.1108 -0.0162  0.2148
 4532W        W23386   6.401  14.941   3.749  0.0335 -0.1708 -0.0260
 4533W        W23387   7.218  17.731   1.668  0.3356  0.2876  0.0328
 4534W        W23388   8.511  10.226  11.804 -0.2040 -0.1610 -0.0460
 4535W        W23389  11.568  13.432  14.018 -0.3044 -0.3489 -0.0181
 4536W        W23390  12.520  17.236   2.021  0.2681  0.0664 -0.2449
 4537W        W23391   2.944   9.349  11.401  0.0278 -0.5383 -0.2290
 4538W        W23392   2.803   8.478   2.243 -0.2800  0.1076 -0.2022
 4539W        W23393  14.796  15.153  10.768 -0.0209  0.0634 -0.2307
 4540W        W23394   4.072   3.847   1.478 -0.2527  0.1192  0.1805
 4541W        W23395  13.076   6.105   3.947  0.2474  0.1064 -0.0946
 4542W        W23396   3.510  11.485  14.128  0.1199  0.1325  0.0784
 4543W        W23397  15.406  10.409  12.112  0.2262 -0.0745 -0.0040
 4544W        W23398  18.567   1.468   2.067  0.2503 -0.2127 -0.0981
 4545W        W23399   1.782   4.614  12.276  0.0311  0.1217  0.0839
 4546W        W23400  12.227   9.456  10.717 -0.0268 -0.0648  0.0923
 4547W        W23401   5.734  15.662   2.205 -0.1077  0.0071 -0.0824
 4548W        W23402   7.244   0.734  13.237  0.1616 -0.1921 -0.0654
 4549W        W23403  16.673   7.958  14.361  0.2146  0.1211 -0.2058
 4550W        W23404   3.765   2.976  12.578  0.1450 -0.2494  0.0171
 4551W        W23405   5.759  17.812  13.013  0.3298 -0.0880  0.1185
 4552W        W23406  10.192   6.125   4.776 -0.1825  0.2628 -0.0987
 4553W        W23407   1.895   4.186   4.311 -0.3659 -0.0312 -0.0049
 4554W        W23408   0.383  10.635   0.953  0.0627  0.0120  0.0951
 4555W        W23409   4.923   7.605  11.700 -0.0669 -0.1709  0.1030
 4556W        W23410   1.335   6.359   0.088 -0.0886  0.0297 -0.4018
 4557W        W23411   3.866   2.238   4.795  0.0949 -0.0693  0.0917
 4558W        W23412  18.450  12.186   2.823 -0.0867  0.0244  0.0857
 4559W        W23413  16.689   1.008  10.194 -0.0658  0.0432  0.1500
 4560W        W23414  16.990  10.580  15.074 -0.1014 -0.0456  0.1461
 4561W        W23415  16.367   0.392  13.928  0.2596  0.4132  0.4764
 4562W        W23416  17.737  15.108  12.112  0.1379 -0.1692  0.1676
 4563W        W23417  11.571  13.960   4.272  0.1855  0.0025  0.0798
 4564W        W23418  17.268  10.141  14.319  0.0872  0.2080 -0.1248
 4565W        W23419  10.890  14.535   3.443 -0.0394 -0.1370  0.0685
 4566W        W23420  12.510   1.039  13.521 -0.3371  0.1613 -0.1953
 4567W        W23421  18.384   9.760   4.283  0.1350  0.2582  0.0242
 4568W        W23422   4.280  14.662   4.982 -0.0441  0.1402 -0.3117
 4569W        W23423  15.682  10.227  13.107  0.2730 -0.2768  0.1722
 4570W        W23424  18.730   1.697  11.105 -0.1837  0.0653 -0.0843
 4571W        W23425   7.523   4.606  11.505 -0.0218 -0.2166  0.0007
 4572W        W23426   7.114   7.583   4.004 -0.0302 -0.2778  0.2124
 4573W        W23427  14.617   7.529   1.153  0.2153  0.2063 -0.1096
 4574W        W23428   9.992  15.381  10.695 -0.0345 -0.2401  0.2583
 4575W        W23429   5.095  13.381   0.120 -0.0242  0.1370 -0.1175
 4576W        W23430  18.708  15.263  14.170  0.2062  0.0701 -0.0431
 4577W        W23431   3.396   9.806  13.217 -0.2490 -0.1291 -0.0056
 4578W        W23432   1.918  13.929   0.819  0.0950  0.0495 -0.0250
 4579W        W23433   0.598   8.371   0.361  0.1938 -0.3153 -0.1063
 4580W        W23434   4.396   4.204  14.985 -0.0963 -0.0201 -0.0228
 4581W        W23435  15.142   5.968   1.520  0.2222  0.2296 -0.1907
 4582W        W23436   6.661   8.011  13.646 -0.0818 -0.3399  0.2949
 4583W        W23437  17.160  18.734  13.895 -0.0736  0.2136 -0.0091
 4584W        W23438   4.339   9.915  12.096 -0.1552  0.0644 -0.3473
 4585W        W23439   6.628  13.171  14.373 -0.1218  0.1500  0.0583
 4586W        W23440  15.190  12.630   3.816 -0.0003 -0.0198 -0.2006
 4587W        W23441   2.176  17.944  12.832 -0.1926 -0.0038 -0.0960
 4588W        W23442  16.651   6.920  12.132  0.1472 -0.1572  0.0081
 4589W        W23443   2.538   5.384  10.941 -0.1707 -0.0484  0.0161
 4590W        W23444   3.826  11.010   2.320  0.0846  0.1572  0.0111
 4591W        W23445  11.762   8.644   0.126  0.1325 -0.1104  0.0625
 4592W        W23446   6.346   4.355   2.593 -0.4628  0.0377  0.0567
 4593W        W23447  12.628  16.796   2.160  0.2281  0.1487 -0.0607
 4594W        W23448   9.599  15.681   4.244  0.1918 -0.1258 -0.0700
 4595W        W23449   8.669  15.756  11.110  0.0612 -0.2113  0.2191
 4596W        W23450   2.973   4.106   1.063 -0.2593 -0.2454  0.1080
 4597W        W23451  11.575  15.168   0.897  0.3961  0.0790 -0.2354
 4598W        W23452   4.499   5.406   3.267 -0.0053 -0.0342  0.2915
 4599W        W23453  16.622  16.877   2.093 -0.0414  0.0107 -0.2250
 4600W        W23454   3.879   0.512   3.955  0.0171  0.0080  0.1504
 4601W        W23455  10.277  10.417   2.109 -0.3426  0.2305 -0.1482
 4602W        W23456   9.967   7.811   3.604 -0.1491  0.3031 -0.1411
 4603W        W23457   8.304   5.955   4.569  0.0752 -0.2260  0.1095
 4604W        W23458  15.283  16.393   3.833 -0.0729 -0.0736  0.3545
 4605W        W23459  17.784   1.946   4.349 -0.2520 -0.0272  0.0624
 4606W        W23460   7.546   5.117  11.509  0.0255  0.3428  0.1874
 4607W        W23461  11.141   4.367  13.134 -0.0257 -0.2344  0.0870
 4608W        W23462  16.698   6.912  10.751 -0.0545  0.1276 -0.0384
 4609W        W23463  11.940  11.461   1.760 -0.1214 -0.2998 -0.2938
 4610W        W23464  12.971  17.370   0.729  0.2153 -0.0845 -0.0525
 4611W        W23465  16.969  10.713   4.086 -0.0419 -0.0040 -0.3113
 4612W        W23466   7.072  13.663   2.336  0.0268  0.0813 -0.0195
 4613W        W23467   6.106  16.164  11.601  0.2647 -0.1785 -0.1486
 4614W        W23468  14.077   3.274   1.978 -0.0194  0.1915 -0.0620
 4615W        W23469  16.536  11.958  13.990  0.0228  0.2964  0.3249
 4616W        W23470  12.243  14.574   3.294  0.0832  0.2943  0.0096
 4617W        W23471   1.785   3.855   1.779 -0.0293  0.2226 -0.1459
 4618W        W23472  16.401  15.592   0.384  0.0508 -0.0032  0.0478
 4619W        W23473  11.951   4.050  14.812 -0.0979 -0.0553 -0.0617
 4620W        W23474   9.857  11.591   3.410  0.0766  0.0688 -0.0020
 4621W        W23475   7.981   8.788  11.202  0.1563  0.1373 -0.0611
 4622W        W23476   2.515   6.133   3.801  0.0169  0.0879  0.1799
 4623W        W23477   9.283  17.921   3.827  0.2020 -0.1819 -0.1623
 4624W        W23478   3.943   5.645  12.498 -0.1972 -0.0056  0.4506
 4625W        W23479   8.381   4.554  14.862 -0.2588  0.0185 -0.2522
 4626W        W23480   0.533   8.741  12.082  0.2133 -0.0852  0.0393
 4627W        W23481  13.641   0.503  14.446  0.1317  0.0078 -0.0559
 4628W        W23482  18.838   2.083  13.558 -0.1277 -0.3376 -0.0402
 4629W        W23483   7.276  10.577  11.509 -0.0343  0.1420  0.0194
 4630W        W23484  14.955   5.029   0.817 -0.0999 -0.2046  0.4717
 4631W        W23485   8.822  12.207   9.873  0.3697 -0.0337 -0.1548
 4632W        W23486   8.419  15.902   2.563  0.4794  0.2421 -0.0452
 4633W        W23487  12.028   6.701   4.451  0.0898 -0.2334 -0.1634
 4634W        W23488   1.107  11.410  13.952  0.1668 -0.4648 -0.2123
 4635W        W23489  11.779  12.618   3.266  0.2188  0.1027 -0.0162
 4636W        W23490   6.311   6.438   4.270 -0.1230 -0.1737  0.1412
 4637W        W23491  13.007   5.995   0.756  0.0227  0.0947  0.1904
 4638W        W23492  13.536   7.425   0.796  0.1969  0.0899  0.0234
 4639W        W23493   2.813  14.708   0.629 -0.0397 -0.3546  0.2703
 4640W        W23494   5.154  13.782   1.137  0.2927 -0.2504 -0.1893
 4641W        W23495   5.183   1.684  13.511 -0.1994  0.0762 -0.0377
 4642W        W23496   9.266  14.278  10.868  0.1399  0.1640  0.0654
 4643W        W23497  15.875   0.251  14.280  0.3164 -0.1008 -0.4297
 4644W        W23498  13.032  18.411   0.156 -0.1305 -0.3116 -0.1838
 4645W        W23499  15.573   9.325  14.927  0.2158 -0.0942  0.0437
 4646W        W23500   6.324  14.359  12.464  0.5666  0.1255  0.1675
 4647W        W23501  15.599   8.008   0.138 -0.1789 -0.3916 -0.2589
 4648W        W23502  14.786  16.967   0.944 -0.1532  0.3698  0.0378
 4649W        W23503   1.567  16.382  11.624  0.3142  0.2093 -0.3081
 4650W        W23504   6.957   6.565   2.620  0.0693  0.0329 -0.3253
 4651W        W23505  14.997  18.473  14.607  0.4001  0.2073 -0.1899
 4652W        W23506  11.649   2.430  13.824 -0.1304  0.1260  0.1871
 4653W        W23507  17.665   6.877   3.409  0.1669 -0.1381  0.1369
 4654W        W23508  18.607  18.229   5.184 -0.0584 -0.0074  0.3270
 4655W        W23509  13.149   8.883  13.028 -0.1066 -0.2960 -0.1917
 4656W        W23510   9.451  13.814   2.228  0.1696 -0.0006 -0.2808
 4657W        W23511   6.458   9.997  10.557 -0.0618  0.2251 -0.0114
 4658W        W23512  14.689   5.811  11.165  0.1403  0.1713  0.0569
 4659W        W23513   2.566  11.001  12.278 -0.0679 -0.1064  0.0701
 4660W        W23514  14.140   0.756  11.857 -0.1814  0.0828 -0.0547
 4661W        W23515  10.424   1.791   0.331  0.2065 -0.0193 -0.3029
 4662W        W23516   2.863  11.465   9.732 -0.0225 -0.0602  0.0468
 4663W        W23517   0.003  18.309   4.171 -0.2864  0.0898  0.0559
 4664W        W23518   7.371  15.520  11.350  0.2673 -0.0719 -0.0747
 4665W        W23519  13.395   1.777   1.722  0.1414  0.3278  0.1510
 4666W        W23520   4.868  16.285  11.573  0.0354  0.0446 -0.3083
 4667W        W23521  17.113   7.449  12.125  0.0991 -0.1740 -0.0213
 4668W        W23522  14.587   1.903   2.477  0.0335 -0.0233  0.1010
 4669W        W23523  16.940   7.922   1.739 -0.1250 -0.0533  0.1095
 4670W        W23524   6.393   6.562  11.901 -0.1665 -0.2240 -0.0723
 4671W        W23525  16.831  16.624  14.303  0.1695 -0.1127  0.2799
 4672W        W23526  16.157   5.888   3.171 -0.1405 -0.0985 -0.0805
 4673W        W23527  12.767   4.891  11.841 -0.2348  0.0103 -0.0476
 4674W        W23528  12.097   5.273  12.845  0.1235  0.1390  0.0728
 4675W        W23529   5.573  11.291   4.103 -0.0583  0.1126  0.3615
 4676W        W23530  12.040   0.391  10.841 -0.0012  0.1732 -0.2777
 4677W        W23531   4.408  10.613  11.615 -0.0730 -0.1280  0.0363
 4678W        W23532   5.349   3.129   1.408 -0.2192 -0.0808 -0.2861
 4679W        W23533   2.677  14.807  12.565 -0.3310 -0.3305 -0.1238
 4680W        W23534   4.762  12.669   2.905 -0.0998  0.1682 -0.0718
 4681W        W23535   2.805   4.728  12.647 -0.1865  0.0906  0.0447
 4682W        W23536   7.566  15.260  14.630 -0.3173 -0.1346  0.1348
 4683W        W23537  11.140   9.922  14.439  0.0743  0.1215 -0.0807
 4684W        W23538   2.344   4.515  10.935  0.1938  0.4590  0.1866
 4685W        W23539  10.680   5.406   0.239 -0.2032  0.1531  0.1437
 4686W        W23540   0.451   3.702  13.586  0.0890 -0.0762 -0.2834
 4687W        W23541   0.108   8.501   3.948  0.1137 -0.0648 -0.3431
 4688W        W23542  10.875  18.377  11.202  0.3138 -0.0846  0.0795
 4689W        W23543   5.711  15.295   9.376 -0.1295 -0.0990  0.2655
 4690W        W23544   8.109   2.671   3.184  0.1866  0.1593 -0.0750
 4691W        W23545   3.745  16.299  13.979 -0.1486 -0.0788 -0.2495
 4692W        W23546   6.598  11.064  12.512  0.2673  0.0095  0.0719
 4693W        W23547   7.119  15.199   2.336  0.1036  0.3784  0.1335
 4694W        W23548  16.665   8.343  14.865  0.0358 -0.1059  0.2308
 4695W        W23549   5.333   7.125   0.169  0.0869 -0.0534  0.3379
 4696W        W23550  18.329   1.713   0.790 -0.0671 -0.1620  0.0670
 4697W        W23551   3.416   8.002   3.799  0.0295 -0.0529  0.1003
 4698W        W23552  14.779   1.059  10.706  0.0155 -0.3541  0.0300
 4699W        W23553   2.195  16.978  10.859  0.1800 -0.0759 -0.3248
 4700W        W23554   4.461  17.227  15.125 -0.1846 -0.0953  0.2255
 4701W        W23555   3.073  17.372   1.110 -0.1768  0.1884  0.2752
 4702W        W23556   2.064   9.929   2.346  0.1136 -0.0410  0.2128
 4703W        W23557  11.561  16.864   2.947 -0.2717  0.3117 -0.0423
 4704W        W23558   6.136   2.808  11.840  0.1530 -0.2360  0.1214
 4705W        W23559   3.681   5.738  15.063  0.2453 -0.1119 -0.1052
 4706W        W23560   6.704  17.735   1.742 -0.1127  0.0190 -0.1989
 4707W        W23561   9.305  12.315   2.297 -0.3297 -0.0148 -0.0614
 4708W        W23562  15.495  16.936   0.372 -0.1029  0.1757  0.1911
 4709W        W23563   5.238   0.720   0.798 -0.0880  0.1070  0.2802
 4710W        W23564  10.370   8.062   0.205  0.3471  0.0759  0.0172
 4711W        W23565  17.811   6.389   3.389 -0.0881  0.1850  0.2869
 4712W        W23566   6.810  14.071  12.475  0.0710 -0.1037  0.2011
 4713W        W23567  13.896   7.636  11.710  0.0879  0.0030  0.0743
 4714W        W23568  15.543  13.637  13.855  0.2817 -0.0677  0.0226
 4715W        W23569  15.499  10.465   2.895 -0.0000  0.2971 -0.1284
 4716W        W23570  16.008   9.011  12.536  0.2558  0.0457  0.1392
 4717W        W23571  17.028  18.460  14.313  0.1874 -0.0533 -0.1484
 4718W        W23572   8.706  18.667  11.080  0.2804  0.4429 -0.0156
 4719W        W23573  16.203  10.592  14.691  0.1229  0.0686  0.0813
 4720W        W23574   2.010  10.212  13.090 -0.0985  0.0841 -0.0413
 4721W        W23575  13.457  10.735  12.580  0.0115  0.0587 -0.0276
 4722W        W23576  14.090   2.460  14.562 -0.0855 -0.1005 -0.0742
 4723W        W23577   0.687   9.572  13.307 -0.0739 -0.1723 -0.0404
 4724W        W23578  10.083   4.050   2.631 -0.0284 -0.0977 -0.0353
 4725W        W23579   4.307   4.760   2.494  0.0906  0.1647  0.2504
 4726W        W23580  18.176   8.441   3.830 -0.1584 -0.0077 -0.2963
 4727W        W23581   2.527   1.230   4.351  0.0811 -0.0078  0.2443
 4728W        W23582  14.624   1.579  12.382  0.1701 -0.1594  0.1536
 4729W        W23583  16.837  10.659   2.105 -0.0928  0.2103 -0.0753
 4730W        W23584  11.647   3.330  13.535 -0.0524 -0.2929  0.0606
 4731W        W23585   5.799   9.305  11.386 -0.0430  0.4654 -0.2641
 4732W        W23586  11.013   5.942   0.940 -0.1555  0.2507 -0.0049
 4733W        W23587   1.351   5.115   1.753 -0.2197  0.2186 -0.0441
 4734W        W23588   5.385  13.744   4.173  0.3429 -0.1122  0.0623
 4735W        W23589  12.537  18.481  14.154 -0.1845 -0.0745  0.1252
 4736W        W23590  17.650   5.990  13.365  0.2050  0.1179 -0.3228
 4737W        W23591  15.842   1.308   2.970 -0.0865  0.1552  0.0242
 4738W        W23592  18.850   2.654   1.463  0.2615 -0.0554  0.1914
 4739W        W23593   0.902  13.033   2.455 -0.0577  0.2299 -0.1685
 4740W        W23594   8.763  15.420   0.633 -0.0203  0.2036 -0.3334
 4741W        W23595   4.671  15.018   3.304  0.1446 -0.1814 -0.1137
 4742W        W23596  16.220  14.232  12.234 -0.1912  0.0143  0.1054
 4743W        W23597  10.648   6.032  14.812 -0.0599 -0.1924  0.2965
 4744W        W23598  17.297   0.287   3.077 -0.2478 -0.1629  0.2165
 4745W        W23599   1.883  17.648   1.781 -0.2428 -0.1570 -0.0527
 4746W        W23600  18.084   8.934  11.549 -0.1327  0.0594  0.0773
 4747W        W23601   6.135   0.906  12.692  0.4927  0.0787  0.0329
 4748W        W23602   6.943  11.054   3.719  0.1238 -0.0271 -0.0103
 4749W        W23603   5.500  12.118   9.767  0.1782 -0.0179  0.0207
 4750W        W23604   1.957   3.738   2.669 -0.1057  0.2275 -0.0415
 4751W        W23605  17.574   1.418  14.607 -0.0110  0.0919  0.2400
 4752W        W23606  13.613  12.718   5.372 -0.1481  0.3487 -0.3239
 4753W        W23607  15.224   5.660  12.497  0.2503  0.2819  0.1428
 4754W        W23608   1.238   3.492   4.375  0.1492 -0.2700 -0.2407
 4755W        W23609  17.256  17.070   5.386 -0.3175  0.0257  0.1142
 4756W        W23610  17.430  17.357   2.285 -0.1986 -0.2462  0.0361
 4757W        W23611  17.927   7.045  13.223  0.1146 -0.0205  0.3003
 4758W        W23612   7.626  15.889  11.048 -0.2691 -0.0944  0.2460
 4759W        W23613  14.946   6.173   4.606  0.0626  0.1105 -0.0552
 4760W        W23614  11.650   8.071  14.497  0.0408 -0.1699  0.0181
 4761W        W23615  12.479  10.004   1.708  0.0916 -0.1030  0.0179
 4762W        W23616   1.040  15.665  13.101 -0.1545 -0.0994 -0.0082
 4763W        W23617   7.359  13.315   3.079 -0.2918  0.0160 -0.0502
 4764W        W23618   6.331   8.952  13.674  0.1408 -0.2017  0.1508
 4765W        W23619   3.312  12.426   9.610  0.1487 -0.0988 -0.1584
 4766W        W23620   7.712   1.751   4.694 -0.4496 -0.1169 -0.1525
 4767W        W23621   3.240  13.920   4.006 -0.3272 -0.2810  0.0441
 4768W        W23622  10.724   6.164  12.936  0.0709 -0.1766 -0.3167
 4769W        W23623  11.553  15.280  13.578  0.2153 -0.0761  0.0088
 4770W        W23624  11.453   9.845  12.653  0.2473 -0.1470 -0.0814
 4771W        W23625   3.111   5.448   0.684 -0.2250  0.3073 -0.2410
 4772W        W23626   1.097  15.346   3.461 -0.1091  0.2939 -0.1803
 4773W        W23627  18.297  10.365   4.640  0.2384 -0.1312 -0.0884
 4774W        W23628   5.611   7.992   2.432  0.3490 -0.2465 -0.0461
 4775W        W23629  14.808   6.625  11.621 -0.1043 -0.0883 -0.1459
 4776W        W23630   4.357   4.893   1.973 -0.2694  0.3568 -0.0067
 4777W        W23631   2.657  10.197  10.322 -0.1188  0.2417  0.1995
 4778W        W23632   9.187   8.161  15.100 -0.3921 -0.3302 -0.1670
 4779W        W23633   0.464  17.860   2.983  0.0260  0.3555  0.2478
 4780W        W23634   0.801   5.965  12.830 -0.1491 -0.2345  0.3475
 4781W        W23635  17.236   3.028  13.141 -0.2531  0.1361  0.0819
 4782W        W23636   8.033   0.887  13.621 -0.0601  0.0862  0.2147
 4783W        W23637   7.046   6.160  10.100  0.3331  0.1362  0.0124
 4784W        W23638   8.679  15.282  14.318 -0.0296 -0.0490  0.1860
 4785W        W23639  15.145  14.771  13.432 -0.1895 -0.0693  0.0558
 4786W        W23640   0.935  16.405   3.877  0.1952 -0.1130 -0.0969
 4787W        W23641   4.951   6.223  11.084  0.1189  0.2246 -0.0787
 4788W        W23642  15.360  11.946   3.613 -0.2474  0.0853 -0.1774
 4789W        W23643  11.957   2.829  13.517  0.2985 -0.2962  0.0792
 4790W        W23644  12.013  16.138  14.531  0.2047 -0.0059  0.0502
 4791W        W23645   0.178  12.534  13.802 -0.2087  0.1666 -0.0268
 4792W        W23646   2.015  13.351   5.022 -0.2770  0.2202  0.0687
 4793W        W23647  15.841   5.449  11.420 -0.1361  0.1125 -0.0000
 4794W        W23648   8.616   2.371   0.917 -0.0279  0.0646 -0.0851
 4795W        W23649   9.301   8.770   1.219 -0.1208 -0.2161  0.0521
 4796W        W23650   8.879   4.755   3.980  0.0172 -0.3021 -0.0844
 4797W        W23651   2.359   2.219  11.756  0.2259  0.0366  0.1886
 4798W        W23652   5.397   2.441  12.906 -0.2690 -0.1550 -0.2884
 4799W        W23653  12.213  18.049  14.859 -0.1681  0.0735 -0.1637
 4800W        W23654  13.295  11.035  14.399 -0.2058 -0.0848  0.0489
 4801W        W23655   7.975  13.609  12.122  0.3931 -0.0987  0.1561
 4802W        W23656  16.485  12.456   4.132  0.0469  0.1390  0.2694
 4803W        W23657   8.879   9.731  11.927  0.2126  0.1591  0.2741
 4804W        W23658   0.735  12.360  13.969  0.1491  0.3319  0.1290
 4805W        W23659   1.457  14.459   1.539  0.0168  0.3899  0.0478
 4806W        W23660   5.877  16.880   2.619 -0.0393 -0.0053  0.0068
 4807W        W23661   0.862  13.366  11.261  0.0352  0.0215 -0.3471
 4808W        W23662  14.023   9.593   1.656 -0.0673  0.2530 -0.0692
 4809W        W23663   7.814  11.086  13.331 -0.3197 -0.1626 -0.2627
 4810W        W23664  17.249   9.749   0.016 -0.0848  0.0421  0.1858
 4811W        W23665  18.291  13.034  14.682  0.0126 -0.1425 -0.0858
 4812W        W23666  10.546   3.150   4.401 -0.3289  0.2807 -0.1972
 4813W        W23667   0.464   4.916   2.265  0.0872 -0.0622  0.1739
 4814W        W23668  15.448   0.584   0.421  0.0702 -0.0565 -0.1234
 4815W        W23669   1.515   8.450   0.620 -0.2923 -0.0066 -0.3963
 4816W        W23670  14.240  16.100  12.152  0.0251  0.0692  0.0707
 4817W        W23671  12.836   3.910  12.951  0.1951 -0.2017  0.0578
 4818W        W23672  12.236   1.020  14.521 -0.1813  0.2258 -0.3101
 4819W        W23673   1.514  10.351  13.146 -0.0635 -0.0094  0.0750
 4820W        W23674  10.588  12.135   2.991  0.2620 -0.2961  0.1631
 4821W        W23675   8.846  18.159  12.047  0.1209  0.0941  0.1221
 4822W        W23676  16.364   1.556   5.484  0.1394 -0.0279  0.0929
 4823W        W23677   5.831  16.911  13.564  0.1240  0.3484 -0.0617
 4824W        W23678   1.729   9.048  12.388 -0.2913 -0.0860  0.1915
 4825W        W23679  17.899   3.864  13.280 -0.5217  0.0003  0.0068
 4826W        W23680   3.121   0.862   3.840  0.2871  0.1503  0.0253
 4827W        W23681   2.182   3.972   0.289 -0.1788  0.1053  0.0452
 4828W        W23682   6.643   0.133  13.707 -0.0604 -0.0061  0.0380
 4829W        W23683   4.577   7.158  10.810  0.0929  0.1199  0.0341
 4830W        W23684   8.627  10.827  11.293 -0.0492  0.0654  0.1012
 4831W        W23685  15.017   4.192  15.105  0.0349 -0.1034 -0.1650
 4832W        W23686  15.044   2.066  13.749  0.0938  0.0961  0.4331
 4833W        W23687   8.265   5.979   0.764  0.0455  0.0318  0.1643
 4834W        W23688   9.271  10.593  11.487  0.0582 -0.0268 -0.3662
 4835W        W23689   3.536   8.530   2.932 -0.0062 -0.0463  0.0702
 4836W        W23690  17.947   6.656  10.228 -0.0971  0.0499  0.0939
 4837W        W23691  16.623  17.329   1.755  0.0408 -0.1196 -0.0257
 4838W        W23692   8.433   8.525  11.884  0.1563  0.0968  0.4510
 4839W        W23693  17.064   2.083   5.117 -0.0812 -0.0547  0.1138
 4840W        W23694   1.055   9.926  13.116 -0.2193 -0.2315 -0.2214
 4841W        W23695   1.506  10.051  12.262 -0.1451 -0.0801 -0.1437
 4842W        W23696  10.534  11.991   0.185  0.3870  0.2004 -0.0638
 4843W        W23697  10.201  13.731   0.432 -0.0564 -0.1878 -0.1245
 4844W        W23698  14.419  15.419   4.841  0.3235  0.0111 -0.1109
 4845W        W23699   5.753   1.303  12.707  0.0472  0.1994  0.2260
 4846W        W23700   7.628   2.812   1.052 -0.2139  0.1839  0.0816
 4847W        W23701  15.925   6.126   0.447  0.2453  0.2127  0.1943
 4848W        W23702   0.082  17.241   1.966  0.3514 -0.1937 -0.1385
 4849W        W23703   5.604   9.560  13.041 -0.2773 -0.0933  0.1172
 4850W        W23704   5.116   1.467   1.458  0.1410 -0.1703  0.3062
 4851W        W23705   6.270  17.621   1.438  0.0835  0.0216  0.0161
 4852W        W23706  16.426   0.603   1.073  0.0347  0.0403 -0.1079
 4853W        W23707   1.123  17.838  13.483  0.1763  0.2059  0.1301
 4854W        W23708  15.478  16.111  11.804  0.2568  0.0825 -0.1930
 4855W        W23709  12.430   6.540   1.812 -0.2318 -0.0445 -0.0273
 4856W        W23710   1.856   9.393   5.259 -0.2462  0.0596 -0.3147
 4857W        W23711  15.394   1.538   3.811  0.0530  0.0799 -0.0989
 4858W        W23712  14.643   8.066   4.076  0.3172 -0.2308 -0.2612
 4859W        W23713   1.759   9.557  12.381 -0.0874  0.0216  0.1351
 4860W        W23714  15.184   5.014   2.021  0.0690 -0.1340  0.2492
 4861W        W23715   5.457  10.871  11.641 -0.0412 -0.3599 -0.3311
 4862W        W23716   9.054  15.799   1.816  0.0477 -0.0952 -0.1283
 4863W        W23717  11.631  11.514  14.650 -0.1366  0.2996 -0.3091
 4864W        W23718   5.794  18.711   3.801  0.0320 -0.3382  0.1124
 4865W        W23719  15.218   5.683  11.043 -0.0456  0.0462  0.2787
 4866W        W23720   6.812   5.539  12.307  0.1688 -0.0818  0.2544
 4867W        W23721   6.930  15.648  11.526  0.1095 -0.0450  0.0338
 4868W        W23722  10.610  16.495  13.726 -0.0247  0.3069 -0.2152
 4869W        W23723   2.017  11.419   1.435 -0.1340 -0.0024  0.1343
 4870W        W23724  10.011   7.271   1.908 -0.0191  0.0720 -0.0398
 4871W        W23725   1.008  15.072   1.399  0.1510  0.1126  0.2495
 4872W        W23726   1.761   8.633   4.233  0.2000  0.1704  0.3205
 4873W        W23727   0.873   9.600  10.751  0.1372  0.0397 -0.0670
 4874W        W23728   4.949   0.946   3.270 -0.2722 -0.0020 -0.1955
 4875W        W23729   5.473   7.161   1.684  0.0419 -0.2190 -0.0488
 4876W        W23730  12.731   4.904  10.480  0.1835  0.0394  0.1460
 4877W        W23731  10.418   4.273  11.026  0.0233  0.2287  0.0862
 4878W        W23732  10.394   9.628  13.976 -0.1109  0.0344  0.0955
 4879W        W23733  10.261  17.291  12.114 -0.1174  0.0803 -0.3399
 4880W        W23734  10.009   3.652  12.764 -0.2829  0.0701 -0.0781
 4881W        W23735   9.712   7.109   1.417  0.1640 -0.0299 -0.3965
 4882W        W23736  12.911  17.013   0.382  0.2439 -0.1519 -0.2786
 4883W        W23737   9.924  12.370   4.138  0.2728 -0.0297  0.0250
 4884W        W23738   3.506  13.077   1.347 -0.1027  0.0644  0.1110
 4885W        W23739   0.004   0.668  14.475  0.0859  0.2074 -0.1085
 4886W        W23740   2.402   1.513  10.614 -0.0604 -0.1412  0.0309
 4887W        W23741  13.664  17.610   3.413 -0.3020  0.3984  0.1511
 4888W        W23742  18.112  10.720  13.520 -0.1655 -0.0911 -0.5515
 4889W        W23743  10.172   1.078  13.502 -0.3325 -0.0150  0.1528
 4890W        W23744  18.271   1.499   1.613  0.1003 -0.1659  0.1826
 4891W        W23745   2.263   1.209  14.388  0.1314  0.0724  0.0636
 4892W        W23746   0.135  18.018  14.687 -0.0728 -0.1538 -0.0861
 4893W        W23747  14.257  17.014  11.107  0.1576  0.1531  0.1201
 4894W        W23748  10.452  15.980   0.479 -0.0451  0.1176  0.1878
 4895W        W23749  18.050  18.377  12.920  0.0576 -0.0191  0.1607
 4896W        W23750   7.701  11.764   0.150  0.2620 -0.4918  0.2433
 4897W        W23751  14.160  17.137   0.399 -0.0459 -0.1196 -0.3273
 4898W        W23752  18.623  10.202  11.225  0.2999  0.2111  0.1159
 4899W        W23753   4.744  11.920   4.688  0.0052  0.1159 -0.0109
 4900W        W23754  16.474   2.306  14.796 -0.0112  0.0771  0.0849
 4901W        W23755   6.128  17.651   3.669  0.0048  0.0296 -0.2230
 4902W        W23756   3.351  14.833  11.303 -0.0242  0.0033 -0.3157
 4903W        W23757   3.312  15.917  12.730 -0.4128 -0.2079 -0.1933
 4904W        W23758   4.841  10.678  13.891  0.0151  0.0836 -0.2170
 4905W        W23759  10.457   8.484  11.314 -0.1763  0.1359  0.3786
 4906W        W23760   7.304   1.846   2.705  0.0138  0.0880 -0.1721
 4907W        W23761   4.282  17.817   0.154 -0.0685 -0.2246 -0.1907
 4908W        W23762  14.788   0.113  14.562 -0.2477  0.1153  0.2182
 4909W        W23763  17.341  18.000  11.367  0.1081 -0.1873  0.3027
 4910W        W23764  13.181   6.795  14.081  0.4010  0.0213  0.2230
 4911W        W23765  10.162  15.881  12.325  0.0667  0.3884  0.0611
 4912W        W23766  11.661  10.795   5.402  0.5399 -0.1383 -0.3404
 4913W        W23767   7.552   8.736  13.375  0.5684 -0.0999 -0.1548
 4914W        W23768  18.208   4.161   1.981  0.0522 -0.0823 -0.3357
 4915W        W23769  10.092   7.191   3.123 -0.3617  0.0732 -0.1725
 4916W        W23770  12.224  13.650   4.819 -0.2906  0.0555 -0.0016
 4917W        W23771  13.901  11.845  15.018 -0.0735 -0.2432  0.0247
 4918W        W23772   5.098  14.307  10.390 -0.0375 -0.0016 -0.0560
 4919W        W23773   0.210   5.710   2.848  0.1859 -0.0366  0.2417
 4920W        W23774  11.020  18.831  10.887  0.0306  0.2545  0.1354
 4921W        W23775   6.748   0.550  13.463  0.2972  0.1341 -0.0619
 4922W        W23776  11.659   7.935   4.513 -0.4551 -0.0518  0.0495
 4923W        W23777  13.514   7.189  13.911 -0.0385  0.2198  0.2086
 4924W        W23778  15.639  11.501   9.892  0.3727 -0.0609 -0.2134
 4925W        W23779  15.138  13.477  13.068  0.1937  0.4265  0.0973
 4926W        W23780  17.774  17.523   5.652 -0.0841  0.0219 -0.0126
 4927W        W23781   5.713  16.080   1.981  0.0214 -0.0669 -0.1159
 4928W        W23782  14.073   8.423  11.643  0.1858 -0.1753 -0.0381
 4929W        W23783   4.214   1.829  12.033  0.1015 -0.0783  0.1537
 4930W        W23784   8.692  18.659  14.948 -0.1430 -0.0374  0.0104
 4931W        W23785  15.211   9.121  11.515 -0.0181  0.0920 -0.2438
 4932W        W23786   4.955   2.830   2.164 -0.0650  0.2280 -0.4056
 4933W        W23787  18.355   7.686   0.992 -0.2479  0.1937 -0.0502
 4934W        W23788  18.809  12.850  14.537 -0.2295  0.0989  0.4536
 4935W        W23789  10.080  12.807  12.030 -0.5177 -0.2027  0.0810
 4936W        W23790  10.978  17.842  13.704  0.1299  0.1941  0.0730
 4937W        W23791   4.691   9.778  12.878  0.0916 -0.0618 -0.1909
 4938W        W23792  16.495  16.633   3.623 -0.0303 -0.2278 -0.1013
 4939W        W23793  12.310  11.898   0.567  0.0164  0.0170  0.0414
 4940W        W23794  18.074  15.566   4.244  0.0007  0.3456 -0.0124
 4941W        W23795   0.194  14.625  11.339  0.2380 -0.0703 -0.0839
 4942W        W23796   6.786  14.950   4.749 -0.0124 -0.1256 -0.1748
 4943W        W23797   7.085  13.807  13.374  0.1982  0.1478  0.0276
 4944W        W23798  12.394   4.514   1.926 -0.0613 -0.1324  0.2329
 4945W        W23799   0.149  13.013   1.027  0.1820 -0.0369  0.1045
 4946W        W23800   6.635   2.087   0.751 -0.3708 -0.2120  0.1986
 4947W        W23801   3.041   9.563   9.656  0.1163 -0.0578 -0.0845
 4948W        W23802   9.535   1.429  14.364  0.0742 -0.0999 -0.2285
 4949W        W23803   7.563   7.430  10.833 -0.0003 -0.0933 -0.0782
 4950W        W23804   5.806   5.970   3.461 -0.0865 -0.1726  0.2590
 4951W        W23805   3.850  15.698   2.248  0.0641  0.0384 -0.2077
 4952W        W23806  16.047   3.870  10.964 -0.2401  0.2430 -0.2103
 4953W        W23807   9.031  11.499   4.700 -0.1308 -0.1114 -0.1283
 4954W        W23808   7.438   5.148   0.044  0.2832  0.2713  0.0392
 4955W        W23809  14.985  17.675  15.095  0.0967 -0.0334  0.0852
 4956W        W23810  17.387   3.620   0.805 -0.1947  0.0303 -0.0672
 4957W        W23811  10.467  12.652   0.479 -0.0783 -0.0130 -0.1063
 4958W        W23812  10.623   5.243   2.868  0.0854  0.0246  0.0431
 4959W        W23813  10.152   1.926   0.724  0.1611  0.1103 -0.0348
 4960W        W23814   8.631   4.167  12.999  0.2241  0.0527 -0.2648
 4961W        W23815  11.588   9.091  14.343 -0.1235  0.2435  0.1175
 4962W        W23816  15.476   2.175  14.903  0.2857  0.0274 -0.0344
 4963W        W23817  10.303   6.608  12.254  0.2378  0.2542 -0.2864
 4964W        W23818   7.217  18.618  11.789 -0.0728 -0.2061 -0.2893
 4965W        W23819   7.296   6.517   0.703  0.0353 -0.1135  0.3422
 4966W        W23820  18.073  18.589  14.839 -0.2412  0.0597  0.1380
 4967W        W23821  11.840   2.812   4.146 -0.0374  0.0037  0.0948
 4968W        W23822  16.952   3.028   2.561 -0.0088  0.0281 -0.1961
 4969W        W23823  17.759   3.255   3.766 -0.0670 -0.0021  0.3242
 4970W        W23824   0.110   6.766   3.734 -0.1776 -0.0329  0.3516
 4971W        W23825   1.307  13.125  11.054 -0.2016  0.1119  0.1173
 4972W        W23826  16.737  10.871   3.157 -0.1769  0.2021 -0.2037
 4973W        W23827  15.681  11.069   3.459 -0.0577 -0.3125  0.0453
 4974W        W23828   4.032  14.772  12.970  0.0446  0.3575  0.1574
 4975W        W23829   9.292  18.493  11.450  0.1259 -0.0431  0.0010
 4976W        W23830   3.784  10.752  12.388 -0.0297  0.0892 -0.1623
 4977W        W23831   6.976   9.576  13.202 -0.0070  0.2015  0.1397
 4978W        W23832   5.548  15.724  13.587 -0.4371  0.0163 -0.2944
 4979W        W23833   4.525   9.437  12.199  0.1204 -0.1280 -0.0959
 4980W        W23834   9.615  16.120  10.867 -0.0939  0.3019  0.0151
 4981W        W23835  16.341   1.912   1.433  0.2264 -0.1947 -0.2613
 4982W        W23836   4.805  10.541  11.229 -0.0589  0.1542 -0.3306
 4983W        W23837  15.876   5.359   3.141  0.1079 -0.0208  0.0178
 4984W        W23838  14.679   9.923   0.890  0.1953  0.0367 -0.0902
 4985W        W23839   7.287  17.147   0.696  0.2427  0.1465 -0.1347
 4986W        W23840  16.837  13.373   1.363 -0.3433  0.0368  0.6434
 4987W        W23841   2.476   2.432   4.459  0.0851 -0.0314  0.0980
 4988W        W23842   2.734   9.750  11.660 -0.2815  0.1535 -0.1599
 4989W        W23843   6.216  10.935  14.496 -0.0692 -0.2510 -0.1455
 4990W        W23844   6.547  10.685   1.778  0.1337 -0.0368  0.0146
 4991W        W23845   9.054   7.768   2.488 -0.0285 -0.3541 -0.1121
 4992W        W23846  14.111   4.037   4.535  0.3039  0.3456 -0.1599
 4993W        W23847   2.776   9.962   3.927 -0.1325  0.1023  0.0410
 4994W        W23848   6.150   0.820   1.059  0.2639 -0.0535 -0.3169
 4995W        W23849   4.912   8.680   4.508 -0.3513 -0.1458  0.0637
 4996W        W23850   9.257   2.639  13.878 -0.0493 -0.1414 -0.2110
 4997W        W23851   7.455   9.078   0.792  0.0625  0.0449  0.1551
 4998W        W23852   8.419  14.778  11.643 -0.1586 -0.1406 -0.0381
 4999W        W23853   2.100   1.497   5.586  0.1934  0.0653  0.2584
 5000W        W23854  10.813  10.454   3.705  0.2383 -0.3473 -0.0601
 5001W        W23855   6.720  12.136  10.171 -0.0915  0.1692 -0.2355
 5002W        W23856   2.741  13.133   3.695 -0.0184 -0.2770  0.1390
 5003W        W23857   6.138  11.904   3.565 -0.2776  0.1653  0.1811
 5004W        W23858   5.785   5.165  14.459 -0.0638  0.1513  0.1396
 5005W        W23859  18.106   4.071   4.745  0.1491 -0.1312 -0.0090
 5006W        W23860  15.237  16.891  12.843 -0.0886 -0.0551 -0.4038
 5007W        W23861  10.872  14.685  12.872  0.0344 -0.1459  0.1400
 5008W        W23862   6.224   9.984  11.537 -0.1718  0.2722  0.1546
 5009W        W23863   2.260  12.009  12.049  0.1859  0.0529  0.0857
 5010W        W23864   1.367   9.455   1.950  0.2967 -0.0488  0.0503
 5011W        W23865   1.236   4.180   1.718 -0.0468 -0.0636 -0.1060
 5012W        W23866  16.939   5.608   2.593  0.1163 -0.0723  0.3615
 5013W        W23867   1.941   1.674  12.369 -0.0421 -0.0694  0.3623
 5014W        W23868   6.942  18.342   2.353 -0.0060 -0.1475 -0.1087
 5015W        W23869   1.720  12.310   4.086 -0.0345  0.0385 -0.0123
 5016W        W23870   8.241   9.429  12.335 -0.1935 -0.0578  0.0577
 5017W        W23871  12.287   5.697   3.411  0.0252  0.0046 -0.0454
 5018W        W23872  15.512  13.923  14.668  0.0362  0.0078 -0.1741
 5019W        W23873  10.365  12.651  11.110  0.2306 -0.4075  0.1899
 5020W        W23874   1.490  12.108   2.098 -0.0536 -0.2053  0.2038
 5021W        W23875   3.693  10.521   1.270 -0.2331 -0.1600 -0.2577
 5022W        W23876   3.457  15.308  11.383  0.0521 -0.0932 -0.1067
 5023W        W23877  14.709  14.940  14.201  0.1851  0.1063 -0.1544
 5024W        W23878   2.356  12.090   3.089  0.0103  0.0326 -0.1121
 5025W        W23879   8.834   7.906  14.277  0.0959  0.0306 -0.1702
 5026W        W23880  13.533   6.367   3.966 -0.2550 -0.1806 -0.1594
 5027W        W23881   5.108  13.959   0.286 -0.1553  0.1144  0.0174
 5028W        W23882  16.476  10.171  14.090 -0.2696 -0.1613  0.1671
 5029W        W23883  14.093   7.650  14.737  0.1235  0.0639 -0.1559
 5030W        W23884  15.629   7.037   2.357  0.2093 -0.1634 -0.0829
 5031W        W23885   9.567  14.713   0.136  0.0950  0.2333  0.2193
 5032W        W23886   4.144   1.039   2.308  0.1464  0.0258  0.0273
 5033W        W23887   3.991   3.109  11.364 -0.1969  0.2474  0.2111
 5034W        W23888   7.310   9.842  13.482  0.2388  0.0413 -0.1778
 5035W        W23889   4.493  16.604  14.718  0.1187 -0.1001 -0.2242
 5036W        W23890   3.312   4.052   1.897 -0.0315  0.2433 -0.0203
 5037W        W23891   6.608   7.824  11.058 -0.0045  0.2776  0.1598
 5038W        W23892  15.115  17.423  13.806 -0.2902  0.1597 -0.2820
 5039W        W23893  15.530   2.719   2.306  0.0188  0.0388 -0.2186
 5040W        W23894  17.456   1.664  12.973 -0.4620  0.1591 -0.1316
 5041W        W23895   4.495  17.754   1.294 -0.0550 -0.3588  0.0028
 5042W        W23896  18.224   1.963  14.150  0.1531  0.4060 -0.0553
 5043W        W23897  10.431  18.110   2.858 -0.1374 -0.0838 -0.0383
 5044W        W23898   1.399   3.159   3.579 -0.2174  0.2025 -0.2612
 5045W        W23899  14.997   3.732  12.611  0.0382  0.2123 -0.1030
 5046W        W23900   1.029   5.430  10.997  0.0948 -0.2035 -0.0655
 5047W        W23901   2.016  13.565  14.573  0.0644  0.0987  0.0196
 5048W        W23902  14.421  13.537   0.020 -0.0353 -0.1151  0.3888
 5049W        W23903  12.829  14.194   3.939  0.3376  0.1810  0.0295
 5050W        W23904   5.399  15.212  14.802 -0.0287  0.3126  0.0912
 5051W        W23905  13.987   5.467   3.000 -0.3089  0.2783  0.0016
 5052W        W23906  12.054   5.059  14.550 -0.0134  0.0790 -0.1854
 5053W        W23907  13.384  11.727  14.804  0.0241  0.1218 -0.0532
 5054W        W23908   8.516   3.370  14.795 -0.1524  0.1329 -0.2147
 5055W        W23909  10.916   0.226   0.667 -0.1095 -0.0153 -0.3515
 5056W        W23910   5.875   3.274  14.053  0.1327  0.1689  0.1193
 5057W        W23911  18.703   1.859   4.190 -0.1196 -0.0307  0.3189
 5058W        W23912   5.872  15.105   4.367 -0.0441  0.0929  0.4306
 5059W        W23913   0.719   2.104   2.357 -0.1555 -0.1230 -0.0937
 5060W        W23914   2.660  15.490  11.955 -0.1347  0.2378 -0.2760
 5061W        W23915  13.857  14.221  10.751 -0.2328  0.0760 -0.2723
 5062W        W23916   8.686   8.727  13.726  0.1318 -0.0809 -0.2064
 5063W        W23917  16.525  15.081   0.073  0.2360 -0.0426  0.0939
 5064W        W23918  11.161  16.041  13.974  0.0527  0.3232  0.2542
 5065W        W23919   6.005  14.989   2.663  0.0122  0.4519  0.1477
 5066W        W23920   2.256  15.396   1.494  0.3102  0.1151  0.0456
 5067W        W23921   5.246   8.384  11.327 -0.3538 -0.1049 -0.0300
 5068W        W23922  10.615  11.146   0.846 -0.0757  0.0773 -0.1568
 5069W        W23923   2.734   8.530   1.118  0.2594  0.3328 -0.1430
 5070W        W23924   5.230   6.518  13.844  0.1056  0.1842  0.0140
 5071W        W23925   8.595   5.899  13.303 -0.1585  0.4115 -0.0666
 5072W        W23926   0.192   6.613  12.304  0.1694  0.1867 -0.1687
 5073W        W23927  11.636  16.054   5.548  0.0119 -0.3018 -0.2420
 5074W        W23928  17.032   6.772   1.812  0.0895  0.0114 -0.0597
 5075W        W23929   8.547   1.904  11.712  0.0767  0.0174 -0.1230
 5076W        W23930  10.026  12.459   0.643  0.0545 -0.1847 -0.2536
 5077W        W23931   3.970  10.064   3.464  0.2269 -0.0099 -0.0821
 5078W        W23932   3.499  14.529   1.596 -0.0921  0.2695  0.2627
 5079W        W23933  14.663  17.911   1.019 -0.1548  0.2063 -0.0823
 5080W        W23934   8.389   7.583   0.291  0.1101 -0.1266  0.0732
 5081W        W23935   3.801  10.890   3.972  0.0075  0.1670 -0.1238
 5082W        W23936  11.537   4.981   1.796  0.0295  0.0720  0.0280
 5083W        W23937   4.385   0.713   4.286 -0.2844  0.2150  0.0419
 5084W        W23938   1.430  15.160  11.971  0.0328 -0.0628 -0.0889
 5085W        W23939   0.125  12.427  14.745 -0.1268 -0.0758 -0.4804
 5086W        W23940   7.197  15.290   2.819  0.2712  0.0397 -0.1068
 5087W        W23941  13.040  18.776  12.930  0.0873 -0.0494 -0.1214
 5088W        W23942  11.889  14.504   0.708  0.2368 -0.0541  0.1642
 5089W        W23943  18.336   7.653   3.369  0.1784 -0.0035 -0.0362
 5090W        W23944   7.712  11.174   1.148 -0.1227 -0.0646  0.0421
 5091W        W23945   7.498  13.564  13.715 -0.1118  0.0742 -0.0471
 5092W        W23946   4.216  13.851  10.272 -0.1901 -0.0580  0.0040
 5093W        W23947   3.219  16.654   2.481  0.0603 -0.2133 -0.0411
 5094W        W23948   8.247   1.959   0.946  0.1639 -0.0325 -0.1706
 5095W        W23949  12.402  14.226  12.372  0.4263  0.1313  0.0117
 5096W        W23950   2.539   9.610  13.412 -0.3058  0.0189 -0.0780
 5097W        W23951  18.258  13.229   1.028 -0.2050  0.1560 -0.1737
 5098W        W23952  18.506   0.894   2.337 -0.2850 -0.3547 -0.2715
 5099W        W23953   2.713  16.324  11.299 -0.2003  0.1778  0.0876
 5100W        W23954   6.638  13.335   1.520  0.0984 -0.0400 -0.1240
 5101W        W23955   7.354   0.714   1.851  0.1633 -0.0900  0.7230
 5102W        W23956   4.108  17.023   2.578  0.0907 -0.0842 -0.1566
 5103W        W23957   8.712  18.229  10.718  0.0059 -0.2117  0.1369
 5104W        W23958   2.850   9.168   0.460  0.2328  0.0636 -0.1685
 5105W        W23959   0.417   5.590  11.262  0.0943  0.0241  0.2876
 5106W        W23960   8.683  16.590   0.594  0.0598 -0.1318  0.0001
 5107W        W23961  13.346  13.766   1.119  0.0137 -0.1706 -0.3069
 5108W        W23962   0.317   5.209   1.128 -0.1365  0.0072  0.0067
 5109W        W23963   7.143   2.544  11.249  0.1963  0.0669 -0.0132
 5110W        W23964  11.356  17.664  15.075 -0.2123 -0.1369  0.1775
 5111W        W23965  11.499   1.722  12.035 -0.1587 -0.2822 -0.1750
 5112W        W23966  16.539   9.828   0.266 -0.1587  0.3639 -0.3961
 5113W        W23967   3.718   5.477   3.818 -0.3353 -0.0575 -0.0563
 5114W        W23968   5.914   0.599  15.098  0.1508 -0.0493 -0.3190
 5115W        W23969  14.094   5.232  11.972  0.1024 -0.1113  0.1546
 5116W        W23970   5.654  11.349  11.744 -0.0387 -0.2768 -0.1653
 5117W        W23971  13.494   8.586   2.792 -0.3614  0.1028 -0.0142
 5118W        W23972   9.078   7.210  12.876 -0.4570  0.0905 -0.0885
 5119W        W23973  10.832   3.450  12.163  0.1362  0.1119  0.1783
 5120W        W23974   1.436   9.131   1.071 -0.1498 -0.1822 -0.0770
 5121W        W23975  11.221   0.061  11.370  0.1669 -0.0017 -0.3634
 5122W        W23976   4.082   7.133  13.548  0.1242 -0.1211  0.0674
 5123W        W23977   5.431   3.384   3.200  0.0277 -0.3369  0.0488
 5124W        W23978  17.239   6.482  12.074  0.0660 -0.2191  0.1910
 5125W        W23979   7.491  11.200   2.903  0.0985  0.0069  0.0229
 5126W        W23980   7.326   6.575   3.092  0.1728  0.0148  0.0982
 5127W        W23981   4.711   8.492  12.089 -0.0910  0.2194 -0.0753
 5128W        W23982   5.749   8.407  14.592  0.1548  0.0768 -0.0248
 5129W        W23983  13.805  14.909  14.687  0.0979 -0.0404  0.1569
 5130W        W23984  13.430  13.363  13.103 -0.0867  0.0301  0.0838
 5131W        W23985   8.056   3.442   0.413  0.4198  0.2732 -0.2348
 5132W        W23986  18.284   1.287  12.568 -0.0863  0.1021  0.1792
 5133W        W23987   0.790  14.509  14.049  0.1788 -0.0763 -0.5009
 5134W        W23988  16.526   3.047  13.863  0.1489 -0.0615 -0.2622
 5135W        W23989  16.048   2.589  12.597 -0.0013  0.2199  0.3414
 5136W        W23990  11.022   7.095   2.739  0.0140 -0.0808  0.1795
 5137W        W23991  15.697   4.037   1.768 -0.0645 -0.0449 -0.1584
 5138W        W23992   1.548  17.663  13.821  0.2441 -0.2489 -0.1564
 5139W        W23993   7.633   4.756   0.284  0.1052  0.2931 -0.0104
 5140W        W23994   8.103   1.222  14.046 -0.3927  0.0801 -0.2770
 5141W        W23995  11.129   7.243   3.729 -0.1021 -0.1079 -0.1845
 5142W        W23996   9.702   3.325  10.378 -0.2730 -0.1026 -0.1802
 5143W        W23997   7.818   0.695   3.665 -0.1359  0.0904 -0.1613
 5144W        W23998  15.975  11.683  12.065  0.0591 -0.0111  0.1299
 5145W        W23999  11.494  14.048  13.325  0.0293 -0.4075 -0.1288
 5146W        W24000  14.394  14.258  13.592 -0.2427 -0.1506 -0.0616
 5147W        W24001   6.000   1.595  13.060  0.0015  0.2697  0.0808
 5148W        W24002  18.847   6.350   1.199  0.0645  0.0729  0.3316
 5149W        W24003  17.323   4.709  13.635 -0.0097  0.1762  0.0131
 5150W        W24004   5.523  12.287   3.222 -0.0015 -0.1262  0.2677
 5151W        W24005   7.449  16.731  10.955 -0.0694 -0.0387 -0.1318
 5152W        W24006   4.062  12.193  12.626  0.0821 -0.2227 -0.3891
 5153W        W24007  11.995   3.425   3.355 -0.1284 -0.2449  0.1936
 5154W        W24008  15.062   4.084   3.476 -0.1103  0.1392 -0.0106
 5155W        W24009   6.046   5.891  13.695  0.0606  0.0462 -0.0341
 5156W        W24010   1.949   3.839   1.227 -0.1792  0.0853 -0.1702
 5157W        W24011  15.983  16.161  10.024 -0.4490  0.2473  0.0015
 5158W        W24012   7.387  14.565   1.750 -0.1566  0.0318 -0.1516
 5159W        W24013  16.939  17.420  12.815 -0.0668 -0.0728 -0.1570
 5160W        W24014   0.826   7.086  10.388  0.0724 -0.2148  0.2088
 5161W        W24015   9.971  12.512  13.513 -0.0458 -0.2622  0.2505
 5162W        W24016  13.866  14.159   3.998 -0.1881  0.0798  0.0862
 5163W        W24017  12.747   6.553  14.030  0.0245 -0.3884  0.0899
 5164W        W24018  17.856   9.570   1.151 -0.1556 -0.0429  0.2365
 5165W        W24019  10.911  10.760   2.280  0.0073  0.2645 -0.1206
 5166W        W24020  10.209   8.783  13.652 -0.1675 -0.0053  0.1318
 5167W        W24021  17.039   1.260   2.766 -0.3856 -0.0148  0.0890
 5168W        W24022  14.567   5.226   4.388 -0.0049  0.0517 -0.0076
 5169W        W24023   6.420   3.528  13.986 -0.0503  0.1047  0.2231
 5170W        W24024  14.769   4.641  10.293  0.2773 -0.0397 -0.1737
 5171W        W24025   5.266   2.032   2.797 -0.0356  0.0416 -0.0987
 5172W        W24026   9.012  11.070   2.291  0.0963 -0.0460 -0.1782
 5173W        W24027  17.047   5.130  10.243  0.1885  0.0105  0.0243
 5174W        W24028   9.838   3.220   0.088  0.3406  0.1710 -0.0382
 5175W        W24029   4.657  18.089   2.139  0.0715 -0.2600  0.2710
 5176W        W24030  18.524   1.148   5.362 -0.2624  0.1814  0.0488
 5177W        W24031  10.292   5.805  12.854 -0.1290  0.2137  0.2686
 5178W        W24032   3.097   0.915   5.679  0.2164  0.3126  0.0473
 5179W        W24033  14.715   2.766  14.758  0.0580 -0.2553  0.2334
 5180W        W24034  17.172   8.211   1.141 -0.1066 -0.0689  0.3812
 5181W        W24035   0.995   9.335  12.066  0.1113 -0.2444  0.0626
 5182W        W24036   7.827   2.106   1.369  0.0374 -0.2706  0.0460
 5183W        W24037   9.275   3.458  12.616  0.2033  0.0462 -0.4513
 5184W        W24038   4.246  10.584  11.138  0.1279 -0.2562  0.0034
 5185W        W24039   2.845  12.358   3.138 -0.2439  0.1782  0.2541
 5186W        W24040   3.619   6.057  12.706  0.3649 -0.0248  0.0337
 5187W        W24041   7.792   2.637   0.398  0.1959  0.3127 -0.1402
 5188W        W24042  16.740   8.489  13.434 -0.0996  0.1360  0.3164
 5189W        W24043  16.924  18.154  11.686 -0.1159 -0.0314 -0.0941
 5190W        W24044   8.915   1.148  12.747  0.0164  0.0451 -0.1381
 5191W        W24045   0.982   3.759   3.060 -0.1976  0.1344 -0.0142
 5192W        W24046   3.826   0.485   1.670 -0.0322 -0.0228  0.2076
 5193W        W24047  12.346   4.902   4.090 -0.1669  0.3778  0.0338
 5194W        W24048   5.287   0.195  14.166  0.0488  0.0773  0.2157
 5195W        W24049   6.307   9.001   2.757 -0.4941 -0.2348 -0.2819
 5196W        W24050   4.844  15.934  11.945  0.2562  0.1408  0.0978
 5197W        W24051  13.872  15.016  13.577  0.2334  0.0500 -0.2369
 5198W        W24052   9.579  11.631   0.227  0.0337 -0.1253 -0.1628
 5199W        W24053   7.581   1.082  13.904 -0.1754 -0.0311  0.0432
 5200W        W24054  18.125  10.881   3.819  0.1682 -0.0006  0.2092
 5201W        W24055   4.838  14.754  11.695  0.2897  0.1069  0.0241
 5202W        W24056  15.137   2.377   5.233  0.2590 -0.0241  0.2848
 5203W        W24057   1.391   2.191   3.946  0.2434  0.0214  0.1456
 5204W        W24058   6.414  14.406   1.572 -0.1487  0.0872  0.1151
 5205W        W24059  15.525  12.982   3.568  0.2186 -0.1233 -0.0064
 5206W        W24060  15.362   1.134  12.169 -0.1536  0.0313 -0.0147
 5207W        W24061  18.005   2.753  15.126  0.0059 -0.1970 -0.1335
 5208W        W24062  13.938   6.337   0.783 -0.1215  0.0552  0.1042
 5209W        W24063   8.682   1.662  12.170 -0.1711  0.2385 -0.1395
 5210W        W24064   1.542   5.403   3.085  0.0423  0.0661  0.1529
 5211W        W24065   4.182   4.626   0.720  0.0323  0.1236 -0.1909
 5212W        W24066   0.354   1.967   3.895  0.1294 -0.0941 -0.1786
 5213W        W24067  12.161   8.890  13.450  0.2633  0.1122 -0.0531
 5214W        W24068  14.340   9.758   4.397 -0.0549  0.2201 -0.3715
 5215W        W24069   8.373   6.082   2.102  0.1344 -0.1587  0.0514
 5216W        W24070  13.515  13.166  14.296  0.0560  0.1267 -0.0202
 5217W        W24071  13.768   5.760  12.441  0.0162  0.0465 -0.0556
 5218W        W24072  16.208   0.627  14.328  0.2372 -0.1827 -0.0825
 5219W        W24073  14.126  18.006  12.020 -0.0994  0.0839 -0.2306
 5220W        W24074   2.838  12.120  10.828  0.3749  0.2393  0.2901
 5221W        W24075  11.060  17.398  13.970 -0.0314 -0.1823  0.0525
 5222W        W24076   7.934   4.055   1.054  0.4346 -0.0922  0.1393
 5223W        W24077   7.832  10.825   3.092 -0.1083 -0.0413  0.0267
 5224W        W24078   0.147   5.047   3.407  0.1053 -0.0634  0.2365
 5225W        W24079   4.905   2.923   3.644 -0.1640  0.2798  0.1729
 5226W        W24080   2.040   5.222   4.367 -0.1244 -0.0058  0.4716
 5227W        W24081  12.728   9.119   1.514  0.1272 -0.1448  0.0062
 5228W        W24082   4.905   1.389  12.814  0.2584  0.0330 -0.1890
 5229W        W24083  11.867  16.053   1.328  0.4525 -0.1675  0.1101
 5230W        W24084  14.836  11.461   0.656 -0.2920  0.1027  0.1712
 5231W        W24085  17.231   4.756  11.672  0.1951  0.0317  0.0931
 5232W        W24086  12.563   8.025   4.121 -0.1750 -0.1444  0.3262
 5233W        W24087  15.376   3.225  13.590 -0.0931 -0.1403  0.0965
 5234W        W24088   0.215   1.761   2.483  0.0420 -0.2604  0.2451
 5235W        W24089   0.273   3.385   3.560  0.3688 -0.0661 -0.1603
 5236W        W24090   7.630  17.788  11.422 -0.1007 -0.3217 -0.0302
 5237W        W24091  17.501   6.803   0.990 -0.1512 -0.4018 -0.0145
 5238W        W24092  12.250  11.562  10.732  0.0348 -0.0306 -0.0468
 5239W        W24093   1.613  15.004  15.021 -0.2682  0.2716 -0.1131
 5240W        W24094  10.834   0.536  14.817 -0.2365 -0.0755  0.1474
 5241W        W24095   8.067  12.144   3.938  0.0793  0.0239 -0.4227
 5242W        W24096   4.789  14.587  13.093  0.0105  0.3372 -0.0282
 5243W        W24097  11.015   0.713   0.823  0.3362  0.0600  0.1460
 5244W        W24098  15.812   4.813   0.446  0.1827 -0.0618  0.0046
 5245W        W24099   8.633  16.649  11.400 -0.3540 -0.1048 -0.1611
 5246W        W24100   6.905   4.621  11.266 -0.2914  0.1085  0.3516
 5247W        W24101  13.982   2.602  12.778 -0.0349 -0.2405 -0.0006
 5248W        W24102   2.937  13.123  12.347 -0.1106  0.0058 -0.4558
 5249W        W24103  18.243   6.763  13.691  0.1633  0.2219 -0.1805
 5250W        W24104   6.178  15.232  11.911 -0.0742 -0.0467 -0.2978
 5251W        W24105   0.376   5.353  10.687  0.2110 -0.1499 -0.2312
 5252W        W24106  18.260   6.281  14.559 -0.2201  0.0436  0.2306
 5253W        W24107   0.278   6.678   4.547  0.2679 -0.1122  0.3032
 5254W        W24108   6.065   7.900   3.185 -0.1610  0.1637 -0.0865
 5255W        W24109  16.129   2.022   4.088  0.1485 -0.1999 -0.0203
 5256W        W24110   9.603  10.690  11.814 -0.1223 -0.0210  0.0246
 5257W        W24111   9.158   7.302   2.688 -0.2363  0.0577 -0.0240
 5258W        W24112   7.773   5.561  13.472  0.2081 -0.2912  0.1494
 5259W        W24113  13.397   7.716  11.395  0.0155 -0.2064 -0.2517
 5260W        W24114  12.705  10.231  10.880  0.1051  0.0695 -0.0610
 5261W        W24115  14.868   1.957  14.202 -0.2820 -0.0217 -0.0538
 5262W        W24116  15.396   9.211   3.386 -0.2517  0.3006  0.1917
 5263W        W24117  14.499  13.626   2.299 -0.3235 -0.1452  0.2348
 5264W        W24118  11.359   6.999  14.369  0.1095  0.1081  0.4888
 5265W        W24119  10.178  17.450   4.614 -0.1390  0.3526 -0.1863
 5266W        W24120  17.270  18.212   3.258  0.0200 -0.1969 -0.2550
 5267W        W24121  16.437   7.354  10.803  0.1305  0.1710 -0.0691
 5268W        W24122   2.695   1.289  11.903  0.0805 -0.2147 -0.2858
 5269W        W24123   9.987  11.322   0.387  0.1397  0.1244 -0.3772
 5270W        W24124  11.680   7.193  12.897 -0.2466 -0.0516  0.0667
 5271W        W24125   8.868  12.656   3.791 -0.0797  0.0449 -0.0147
 5272W        W24126  15.367   7.465   3.636 -0.2986  0.0175  0.0026
 5273W        W24127  16.905   3.531  13.076 -0.0012  0.1061  0.0347
 5274W        W24128   0.426  18.336   3.718 -0.0887 -0.3862  0.1796
 5275W        W24129  10.701  10.157  11.406  0.0416 -0.2628  0.3406
 5276W        W24130  18.795   6.574  11.832  0.2262 -0.1524  0.1580
 5277W        W24131   8.346  18.804   2.646  0.3357  0.0444  0.2869
 5278W        W24132  16.044  11.857   1.652 -0.0120  0.1533  0.0707
 5279W        W24133  12.669  12.538   3.316  0.0548 -0.0088 -0.2454
 5280W        W24134   3.597   5.303   4.734 -0.1073 -0.3596  0.2569
 5281W        W24135   6.578   3.942   2.441 -0.0524  0.1864 -0.2568
 5282W        W24136   7.983  18.403   0.986 -0.0344  0.2177 -0.1347
 5283W        W24137  15.865  18.205  14.938  0.1805 -0.0880 -0.6361
 5284W        W24138   9.361  10.990  14.283  0.2014  0.0513  0.1725
 5285W        W24139  12.692  11.553  14.909 -0.4357 -0.4027  0.1241
 5286W        W24140   3.829   2.240   2.673  0.2447  0.0451  0.0329
 5287W        W24141   6.500   6.398  14.074 -0.1767 -0.0790 -0.0110
 5288W        W24142  18.200  17.767   3.215 -0.1581  0.0082  0.0093
 5289W        W24143  15.280   6.347  13.736 -0.1814 -0.1444 -0.0948
 5290W        W24144  13.440   1.022  14.094  0.0864  0.3315 -0.2619
 5291W        W24145   1.765  10.099  12.671 -0.1625 -0.0235  0.0037
 5292W        W24146  12.987   5.430  11.467 -0.1777  0.1867 -0.0448
 5293W        W24147   9.840   2.994   2.641  0.2019 -0.0919 -0.0349
 5294W        W24148   6.827  16.227  13.766 -0.4243  0.0962 -0.0335
 5295W        W24149  16.907   3.029   4.009  0.1611  0.0315  0.1608
 5296W        W24150   0.068  12.543   3.294  0.0626  0.4096  0.0948
 5297W        W24151   0.269   8.543  12.612  0.2796 -0.1139  0.2043
 5298W        W24152   1.615  15.107   3.962 -0.1034 -0.1078  0.1165
 5299W        W24153   5.389  18.567  12.987  0.4864 -0.1674 -0.0952
 5300W        W24154  17.706  17.777   5.218 -0.1327  0.0967 -0.2261
 5301W        W24155   3.897  17.877  11.450  0.0955 -0.2143 -0.1638
 5302W        W24156   7.432   6.317  11.576 -0.0792 -0.0787 -0.1598
 5303W        W24157   4.859  11.155  12.265  0.1573  0.1811  0.1727
 5304W        W24158   7.025  16.135  11.725  0.1574  0.2811  0.2479
 5305W        W24159  12.993  17.060  13.420 -0.1583  0.0708 -0.1000
 5306W        W24160   0.051  17.792   4.208  0.0881 -0.0322 -0.2588
 5307W        W24161  13.457  13.704  13.489  0.1504  0.3054 -0.2027
 5308W        W24162  13.835  15.004  11.261  0.0651 -0.0223  0.0207
 5309W        W24163  17.930  16.346   4.418  0.0112 -0.1758  0.0376
 5310W        W24164  13.704  10.023   1.703  0.1574 -0.0740 -0.2765
 5311W        W24165   5.292   9.278   0.492  0.1262 -0.2234  0.0127
 5312W        W24166  13.958   1.767   2.669 -0.1001  0.1740  0.0656
 5313W        W24167  11.719  10.339   3.431 -0.0473  0.3178 -0.0548
 5314W        W24168  13.582  18.422  14.615  0.1490 -0.3283  0.1175
 5315W        W24169   7.124  11.032   3.252  0.2437  0.0961 -0.1354
 5316W        W24170  11.191   3.634   3.016  0.2500  0.1185 -0.0106
 5317W        W24171  12.798  16.300   4.510  0.3008 -0.0919 -0.3306
 5318W        W24172  10.706  11.621   1.037 -0.0522 -0.1612 -0.0690
 5319W        W24173  11.500   7.357  11.107 -0.0976 -0.2531  0.0453
 5320W        W24174  14.704   0.141  13.813  0.1105 -0.0566  0.2564
 5321W        W24175   0.596  10.659   4.001 -0.0561  0.0771 -0.2592
 5322W        W24176   4.657   2.400  13.878 -0.0919 -0.1137 -0.1619
 5323W        W24177   4.636   4.832  12.130 -0.1378 -0.3501 -0.3484
 5324W        W24178   6.110   4.976  14.788 -0.0837  0.0022 -0.1722
 5325W        W24179   6.549  15.400  14.766  0.2428  0.1064  0.0700
 5326W        W24180  14.048  14.146   0.181  0.2147 -0.0481  0.2012
 5327W        W24181   4.218   5.887  12.902  0.0843  0.2381  0.0045
 5328W        W24182  13.401   4.840  14.207 -0.0989  0.0633  0.2787
 5329W        W24183   5.134   9.365  13.033 -0.3065 -0.1089 -0.0617
 5330W        W24184   3.760   8.242   1.943 -0.0423  0.0455  0.0365
 5331W        W24185  10.482   8.973   0.107  0.0322 -0.1531  0.5189
 5332W        W24186  13.879   7.204  13.440 -0.0513  0.1718  0.1395
 5333W        W24187  15.667  13.025  13.724 -0.0393  0.1477 -0.0947
 5334W        W24188  12.946  14.489   1.352 -0.0242  0.1019  0.1144
 5335W        W24189  14.055   1.190   0.251  0.0721  0.1464 -0.1998
 5336W        W24190  17.940  11.893  14.003  0.0795  0.1092  0.1569
 5337W        W24191   7.922  11.357  12.764  0.1562 -0.2083 -0.1027
 5338W        W24192   5.743  11.458  12.310  0.0712 -0.1465 -0.1129
 5339W        W24193   2.074  18.614   0.223 -0.2910  0.0015  0.1271
 5340W        W24194  17.284  17.532  11.243  0.1301  0.1154  0.3401
 5341W        W24195   2.376  11.095   1.574  0.4912  0.0864 -0.0946
 5342W        W24196   8.749  16.432  14.058 -0.1008  0.3482  0.1031
 5343W        W24197  10.829   1.516  14.571 -0.1726  0.1461  0.1527
 5344W        W24198  14.443  11.873   2.573 -0.0877  0.2776  0.2656
 5345W        W24199   7.995   6.843   1.410 -0.4247  0.0058 -0.1010
 5346W        W24200  18.118  18.056   3.870  0.0458  0.2999  0.0539
 5347W        W24201  10.663   9.886  12.488  0.0502 -0.1704 -0.0668
 5348W        W24202   8.614   9.087  12.543  0.1304  0.0016  0.0385
 5349W        W24203  10.009   9.251  13.173 -0.0639  0.2206 -0.0891
 5350W        W24204  17.138   9.310   4.230  0.0933 -0.1089 -0.0966
 5351W        W24205  11.522  18.206  12.125  0.0938  0.1164  0.2084
 5352W        W24206  11.709  10.917   2.589  0.0298  0.1310  0.2320
 5353W        W24207   7.733  16.987  14.953  0.2380  0.0497  0.0342
 5354W        W24208   2.158   2.495  12.234 -0.2101  0.1378 -0.0396
 5355W        W24209   2.791   0.489   3.710  0.1118  0.0546 -0.1981
 5356W        W24210  14.258   5.589   0.365  0.0191 -0.2094 -0.0923
 5357W        W24211  18.438   0.594   2.958  0.1456  0.3210 -0.3388
 5358W        W24212  17.646  12.937   3.383  0.1623 -0.1545 -0.2243
 5359W        W24213   3.809   6.993  12.066 -0.0434 -0.0134 -0.0250
 5360W        W24214   9.364   4.230  13.514  0.0416 -0.1686 -0.1711
 5361W        W24215  13.872   2.401   3.358 -0.0245  0.3426  0.1503
 5362W        W24216   2.670  17.774   2.983 -0.0169 -0.1302 -0.1097
 5363W        W24217  15.066   3.811   1.507 -0.3307  0.1027 -0.1413
 5364W        W24218  13.152   9.816  13.238 -0.1407 -0.0206 -0.0748
 5365W        W24219   9.638  14.561  13.111 -0.0047 -0.1018  0.1798
 5366W        W24220   3.052   8.579  11.541 -0.0126 -0.0242  0.3119
 5367W        W24221  10.392   1.821   2.808  0.0733 -0.1135  0.2008
 5368W        W24222   3.919   0.233   0.745  0.0101 -0.0098  0.0821
 5369W        W24223  16.195   9.950  12.835 -0.2452 -0.0145 -0.1649
 5370W        W24224   3.763   1.542   1.283  0.1142  0.2177 -0.1600
 5371W        W24225  16.664  12.020   3.917 -0.0185 -0.0644 -0.0927
 5372W        W24226  11.850   9.895   4.434  0.3357 -0.0601 -0.2309
 5373W        W24227  17.639   0.099  12.242 -0.2916  0.0625 -0.3745
 5374W        W24228   5.020   3.394   3.584 -0.3138  0.0053 -0.1381
 5375W        W24229  11.470   2.209  12.210  0.1493 -0.0540  0.0252
 5376W        W24230   4.157   7.643  14.615  0.2632 -0.2912 -0.1128
 5377W        W24231  10.177  17.975   3.939  0.0373  0.1720  0.2097
 5378W        W24232   8.940  16.211   1.336  0.1893  0.1167 -0.0354
 5379W        W24233   4.339   8.602   2.283  0.1415  0.1280  0.0568
 5380W        W24234   6.593   5.150   1.449 -0.0124  0.0544  0.1080
 5381W        W24235   2.438   9.513   3.923 -0.1336 -0.1458  0.3015
 5382W        W24236  16.384  13.294  14.666  0.2493 -0.1093  0.0682
 5383W        W24237   3.458   4.157   2.390 -0.2020 -0.0567 -0.1399
 5384W        W24238  14.978  18.255   2.435 -0.0836 -0.2573 -0.0363
 5385W        W24239  17.816  15.581  11.202  0.0437 -0.0883 -0.3081
 5386W        W24240   6.241   7.402  13.024 -0.2531  0.1477  0.3074
 5387W        W24241  14.948  17.311  10.068  0.0379 -0.2436 -0.2597
 5388W        W24242   9.074  12.153  11.719  0.0388 -0.0572  0.3577
 5389W        W24243  18.601   8.922   1.265 -0.1318 -0.2337 -0.3608
 5390W        W24244  10.674  12.330   1.228  0.2616 -0.1512  0.2072
 5391W        W24245   6.417   2.567   1.856  0.0802 -0.4911  0.0368
 5392W        W24246  13.878  14.096  14.036 -0.1239  0.0274  0.1148
 5393W        W24247  15.990   0.011   3.144  0.0584 -0.1600  0.0200
 5394W        W24248   6.881   9.397   3.395  0.0137 -0.2396  0.0160
 5395W        W24249  15.345  15.122   4.823 -0.0702  0.0749  0.0809
 5396W        W24250   1.284  15.526  11.065  0.0448  0.0956 -0.4265
 5397W        W24251  11.605   7.324   0.764 -0.0557 -0.2160 -0.1920
 5398W        W24252   8.572   3.593   2.379  0.0516 -0.0242  0.1984
 5399W        W24253   9.651   8.246  11.481  0.0243  0.2239  0.0666
 5400W        W24254   7.940   4.838   3.709  0.1655 -0.0976  0.0011
 5401W        W24255  17.066  12.008  12.771 -0.2125 -0.1724  0.0862
 5402W        W24256  13.854  12.943  11.474 -0.2157  0.2887  0.1199
 5403W        W24257   2.038   4.472   3.381 -0.0829 -0.3383  0.0157
 5404W        W24258  15.225  14.267   4.203 -0.0710  0.0529  0.0721
 5405W        W24259  16.326  16.868  13.406 -0.1784 -0.0348  0.0095
 5406W        W24260   6.678  14.388  11.289 -0.0463 -0.2132  0.0415
 5407W        W24261  10.270  13.144   1.919 -0.1249  0.1086 -0.0272
 5408W        W24262  11.908  10.602   2.183  0.0423  0.1494  0.0921
 5409W        W24263   7.871  10.012   4.173  0.1557 -0.0634 -0.0409
 5410W        W24264  10.339  12.041  12.223 -0.0881 -0.0758 -0.1335
 5411W        W24265   7.003   2.703   3.001 -0.2950 -0.1643  0.0190
 5412W        W24266  17.193  11.068  11.375  0.0810 -0.2665  0.2427
 5413W        W24267   9.582  10.147   0.904 -0.2245  0.2759 -0.1443
 5414W        W24268   8.219   5.427  13.311 -0.2575 -0.1601 -0.2491
 5415W        W24269  13.842  10.201   0.470 -0.6448 -0.0340 -0.1046
 5416W        W24270  17.089  15.344   3.949  0.1207 -0.1176 -0.0460
 5417W        W24271   0.972   7.532  10.614  0.0893 -0.2259 -0.4909
 5418W        W24272  13.303  16.700  13.748 -0.1259 -0.0732 -0.0450
 5419W        W24273   5.333   5.249   5.066  0.1450  0.0427 -0.1007
 5420W        W24274   3.630  18.757  13.361 -0.2576 -0.1362  0.0284
 5421W        W24275   3.124   2.603   1.341  0.1184  0.0287 -0.1363
 5422W        W24276   5.288  15.114   2.703  0.0065  0.1082  0.0306
 5423W        W24277   0.615  16.200   1.052  0.0512  0.0881 -0.1730
 5424W        W24278  11.522   5.693   0.721 -0.1804  0.2631  0.0737
 5425W        W24279  16.893   6.689  11.680 -0.1773  0.2413 -0.4890
 5426W        W24280  15.048   2.816   4.959  0.0341 -0.1048 -0.1666
 5427W        W24281   1.617  13.713   4.196  0.0191 -0.1384  0.1634
 5428W        W24282  12.878  16.573  11.042  0.0187 -0.0269 -0.2423
 5429W        W24283  15.441   4.285  13.659 -0.2044 -0.1020 -0.0578
 5430W        W24284   8.513   3.124  13.504 -0.0450  0.1440  0.0153
 5431W        W24285   5.075  11.691  13.950  0.2099 -0.0994  0.0009
 5432W        W24286   2.627  15.452  14.095  0.0912  0.1737  0.3045
 5433W        W24287   6.022  15.718  13.724 -0.2034  0.0801  0.1106
 5434W        W24288   3.674  13.416  10.745  0.1831 -0.5070  0.0092
 5435W        W24289   8.248  12.901   1.414  0.0066 -0.1929  0.1163
 5436W        W24290  10.206  15.231   0.201 -0.1504 -0.1980  0.2291
 5437W        W24291   0.275  10.252  12.068 -0.2803  0.1126 -0.3058
 5438W        W24292  15.378   4.989  12.152  0.0126  0.0937 -0.1920
 5439W        W24293   3.792  10.971  13.289  0.0222  0.0423 -0.1698
 5440W        W24294   1.335  13.459  12.290 -0.0968 -0.2339 -0.0887
 5441W        W24295  11.147  13.373  12.550  0.0957  0.1643  0.0534
 5442W        W24296   1.801   5.487  13.186 -0.4107 -0.0840  0.2363
 5443W        W24297  10.540  10.994   1.896  0.1344 -0.2547  0.1596
 5444W        W24298   5.625  11.050   2.083 -0.0321 -0.0086 -0.0251
 5445W        W24299  15.818   7.508  12.776  0.1022  0.0308  0.2278
 5446W        W24300  18.125  11.788  14.736  0.3360 -0.1936  0.0828
 5447W        W24301   5.610   2.594  10.772 -0.1103 -0.3260  0.0639
 5448W        W24302   5.590   2.978   0.253 -0.1365 -0.0066 -0.0548
 5449W        W24303   0.286   9.742   9.901 -0.0851  0.1593 -0.3223
 5450W        W24304  13.379   2.701  12.843  0.3706 -0.3014 -0.2754
 5451W        W24305   4.507   1.326   2.020  0.0642  0.1151  0.0205
 5452W        W24306   7.059  16.230  14.223 -0.1821  0.1378 -0.0750
 5453W        W24307   5.779   3.915   1.906  0.0244 -0.1286  0.1248
 5454W        W24308  13.215   2.628   3.966  0.1304  0.0518 -0.2971
 5455W        W24309   2.915  15.931   2.208 -0.2370  0.0733 -0.0088
 5456W        W24310  11.626  14.089  12.768  0.1832  0.1792 -0.0345
 5457W        W24311   6.341  18.324   4.803  0.2574  0.2004 -0.0950
 5458W        W24312  16.869   0.831   9.725  0.1121 -0.2532 -0.1929
 5459W        W24313   6.200   2.952  11.343  0.0401 -0.0465  0.1423
 5460W        W24314   4.245   5.123  13.339 -0.0518 -0.0651 -0.1200
 5461W        W24315   0.703   8.925   0.499  0.1858 -0.0545  0.0648
 5462W        W24316  14.159   8.627  11.155  0.2852 -0.1834  0.0852
 5463W        W24317  15.767   8.426   2.270 -0.0368 -0.1991 -0.1236
 5464W        W24318   7.632  12.384   3.399  0.2107 -0.0881  0.0707
 5465W        W24319   0.344   1.230   2.867 -0.0700 -0.0637 -0.2274
 5466W        W24320   4.431   7.356   0.534 -0.0989  0.0131 -0.0824
 5467W        W24321   1.188   2.534  13.876 -0.2565 -0.0301 -0.2141
 5468W        W24322   6.460  15.902  10.752  0.0062  0.0653 -0.4249
 5469W        W24323   6.729  13.015  10.831  0.0724 -0.0522 -0.1490
 5470W        W24324   4.513  12.090  12.076 -0.0369 -0.0320  0.4625
 5471W        W24325   5.717  18.353  14.267 -0.1578  0.1012  0.1330
 5472W        W24326   4.615  10.916   2.097 -0.1263  0.0776  0.1350
 5473W        W24327  12.704   0.990  13.073 -0.0551  0.0416 -0.1907
 5474W        W24328   7.917  17.237   1.580  0.1967 -0.2405 -0.0912
 5475W        W24329   5.314  17.489  13.858  0.3215  0.0500 -0.0262
 5476W        W24330   2.606   7.128   2.561  0.0709 -0.2938  0.0120
 5477W        W24331  15.998   1.569  14.104 -0.2483  0.0152 -0.0311
 5478W        W24332   4.168   9.873  14.322 -0.0486 -0.2546  0.0116
 5479W        W24333   8.915   1.052  15.085 -0.0542  0.1116  0.0250
 5480W        W24334  13.237   2.512   1.865 -0.1068  0.1392  0.0408
 5481W        W24335   8.620   5.952  12.217  0.0675 -0.1780 -0.1795
 5482W        W24336   1.204   4.586   3.861 -0.3442 -0.4375 -0.4044
 5483W        W24337  13.268  14.714   0.495  0.4003 -0.0328  0.0682
 5484W        W24338   2.149   7.810   4.011  0.0645  0.0151  0.1591
 5485W        W24339   0.682   0.037  13.694  0.5033  0.0170  0.0494
 5486W        W24340  16.345  13.780   2.128  0.2555  0.1313  0.1683
 5487W        W24341  15.512   8.337  11.911  0.0162  0.3241 -0.0430
 5488W        W24342  12.817   6.046   2.896  0.1155 -0.3117  0.1139
 5489W        W24343   5.720   9.864   0.029  0.0905 -0.0731 -0.1283
 5490W        W24344  14.621   9.924  11.430  0.5435 -0.2293 -0.0191
 5491W        W24345  10.778   3.421  14.855 -0.0863  0.1284 -0.0337
 5492W        W24346   0.743  18.158   2.179 -0.0893 -0.0256  0.2189
 5493W        W24347   5.337  12.752   3.091  0.2511 -0.0137 -0.2164
 5494W        W24348  13.581  14.460  14.649  0.0336  0.0082  0.0937
 5495W        W24349   2.182  10.250  14.825 -0.2233  0.1169 -0.0399
 5496W        W24350  18.461   9.742   1.820  0.1060 -0.2698 -0.1855
 5497W        W24351  16.947   8.985  11.098 -0.1237  0.0342 -0.0992
 5498W        W24352   3.343  16.924  14.545  0.0093 -0.0911 -0.0841
 5499W        W24353   2.596  16.939   0.044  0.2269  0.1344 -0.0366
 5500W        W24354   9.832  18.003   3.013 -0.0588 -0.2959 -0.1341
 5501W        W24355   6.998  15.275   4.395 -0.0422  0.0557 -0.1609
 5502W        W24356  16.979   1.687  13.723  0.0531  0.0646 -0.0281
 5503W        W24357  16.471  14.440  11.016  0.2417  0.0297 -0.1383
 5504W        W24358  15.200   5.878   4.860 -0.0433  0.0681  0.1574
 5505W        W24359  12.257  12.028  12.174 -0.2142  0.0424 -0.3222
 5506W        W24360   8.442  11.522  14.203  0.0044  0.1392 -0.2763
 5507W        W24361  10.911  13.858  13.919 -0.0636  0.1381 -0.2610
 5508W        W24362  14.597  11.507   2.930 -0.1677 -0.0363 -0.3416
 5509W        W24363   3.388   4.729  11.968  0.1582 -0.0410  0.2931
 5510W        W24364  10.841   7.754  11.079  0.0951 -0.1046 -0.0166
 5511W        W24365  14.272   1.790   4.187  0.0317  0.0473 -0.0337
 5512W        W24366  10.745   8.697   3.788 -0.1456  0.2362 -0.0530
 5513W        W24367  12.801   8.596   1.126  0.0379  0.0382  0.1428
 5514W        W24368  12.037  18.218   1.469  0.3011  0.0363  0.0582
 5515W        W24369  11.843   0.465   3.548  0.3533 -0.0414 -0.2929
 5516W        W24370   9.855   5.889  11.135 -0.0895  0.0580  0.0993
 5517W        W24371   1.687  17.240   4.764  0.0903  0.1962  0.3297
 5518W        W24372   1.904   4.635  13.694 -0.2628 -0.0664  0.0667
 5519W        W24373  18.666   6.945  12.135  0.0119 -0.0231  0.0841
 5520W        W24374  17.701   2.973  13.355 -0.1900 -0.0925 -0.3884
 5521W        W24375  12.614  17.891  11.487  0.0686 -0.1409 -0.1496
 5522W        W24376  12.574   9.472   2.660  0.0754 -0.1069 -0.1046
 5523W        W24377   5.433  14.089   4.565  0.0587  0.0265  0.1379
 5524W        W24378   6.013   9.485   3.408  0.2903 -0.2602  0.1869
 5525W        W24379   6.304   9.993  10.048 -0.0164  0.1003 -0.2216
 5526W        W24380  15.350  17.408   5.571 -0.0957 -0.3242 -0.1046
 5527W        W24381   5.569  14.097  10.737  0.2739 -0.0693  0.2946
 5528W        W24382  16.083   6.890   4.300  0.0611  0.2681  0.0512
 5529W        W24383   6.829  10.610   1.306  0.0349  0.1599 -0.0512
 5530W        W24384   1.878   7.083   0.479 -0.0640  0.0379  0.0477
 5531W        W24385   5.851   7.768  12.321 -0.2922  0.1452  0.1529
 5532W        W24386   4.068  13.004  13.738 -0.0851 -0.1282 -0.0191
 5533W        W24387  10.541  10.550  14.401 -0.0730  0.2129 -0.0056
 5534W        W24388  12.736  15.565  12.974 -0.0211 -0.2678  0.1982
 5535W        W24389  11.025  10.187  10.801  0.1723  0.0795 -0.0510
 5536W        W24390  13.328  14.631   2.232 -0.0534  0.0123 -0.0424
 5537W        W24391  16.119  10.462   4.585  0.1782  0.0256 -0.0848
 5538W        W24392  16.410   0.412   3.064  0.1408  0.2275  0.2874
 5539W        W24393  17.751  16.001  14.857  0.0934 -0.0954 -0.2095
 5540W        W24394   7.769   2.831  12.591 -0.1781 -0.0513  0.0296
 5541W        W24395  16.934  18.179  12.214 -0.1891  0.0767  0.1740
 5542W        W24396  13.834   7.573  13.851 -0.3682 -0.0974 -0.2667
 5543W        W24397   9.742   2.645  14.043  0.0361  0.1784  0.1743
 5544W        W24398   7.129  14.101  12.868  0.2259 -0.2977  0.0230
 5545W        W24399   5.849  13.128  14.594  0.3273 -0.0749  0.1744
 5546W        W24400   3.923  12.746  15.052  0.2608  0.0067 -0.0795
 5547W        W24401  17.014  16.720   1.108 -0.4173  0.0195  0.1712
 5548W        W24402   1.290   1.264   2.705  0.0938 -0.2129 -0.1267
 5549W        W24403   5.393   6.216   3.932  0.0306  0.0510  0.1290
 5550W        W24404   2.257  14.835   3.788  0.1705  0.1231 -0.0360
 5551W        W24405   8.198  14.966   1.858  0.3388  0.2015  0.1693
 5552W        W24406  13.474   4.690   2.304  0.2324  0.0343 -0.0252
 5553W        W24407  14.918   7.727   4.312 -0.1237  0.0290  0.4190
 5554W        W24408  11.172  14.783  11.388 -0.1788 -0.2322 -0.0819
 5555W        W24409   5.195  15.648  11.022 -0.0797  0.1132  0.1679
 5556W        W24410   2.753  15.408  11.449  0.0446 -0.0338 -0.0449
 5557W        W24411   8.402  18.678   0.663  0.0317  0.1109 -0.0241
 5558W        W24412  10.894   8.788  11.318 -0.3837 -0.1875 -0.1671
 5559W        W24413   2.549   3.643   4.049  0.2075  0.0098 -0.0650
 5560W        W24414  11.884   0.669  11.206 -0.2410 -0.1067  0.3531
 5561W        W24415  18.083  12.040   3.247  0.3931  0.1412 -0.1192
 5562W        W24416  13.702   7.181  12.544  0.1821  0.2702 -0.2025
 5563W        W24417   0.907  11.514   0.678  0.1572  0.1652 -0.0632
 5564W        W24418   9.662   8.584   0.068 -0.2511 -0.3599 -0.0607
 5565W        W24419   0.991   4.905  13.877  0.0006  0.1727 -0.1378
 5566W        W24420   9.309   4.663   4.170 -0.1314 -0.0763 -0.5224
 5567W        W24421  15.104  10.972  11.524 -0.2195 -0.0331  0.0339
 5568W        W24422   2.969  11.837   4.261  0.4562  0.3125  0.1592
 5569W        W24423  13.959   3.068  12.100  0.0251 -0.2577 -0.0117
 5570W        W24424  10.383  17.236   2.492 -0.0360 -0.4053 -0.0485
 5571W        W24425   4.355  10.636   1.585 -0.0265  0.1323  0.0746
 5572W        W24426  13.934   6.667   3.815  0.0956 -0.2612 -0.1687
 5573W        W24427   2.307  14.920  14.119  0.2750  0.0308  0.0798
 5574W        W24428   4.778  15.578   3.290 -0.1749 -0.3986 -0.0457
 5575W        W24429  13.834  10.500   0.965  0.0234  0.0885 -0.1220
 5576W        W24430   7.852   7.515   3.063 -0.1637  0.0526  0.1056
 5577W        W24431   6.480   3.967  13.067  0.0846  0.0867  0.0732
 5578W        W24432  10.645  15.940  12.643  0.5172  0.1470  0.0801
 5579W        W24433  12.633   3.286   0.500 -0.2285  0.0816  0.2851
 5580W        W24434  18.258   2.444  11.991 -0.0654 -0.1680 -0.3055
 5581W        W24435   2.181  18.015   4.326  0.1509  0.0117  0.1337
 5582W        W24436  15.117  10.150  11.366  0.0699 -0.3270 -0.1612
 5583W        W24437   1.196  16.906   0.278 -0.0661  0.0580 -0.2530
 5584W        W24438  12.076   9.532  13.768 -0.1231  0.4870 -0.2494
 5585W        W24439   1.484   5.300   3.573  0.0192  0.3909 -0.4558
 5586W        W24440   2.908   6.574  13.237 -0.0212  0.0325  0.0949
 5587W        W24441   6.660  13.953  15.030 -0.0787  0.3133  0.1379
 5588W        W24442  13.651  17.672   1.084 -0.1104 -0.2702  0.3016
 5589W        W24443  11.732  14.757   1.131 -0.1334  0.1128  0.4915
 5590W        W24444  15.836  14.811  11.729  0.0210 -0.2178 -0.2262
 5591W        W24445  11.179   5.421   0.996  0.0038 -0.3802  0.2874
 5592W        W24446   3.395  18.116  12.861 -0.1276 -0.4113  0.3107
 5593W        W24447  10.290  15.207   2.084 -0.1253 -0.2885  0.3973
 5594W        W24448  18.170   2.250  13.239 -0.1395 -0.3048 -0.0853
 5595W        W24449  18.654   4.479  11.428 -0.0248  0.3107  0.2098
 5596W        W24450   3.936  14.698   1.339 -0.1000 -0.1342 -0.4229
 5597W        W24451   4.858  17.843   2.622 -0.0890  0.0565  0.3291
 5598W        W24452   4.100   6.660  11.059  0.0207 -0.0803 -0.0127
 5599W        W24453   5.956  14.876  13.951  0.1227 -0.2366 -0.2197
 5600W        W24454  11.715  10.989   3.222  0.1480  0.2222  0.3357
 5601W        W24455  16.826   9.410   9.906  0.2607 -0.1945  0.1091
 5602W        W24456   8.380  16.832   1.535  0.1754  0.1162  0.0757
 5603W        W24457  16.669  18.827  11.261 -0.0203 -0.1915  0.0424
 5604W        W24458  16.876  13.161   4.547  0.0730  0.1625 -0.1488
 5605W        W24459   5.413   7.814   3.218  0.2014  0.2273  0.0089
 5606W        W24460  17.924  10.098  10.580 -0.0978 -0.0503 -0.0724
 5607W        W24461   0.783   8.803  14.649 -0.0607 -0.0496 -0.1416
 5608W        W24462   6.279  17.906  14.896 -0.0074  0.2354  0.0977
 5609W        W24463   3.163   3.460   4.362  0.2566  0.0186 -0.1760
 5610W        W24464  14.160   8.084   3.903  0.0891  0.0700 -0.0388
 5611W        W24465   6.129  11.270  13.190  0.0653  0.1872  0.0067
 5612W        W24466   9.168  17.125  14.659 -0.3165  0.1331  0.1002
 5613W        W24467  18.584  17.383   0.257 -0.1082  0.3480  0.0374
 5614W        W24468   7.585   1.093  12.055 -0.0723  0.0196 -0.0030
 5615W        W24469  15.092   6.634  11.183  0.3216 -0.1585 -0.1753
 5616W        W24470  14.641   6.115  12.521 -0.0270 -0.2405  0.1652
 5617W        W24471  15.329  14.004   1.578  0.2890 -0.2303  0.1756
 5618W        W24472  15.695  12.190  14.307 -0.2776 -0.0606  0.0372
 5619W        W24473  13.284   4.481   4.388 -0.2803 -0.0191 -0.1200
 5620W        W24474   0.644   7.608  12.661  0.1866  0.2794 -0.0704
 5621W        W24475   6.415   4.986   0.951  0.1486  0.2703 -0.0858
 5622W        W24476   9.790   6.556  13.889  0.2867 -0.0067  0.1707
 5623W        W24477   3.948  10.597   0.614 -0.0956  0.0373  0.2523
 5624W        W24478   3.209   5.751  14.968  0.0947 -0.0407  0.0644
 5625W        W24479   8.532   2.124   1.382  0.3929  0.0111  0.3893
 5626W        W24480   6.551  12.055   0.979  0.2182 -0.1181  0.0068
 5627W        W24481   6.214   0.091   2.640  0.2035 -0.0516 -0.1493
 5628W        W24482   6.026   0.776  10.270 -0.1159 -0.1692 -0.0718
 5629W        W24483  16.638   4.554  12.313  0.0834  0.0981 -0.0323
 5630W        W24484   3.208   1.866   0.488 -0.0056 -0.4377 -0.1839
 5631W        W24485   2.343  16.632  14.861  0.3040  0.1805 -0.1512
 5632W        W24486   1.970  16.804  13.355  0.0357 -0.0688  0.1324
 5633W        W24487   6.663   0.425   1.786  0.0613  0.1188 -0.1006
 5634W        W24488  10.890  13.202  11.493  0.3155 -0.1383  0.0572
 5635W        W24489   5.414  12.887  14.483  0.0722  0.1276  0.0479
 5636W        W24490   0.012   6.328  12.716  0.1528 -0.0035  0.2049
 5637W        W24491   8.875   0.386   2.123 -0.2979 -0.0971  0.0507
 5638W        W24492   8.930  12.511  10.774  0.2163  0.1070 -0.1992
 5639W        W24493  17.899   5.157   2.703  0.0482 -0.2516  0.0159
 5640W        W24494  13.880  12.073  13.126 -0.0930  0.1454 -0.2196
 5641W        W24495  15.731   7.232   0.907 -0.0962  0.0284 -0.1571
 5642W        W24496  10.961   5.837  11.317  0.1028 -0.1000  0.2001
 5643W        W24497  17.433  15.504  12.337 -0.2571  0.3047  0.1776
 5644W        W24498   6.373  16.229   3.566  0.1321  0.1462 -0.0377
 5645W        W24499  11.215   2.042   2.149  0.1202 -0.1615 -0.2826
 5646W        W24500  12.171   0.745   0.316 -0.1540 -0.0088 -0.2587
 5647W        W24501  13.998  14.334  11.856  0.0712 -0.2095  0.0238
 5648W        W24502   6.089   8.062   0.598  0.0121  0.2370  0.1142
 5649W        W24503  11.254   1.395  11.646  0.0719  0.0841  0.2925
 5650W        W24504  18.829  14.366  14.478  0.1427  0.0589  0.0221
 5651W        W24505  17.316  10.611  10.899 -0.0200 -0.1749  0.0580
 5652W        W24506  10.913   7.654   3.923  0.1401  0.0358 -0.1825
 5653W        W24507   0.470  10.477  14.700  0.0293  0.2400  0.1515
 5654W        W24508   0.842   2.989   2.384  0.1494 -0.0410 -0.3351
 5655W        W24509  11.335  16.906  14.279 -0.0643  0.0237 -0.0611
 5656W        W24510   4.268  17.857  14.023 -0.3757 -0.1653 -0.2255
 5657W        W24511  11.258  14.811   4.366  0.3442  0.1389  0.1076
 5658W        W24512  16.243  17.808   3.034  0.0500 -0.2079 -0.0368
 5659W        W24513  15.281   0.541  15.044 -0.0765  0.0812  0.1149
 5660W        W24514   3.290  10.916   1.390  0.1562 -0.0511  0.2010
 5661W        W24515   8.098   6.128  11.240  0.1305  0.0304  0.0676
 5662W        W24516   5.984   6.397  13.839  0.0469 -0.0295  0.0450
 5663W        W24517   7.468   7.735  13.907  0.1104 -0.4208 -0.2770
 5664W        W24518   6.255  14.546   0.600 -0.0249  0.3968  0.1060
 5665W        W24519  16.016  16.990  10.916 -0.2474  0.1819 -0.2471
 5666W        W24520  17.802   7.069  10.744 -0.1480 -0.0703 -0.0314
 5667W        W24521  15.140   2.637  12.794 -0.1254  0.1944 -0.0243
 5668W        W24522   5.449  14.072   0.630 -0.1426  0.4030 -0.1135
 5669W        W24523   2.248  16.105  11.362 -0.0543 -0.0667 -0.0534
 5670W        W24524  17.417   6.686  13.430 -0.0088  0.2007 -0.3089
 5671W        W24525   7.234  17.188   0.013 -0.1138  0.2028  0.1775
 5672W        W24526  16.965   8.893   1.908  0.2371  0.5603 -0.0139
 5673W        W24527   8.755   2.840   0.996  0.0967 -0.2176 -0.0304
 5674W        W24528  17.314  14.008   0.911 -0.1135  0.1879 -0.0312
 5675W        W24529   4.942  13.091  12.782  0.1348  0.4297 -0.0413
 5676W        W24530   7.887  13.829  10.787  0.1137 -0.0437 -0.2378
 5677W        W24531   0.861   2.460   1.984  0.0582 -0.0262  0.1308
 5678W        W24532   4.807  14.067   3.376  0.0915 -0.1423 -0.0226
 5679W        W24533  13.346  12.124  13.048  0.1918 -0.0915 -0.2459
 5680W        W24534  13.320   8.669  14.605 -0.1172  0.1118  0.0116
 5681W        W24535   4.629   2.178  12.046  0.0018 -0.1709 -0.1339
 5682W        W24536  10.450   3.630   3.700  0.2494 -0.0700  0.0456
 5683W        W24537  11.926  16.873  10.019  0.0249  0.3494 -0.0001
 5684W        W24538   8.699  11.855   3.069  0.0077  0.0084 -0.1577
 5685W        W24539   9.357   1.581   0.158 -0.0426  0.1326 -0.0771
 5686W        W24540   6.728   6.692   2.019  0.2891  0.0020  0.1040
 5687W        W24541   0.646  17.980  14.557 -0.0066  0.0739  0.4748
 5688W        W24542  12.776  11.722   0.491  0.0022  0.1536 -0.1138
 5689W        W24543  16.108   3.735   1.592 -0.0445 -0.1245 -0.5043
 5690W        W24544  14.492   9.607   1.822  0.2737 -0.0207 -0.4364
 5691W        W24545   8.116  13.819   0.324 -0.2860  0.0800  0.0579
 5692W        W24546  13.077  12.712  10.741  0.1723 -0.2295  0.3525
 5693W        W24547   3.697   7.501  12.375 -0.0368 -0.1897  0.1052
 5694W        W24548  10.375  13.249   2.796 -0.0980  0.0551 -0.1031
 5695W        W24549  11.131   1.703  13.485 -0.0196  0.2183  0.0100
 5696W        W24550   3.126  12.724  12.704  0.0261  0.0475  0.0676
 5697W        W24551  17.430  16.444  10.920 -0.1090  0.2566  0.0058
 5698W        W24552  11.962  18.668  11.289  0.4402  0.2080  0.0251
 5699W        W24553   0.522  18.002  15.071  0.2739  0.2193  0.2228
 5700W        W24554   5.836   4.647  14.224  0.1369 -0.1508  0.0952
 5701W        W24555  17.264   1.729   3.668 -0.0790  0.2355 -0.0667
 5702W        W24556   5.456  12.465  10.700 -0.5923 -0.0249 -0.2025
 5703W        W24557   9.648  17.857  12.157 -0.1735  0.2104  0.0001
 5704W        W24558   4.154  15.438   3.616 -0.2037  0.0367  0.3660
 5705W        W24559  13.371  18.167  14.257  0.1905  0.3345  0.0572
 5706W        W24560  12.389   8.646  14.707 -0.3276  0.1012  0.1127
 5707W        W24561   0.633  18.505  12.798 -0.1650  0.1435 -0.2233
 5708W        W24562  16.305  12.573  11.383 -0.3131 -0.0745 -0.1138
 5709W        W24563   9.784   7.407   3.878 -0.1108 -0.0544 -0.2784
 5710W        W24564  13.350   8.239  13.715 -0.1922  0.3885 -0.1012
 5711W        W24565  14.607  14.020   1.816  0.0323 -0.1244  0.0800
 5712W        W24566   7.844   9.764   3.274  0.1249 -0.2197 -0.0515
 5713W        W24567   7.642   1.941   1.784  0.3227  0.2012 -0.0981
 5714W        W24568  18.851  10.343  13.890 -0.2815 -0.1042 -0.0536
 5715W        W24569   0.370  18.844  11.229 -0.1659  0.0903 -0.1879
 5716W        W24570   3.501  17.776  12.493 -0.0235 -0.1123 -0.2035
 5717W        W24571  14.208  14.967   0.488  0.2843 -0.1989  0.1350
 5718W        W24572   0.286  10.108  14.399 -0.1842  0.0257  0.2721
 5719W        W24573  17.460   0.584  15.040  0.5602  0.2376 -0.1221
 5720W        W24574  17.668   8.261  11.797 -0.2681  0.0864 -0.0611
 5721W        W24575   2.508   4.546   1.683  0.0639 -0.0452  0.1319
 5722W        W24576   1.577  17.167  11.849  0.3624  0.0331 -0.2757
 5723W        W24577  13.004   5.877  11.691  0.0991 -0.1997  0.0979
 5724W        W24578  14.848  10.340   4.621 -0.0785  0.3263  0.1536
 5725W        W24579  12.563   2.234   2.810  0.0159  0.1025  0.0953
 5726W        W24580  14.942  13.057   3.679 -0.0111 -0.3202  0.2234
 5727W        W24581  12.573   7.637   1.167 -0.0040  0.0152 -0.0740
 5728W        W24582  11.861   9.124   2.663  0.2872 -0.0290 -0.1579
 5729W        W24583   4.250   5.674  13.353 -0.0692  0.2134 -0.1180
 5730W        W24584  13.245  16.267   2.398 -0.0887 -0.0611 -0.4887
 5731W        W24585   2.445   8.032  14.985  0.0603 -0.0544 -0.3403
 5732W        W24586   5.925  11.028   3.715  0.1177 -0.0745  0.1172
 5733W        W24587  11.133  12.282  10.540  0.0583 -0.2683 -0.0120
 5734W        W24588   9.542  18.563  12.905  0.2331  0.2230  0.0579
 5735W        W24589   6.469  17.953  11.346  0.1368 -0.1312  0.2602
 5736W        W24590   1.216   8.481   2.209  0.0273 -0.0634  0.1381
 5737W        W24591   4.544   6.638   3.742  0.0517  0.0024 -0.1228
 5738W        W24592  16.329   4.588  11.278  0.1227  0.0904  0.3220
 5739W        W24593  16.282   2.112  11.775 -0.0802  0.0025  0.2148
 5740W        W24594   0.547  15.136   2.278  0.0360 -0.0989 -0.1018
 5741W        W24595   7.421   4.540  14.965 -0.4442 -0.1254  0.0223
 5742W        W24596   7.798  14.956   3.195 -0.2826  0.2140 -0.2612
 5743W        W24597  13.827   3.251   3.037 -0.0935  0.1103 -0.0100
 5744W        W24598   0.611  13.380   0.163 -0.1595 -0.0107 -0.2092
 5745W        W24599  14.335   9.266   1.394  0.0090  0.2759 -0.2234
 5746W        W24600  14.644   0.348   1.063  0.1883 -0.0891  0.0920
 5747W        W24601   9.920  10.319   1.775  0.0031  0.1363  0.1147
 5748W        W24602  15.422   3.178   0.283  0.3110 -0.0513 -0.0787
 5749W        W24603   1.472   9.480   3.064 -0.0997  0.2976  0.0787
 5750W        W24604  18.816  14.954   4.185  0.0111  0.1840  0.0489
 5751W        W24605  16.384  12.753   3.300 -0.5118  0.1905 -0.2154
 5752W        W24606  17.219   9.158   0.002 -0.0666  0.0335 -0.1346
 5753W        W24607   7.421  15.885   1.688  0.0673  0.1649  0.1548
 5754W        W24608  15.344  10.294  13.553 -0.0861  0.2843  0.2702
 5755W        W24609  18.588   3.253  12.230 -0.0363  0.1291  0.2008
 5756W        W24610   8.253   4.722  12.493 -0.0984 -0.0365  0.0969
 5757W        W24611  17.217  12.408  10.844  0.2332  0.0229  0.1482
 5758W        W24612   0.917  14.703   4.150  0.0482  0.3510 -0.1590
 5759W        W24613   7.425   7.516  10.347 -0.1813 -0.1531  0.0850
 5760W        W24614  17.076   5.617  12.002  0.1479 -0.0321  0.2365
 5761W        W24615   9.586   1.893   1.566 -0.0224  0.2572  0.2905
 5762W        W24616  15.313  14.046  14.109  0.3434  0.0755 -0.0396
 5763W        W24617   4.097  16.260  14.798 -0.0827 -0.2895  0.4680
 5764W        W24618   5.016  16.378   2.059  0.3773  0.0544  0.1481
 5765W        W24619   3.788  10.807  14.268  0.2342  0.1065  0.1973
 5766W        W24620  10.882   2.439  14.072 -0.2925  0.0546 -0.4176
 5767W        W24621   8.925  10.599   0.970 -0.0158  0.1377  0.1337
 5768W        W24622  12.052   4.988  13.655  0.2936  0.1789 -0.1306
 5769W        W24623  10.873  16.424  12.804  0.1922  0.1246  0.1491
 5770W        W24624   4.765   9.204  12.642 -0.1858 -0.0370  0.0324
 5771W        W24625  18.648  15.878  13.402 -0.3231  0.2371 -0.1746
 5772W        W24626   3.499  11.244   1.747  0.0368 -0.2179 -0.0742
 5773W        W24627  12.227   0.903   2.820 -0.3053 -0.0193  0.1042
 5774W        W24628   0.566  14.422   3.431  0.1387 -0.0216 -0.0623
 5775W        W24629  11.784  11.676   2.226 -0.0037  0.4757  0.1392
 5776W        W24630   4.070   1.454   4.220  0.1956  0.1517 -0.2074
 5777W        W24631   5.099  18.128   3.555  0.2598  0.0510 -0.1275
 5778W        W24632  12.744   2.956   2.645 -0.4650  0.2293  0.3349
 5779W        W24633  11.180  17.127   3.206 -0.2279  0.0246 -0.1162
 5780W        W24634   8.948  10.546   1.609 -0.2706 -0.2218 -0.2329
 5781W        W24635   4.531  12.601   3.645  0.0904  0.1583  0.1217
 5782W        W24636   5.381  13.970  14.107 -0.2126  0.1777 -0.1601
 5783W        W24637   0.127  13.330  11.658 -0.3297  0.0446 -0.2176
 5784W        W24638   6.351   5.872   0.698  0.2195  0.2276 -0.1498
 5785W        W24639   9.139  18.144   3.399  0.1559  0.0948 -0.0037
 5786W        W24640   4.477   5.482  14.314 -0.1918 -0.0781 -0.0699
 5787W        W24641  11.389   1.083  14.120 -0.0640 -0.0527  0.1602
 5788W        W24642  18.322  14.143   0.966 -0.3321 -0.0398  0.2588
 5789W        W24643  18.477  14.001   2.261  0.0503  0.1204 -0.0253
 5790W        W24644   7.958   0.937   1.190 -0.1989  0.2754  0.2128
 5791W        W24645  17.092   5.534   1.873 -0.1387 -0.2163 -0.0095
 5792W        W24646   1.080  10.686   2.277  0.0395  0.0556  0.0785
 5793W        W24647  17.219  10.284  12.639  0.0296 -0.0187 -0.0084
 5794W        W24648   5.173  14.863  10.638 -0.2054  0.2189 -0.0545
 5795W        W24649  17.636  10.427  14.497  0.1111  0.1817 -0.0508
 5796W        W24650   9.674  14.842  11.657 -0.1423  0.0100  0.4213
 5797W        W24651  18.852  16.176  13.786 -0.2304 -0.0845 -0.1280
 5798W        W24652   3.591   2.241  12.713  0.0333  0.1974 -0.0865
 5799W        W24653   7.819  16.122   3.212  0.0348 -0.1202  0.0032
 5800W        W24654   4.520   6.343  10.795  0.1347 -0.1977  0.3173
 5801W        W24655   5.756   6.147  14.329  0.2415 -0.1006  0.1546
 5802W        W24656  12.432   8.979   1.022  0.1376 -0.1956  0.3821
 5803W        W24657  10.543  15.676  10.860  0.0684 -0.2658 -0.3384
 5804W        W24658  17.153   5.564   9.691 -0.1541 -0.2944 -0.0370
 5805W        W24659  18.173   5.388   0.975 -0.0678  0.0239 -0.0170
 5806W        W24660  10.860   7.201  12.864  0.0156 -0.0951 -0.2290
 5807W        W24661   4.324   2.586   0.894 -0.0297 -0.0342  0.0151
 5808W        W24662   1.728  11.835  11.927  0.4060 -0.3139  0.2144
 5809W        W24663  16.861  18.499   3.141  0.2158 -0.0601  0.0989
 5810W        W24664   4.044   1.571  13.152  0.0690  0.0998 -0.0827
 5811W        W24665  16.357  18.023  15.028 -0.1309  0.2531  0.0854
 5812W        W24666  12.568   5.979   1.896 -0.2168 -0.2071 -0.1138
 5813W        W24667   0.081   8.593  11.286  0.1084 -0.1665 -0.0743
 5814W        W24668   1.243   3.363   2.332  0.2405  0.1359  0.1864
 5815W        W24669  18.406   0.126   4.007  0.0899 -0.0864 -0.1254
 5816W        W24670   0.185  11.551  10.895  0.0969 -0.0455  0.0544
 5817W        W24671  10.960  10.091   4.160  0.0735 -0.0526  0.0089
 5818W        W24672  12.120   1.420   1.544 -0.3711 -0.1579  0.3865
 5819W        W24673   4.836   0.874   4.515  0.1021 -0.1644 -0.0459
 5820W        W24674   4.903   2.118   0.595 -0.0463 -0.0029 -0.1127
 5821W        W24675   3.936  14.940  12.207  0.1157  0.0609  0.1083
 5822W        W24676   7.561  13.438   1.426 -0.3153  0.2096 -0.0285
 5823W        W24677   7.201  10.282  12.285 -0.1188  0.0815  0.0590
 5824W        W24678  11.557   1.203  11.995 -0.2891  0.4365  0.2523
 5825W        W24679   4.856  17.339  11.321  0.0428  0.1618 -0.1195
 5826W        W24680  16.529   7.071   4.198  0.0938  0.1386  0.1602
 5827W        W24681  10.607  12.245  10.417  0.3109 -0.1421 -0.1686
 5828W        W24682  16.249  11.618   2.658  0.1109  0.2864  0.0005
 5829W        W24683   5.766   2.787   3.809  0.0031 -0.0546 -0.1113
 5830W        W24684   0.115   3.105   4.269  0.0009 -0.0123 -0.2835
 5831W        W24685   5.323   1.146   4.487  0.2085  0.3083 -0.0674
 5832W        W24686  12.603  13.683  11.626  0.1191 -0.0053 -0.3095
 5833W        W24687   6.078   6.422  12.823  0.0671 -0.1959  0.0026
 5834W        W24688   4.812   6.690   3.241 -0.3244 -0.0533 -0.0474
 5835W        W24689  10.067   2.083  12.663 -0.1786  0.0973 -0.1080
 5836W        W24690  10.920   3.470  13.446 -0.1216 -0.3219 -0.0997
 5837W        W24691   3.201  12.515   3.979 -0.1032  0.1153  0.1223
 5838W        W24692   0.823   7.730   3.123  0.0475 -0.3965  0.2843
 5839W        W24693   5.723   6.644  14.660  0.4075  0.1247 -0.0429
 5840W        W24694   0.706   1.248  14.681  0.1166  0.1608 -0.0310
 5841W        W24695  14.419   3.882  14.299 -0.0629 -0.0164  0.0350
 5842W        W24696   6.253   4.839   2.695 -0.7088 -0.1063 -0.0960
 5843W        W24697   7.904   5.364  11.151  0.1048  0.1311  0.2890
 5844W        W24698   2.611   4.263  15.078 -0.1002  0.1472 -0.0197
 5845W        W24699   0.540   9.834  12.159 -0.1343 -0.0933  0.0167
 5846W        W24700   6.444   5.639   0.269  0.1184  0.0615 -0.0774
 5847W        W24701  14.876   9.932  14.223  0.0624 -0.2632 -0.0929
 5848W        W24702  13.623  13.096   0.944 -0.0968 -0.1098 -0.0599
 5849W        W24703   2.100   3.279   1.765 -0.0843 -0.1254  0.0046
 5850W        W24704  10.790   0.187  14.051  0.0015 -0.1798  0.0005
 5851W        W24705   2.155   0.177   4.214 -0.2360 -0.0836  0.0850
 5852W        W24706   7.753   1.987  11.534 -0.2482  0.0803 -0.3944
 5853W        W24707   6.842   1.462  13.108 -0.3506 -0.0975 -0.2352
 5854W        W24708   0.832   9.182  13.926 -0.1429  0.1206 -0.1567
 5855W        W24709   9.481   2.264   0.342 -0.2330  0.2121 -0.0268
 5856W        W24710   9.624   8.281  12.378  0.2344 -0.1127 -0.0966
 5857W        W24711  18.186  15.026  12.388  0.0348 -0.2342 -0.1190
 5858W        W24712  13.136  15.704  13.271 -0.0062  0.0153  0.0868
 5859W        W24713   9.520  12.718   3.268  0.1142 -0.1609  0.0805
 5860W        W24714   9.373   5.294   0.846 -0.1231  0.2321  0.1767
 5861W        W24715  17.387  14.109   2.767 -0.0760 -0.4057 -0.1847
 5862W        W24716  15.079   7.893  14.011  0.0509 -0.1456 -0.2588
 5863W        W24717  12.416   6.457   1.030  0.0106  0.0033 -0.0548
 5864W        W24718  16.078   2.613   3.102 -0.0451 -0.1262  0.0926
 5865W        W24719  14.718   2.623   0.883 -0.0029  0.1381  0.1180
 5866W        W24720  14.208   7.810   1.389 -0.0602  0.0181 -0.2936
 5867W        W24721   3.041  16.734  13.848 -0.0611 -0.0666 -0.0131
 5868W        W24722   8.693   9.395   4.054 -0.1010 -0.1511 -0.0836
 5869W        W24723  13.344   8.245  14.245 -0.0014  0.1302 -0.0705
 5870W        W24724   5.738  14.464   0.442 -0.1614 -0.2168  0.0326
 5871W        W24725  11.225  11.359  14.352  0.0913 -0.2450  0.0061
 5872W        W24726   4.140  14.174   2.848  0.2816  0.1821  0.0998
 5873W        W24727   5.274   4.716   1.985  0.2698 -0.1785  0.4531
 5874W        W24728   4.084   1.983   3.576 -0.0152  0.0048  0.1147
 5875W        W24729  16.914  17.116  14.303  0.3794 -0.1214 -0.0765
 5876W        W24730  16.866  12.580  11.352 -0.1505 -0.0544 -0.1694
 5877W        W24731  12.987  13.683   3.883 -0.0529  0.4122 -0.5044
 5878W        W24732   6.193   0.162  13.175  0.1525  0.1543 -0.0858
 5879W        W24733  11.489   8.621  14.402  0.3026  0.1567 -0.0076
 5880W        W24734   9.273  15.311  13.594  0.2343 -0.0582  0.1116
 5881W        W24735  13.548  17.325  11.924 -0.1173 -0.1541  0.2692
 5882W        W24736  17.039  14.633  12.146 -0.0987 -0.2619  0.1511
 5883W        W24737  14.070  13.669  14.176 -0.1548 -0.1230 -0.1002
 5884W        W24738  16.186  13.828  13.873 -0.1590 -0.4118 -0.1551
 5885W        W24739  15.420  15.565   1.427 -0.1035 -0.2068 -0.1357
 5886W        W24740   0.962  10.827  14.665 -0.0753 -0.5411 -0.0547
 5887W        W24741   0.439   0.483  13.639  0.0453  0.1912 -0.1920
 5888W        W24742   1.082   5.953   0.261  0.2054  0.0143  0.0100
 5889W        W24743  14.513  12.741  13.607  0.0404 -0.0553 -0.1169
 5890W        W24744   5.558  15.637  12.304 -0.2325  0.1524 -0.2383
 5891W        W24745  10.478  13.659  14.437  0.0898 -0.0373 -0.0165
 5892W        W24746  10.705  16.929  11.927  0.2990  0.0104 -0.0215
 5893W        W24747  15.596  15.079  13.618  0.0830  0.1743 -0.0725
 5894W        W24748  18.747  16.428   3.358 -0.2040 -0.4794  0.0395
 5895W        W24749  13.960  18.281  11.496 -0.2153 -0.0553  0.0612
 5896W        W24750  10.416  18.386   0.567  0.3306 -0.1379 -0.3667
 5897W        W24751   6.815  11.569   3.960 -0.2161 -0.1834 -0.1815
 5898W        W24752  16.343  10.242  11.815  0.0511 -0.1241  0.1873
 5899W        W24753   8.636  14.172   4.139  0.0979  0.0261  0.3041
 5900W        W24754   4.388  18.428   0.742  0.1823  0.2014  0.4135
 5901W        W24755  16.110  10.470   2.541  0.0277  0.2041 -0.0899
 5902W        W24756  12.507  16.656  13.940 -0.0355  0.0344  0.1448
 5903W        W24757   3.458  17.208  12.803  0.0903 -0.0817  0.1286
 5904W        W24758   7.940   2.525  13.710  0.0172 -0.0197 -0.0233
 5905W        W24759   3.466  17.569   3.636 -0.0312  0.2290 -0.1642
 5906W        W24760   9.235  10.911   1.768  0.0091 -0.1280  0.0329
 5907W        W24761   1.572  16.177  12.959 -0.0692 -0.3160  0.0544
 5908W        W24762  10.772  13.356   0.168 -0.0602  0.0777 -0.0268
 5909W        W24763   8.036   5.383   1.446  0.0708  0.0587  0.1499
 5910W        W24764  16.302   6.608   0.657 -0.1338 -0.0623 -0.0175
 5911W        W24765   7.102  17.547  11.366  0.0618 -0.2230 -0.0639
 5912W        W24766   7.457  12.528  14.498 -0.0516  0.0470  0.2713
 5913W        W24767   7.980  16.675   3.290  0.1784 -0.1650  0.1710
 5914W        W24768  17.877  16.411  11.150 -0.5412  0.1676  0.1752
 5915W        W24769  13.780  15.449  12.284 -0.1086  0.4182  0.3646
 5916W        W24770   3.550   7.084   1.063  0.0331  0.0326  0.1997
 5917W        W24771  15.332   7.728   4.082  0.1234  0.2165  0.0656
 5918W        W24772   7.280  16.642   0.830  0.0379 -0.2158 -0.0565
 5919W        W24773   4.549  14.871   1.842 -0.3567  0.1833  0.1424
 5920W        W24774   1.745   1.144  12.188  0.0032  0.0802  0.0457
 5921W        W24775  17.958   5.943  12.044  0.3569  0.1588  0.0045
 5922W        W24776   7.383   7.364   0.277  0.0666  0.2882  0.3756
 5923W        W24777   7.819  13.926  13.990  0.2539 -0.1775  0.2654
 5924W        W24778   4.813   9.146  10.493  0.2029 -0.0550 -0.0537
 5925W        W24779   1.618   2.783   3.175  0.0887 -0.4905 -0.1563
 5926W        W24780   0.658  18.461   1.442  0.2944  0.1588 -0.0073
 5927W        W24781  11.477   1.709   5.162 -0.3357  0.1770  0.0113
 5928W        W24782   9.790  15.704  12.069  0.0024  0.0509  0.1376
 5929W        W24783   0.725  11.988   0.900 -0.0078 -0.1249 -0.1000
 5930W        W24784   8.586  12.716  12.179  0.1190 -0.1073  0.1302
 5931W        W24785  14.039  15.550   3.580  0.1326 -0.3112 -0.0833
 5932W        W24786  12.127   7.233   2.841 -0.0005 -0.0203 -0.1410
 5933W        W24787   0.221   9.454   3.348  0.0697  0.2580 -0.1092
 5934W        W24788  15.620  16.740   3.828 -0.1133 -0.3052 -0.1274
 5935W        W24789  14.390  14.322   1.135  0.2990  0.0156  0.0850
 5936W        W24790   9.669   7.261   2.887  0.2962 -0.0120 -0.1336
 5937W        W24791   7.950  12.532   2.686 -0.3010  0.0678  0.4004
 5938W        W24792  14.769  13.466  13.438 -0.4418  0.1791  0.0264
 5939W        W24793   8.195  14.600  13.014  0.2320 -0.0731  0.0636
 5940W        W24794  15.530   9.942   2.793 -0.1819  0.2875 -0.1663
 5941W        W24795  13.522  10.693  14.904  0.0055  0.1042 -0.3120
 5942W        W24796   5.565  15.008   3.546  0.0175  0.3771 -0.1964
 5943W        W24797  15.947  12.671  13.496 -0.1558 -0.2946  0.0773
 5944W        W24798   0.329  13.640   1.667  0.4535  0.0026  0.1247
 5945W        W24799  11.475   4.796  11.200 -0.0389 -0.1054 -0.1074
 5946W        W24800   4.718   7.550   3.687  0.2197 -0.0428  0.0025
 5947W        W24801   4.339   0.793  11.380 -0.3482  0.0176 -0.3023
 5948W        W24802   5.460   9.486  13.577  0.1266 -0.1101  0.2006
 5949W        W24803  17.375   1.079  13.190 -0.3236  0.2812 -0.1850
 5950W        W24804   9.523  11.186  10.885  0.2167 -0.0728 -0.1859
 5951W        W24805   6.180  18.302   9.789 -0.2046  0.0469  0.1037
 5952W        W24806   4.200   2.151  12.358 -0.0535  0.0710  0.1003
 5953W        W24807   6.232  16.917  10.768 -0.3004  0.0608 -0.2222
 5954W        W24808   5.619   8.415   0.521  0.1486  0.3908  0.3637
 5955W        W24809  16.874   3.508   2.574 -0.1524  0.0307 -0.1688
 5956W        W24810  13.065  12.408  11.404 -0.1103  0.1162 -0.0798
 5957W        W24811   0.769  12.798   1.469  0.0327 -0.3927  0.0864
 5958W        W24812   5.398  12.664  11.158  0.0062  0.2985 -0.1400
 5959W        W24813  11.549  17.762  12.811  0.2245  0.0818 -0.0143
 5960W        W24814  11.960   6.629   2.042 -0.1821 -0.0179 -0.0255
 5961W        W24815  15.554  13.308   0.705 -0.1613 -0.1800 -0.3322
 5962W        W24816  13.475   5.981   0.044 -0.2353 -0.3145 -0.0077
 5963W        W24817   0.922   6.450  11.600  0.2920  0.2188 -0.2733
 5964W        W24818  10.522  11.957  11.775 -0.4132 -0.1388 -0.0220
 5965W        W24819  14.938  11.939  13.228  0.2195  0.3311 -0.3389
 5966W        W24820   0.178  15.096   3.725 -0.0136 -0.4467  0.1268
 5967W        W24821   1.688   0.219   4.278 -0.0189 -0.1167 -0.0232
 5968W        W24822  16.041  12.393  14.043  0.2649  0.2086 -0.2512
 5969W        W24823   5.041   6.709  11.385 -0.1267 -0.0005  0.1294
 5970W        W24824   9.531  14.022  11.186  0.1704 -0.2770 -0.0693
 5971W        W24825   7.569   2.132   0.458 -0.2370 -0.0191 -0.0591
 5972W        W24826  17.336  14.261  14.954 -0.2591 -0.0342 -0.2957
 5973W        W24827   1.823   1.852  12.833 -0.0256 -0.2231  0.1272
 5974W        W24828   8.480  11.229   0.430 -0.1740  0.2266 -0.0386
 5975W        W24829   4.431  14.511  11.257 -0.1923 -0.3080  0.0907
 5976W        W24830   8.596   3.052   4.049 -0.0874  0.0424  0.0268
 5977W        W24831  16.531   8.424  14.296  0.0334 -0.0648  0.3117
 5978W        W24832  12.175   8.769   4.155 -0.0489 -0.0014 -0.1103
 5979W        W24833  14.366   6.391   4.512 -0.0922 -0.0525 -0.0632
 5980W        W24834  15.100  10.915  14.381 -0.0393  0.0050  0.0943
 5981W        W24835  17.605  13.933   3.180  0.1440  0.0193  0.0821
 5982W        W24836   9.382   5.341  11.984  0.1538 -0.0885  0.2063
 5983W        W24837   2.345   3.952  14.780  0.0172 -0.1071 -0.2137
 5984W        W24838   1.853  14.702   0.248  0.2401 -0.1376  0.0883
 5985W        W24839   0.088   8.756  13.100 -0.2420 -0.2148 -0.4375
 5986W        W24840  15.372   8.588   4.072  0.0001  0.3498 -0.1083
 5987W        W24841   5.900   3.179   2.410  0.0360 -0.2988  0.0048
 5988W        W24842  15.620   4.769  10.804  0.1776 -0.0605  0.2254
 5989W        W24843  12.223   1.130  10.619 -0.0859 -0.1273  0.1277
 5990W        W24844   0.775   5.789   1.876 -0.1453  0.0571  0.1240
 5991W        W24845  11.568  18.517   9.713  0.0429  0.0751  0.0958
 5992W        W24846  13.247   6.028   2.601 -0.2310  0.0271 -0.2645
 5993W        W24847   3.191   9.018  13.840 -0.3037 -0.0794 -0.0202
 5994W        W24848  13.470  12.132  14.415 -0.2189 -0.0866 -0.0787
 5995W        W24849   0.848  16.652   3.324  0.0894 -0.1484  0.0203
 5996W        W24850   2.086  17.974   2.724 -0.0838 -0.1255  0.0066
 5997W        W24851   5.987   2.006  14.050  0.1368 -0.1131  0.0604
 5998W        W24852   5.579   9.328   0.930  0.2267 -0.3264  0.1177
 5999W        W24853   6.207  12.689   4.271 -0.0844  0.1167 -0.2346
 6000W        W24854  12.156   5.422  12.210 -0.2161 -0.0800  0.0771
 6001W        W24855  10.091  13.706  11.967  0.0412  0.1345  0.0471
 6002W        W24856  16.937  11.683   3.607 -0.2632  0.2204  0.0677
 6003W        W24857  12.776  17.225  12.648 -0.1154  0.3296  0.2724
 6004W        W24858   6.026   9.794   2.926 -0.1767 -0.2582 -0.1660
 6005W        W24859  17.886  11.672   4.569  0.1982 -0.2387 -0.1843
 6006W        W24860  15.400   8.368  14.913 -0.0520  0.0483 -0.0663
 6007W        W24861   5.272  13.196  14.045  0.2020  0.3277  0.0259
 6008W        W24862  16.554  14.252   4.437  0.1468  0.0698 -0.0110
 6009W        W24863  18.817   3.513  11.885 -0.3237  0.1018 -0.1476
 6010W        W24864   2.384  16.755   3.847  0.2251  0.1597  0.3048
 6011W        W24865  15.149   2.934   2.044  0.3659  0.1656 -0.0392
 6012W        W24866   5.115   0.968   4.884  0.1560 -0.2829  0.1585
 6013W        W24867   4.332  14.347  13.058 -0.0742 -0.0342  0.1537
 6014W        W24868  10.662  14.565   9.512  0.0430  0.2978  0.0763
 6015W        W24869  12.586   3.639  11.987  0.1156 -0.3667  0.2122
 6016W        W24870  15.882   4.491  14.245 -0.0622  0.0512 -0.0109
 6017W        W24871   0.465   3.065  10.699 -0.1678  0.2859  0.0626
 6018W        W24872  18.309  10.966  10.582 -0.0026  0.1252 -0.0074
 6019W        W24873   2.767  17.365   0.686  0.3300 -0.0692 -0.0773
 6020W        W24874   7.871  15.543   0.951  0.0383  0.0403  0.0165
 6021W        W24875   6.464  16.462  14.754 -0.0559 -0.2891 -0.0961
 6022W        W24876   4.646   6.750   1.237 -0.0274  0.0460  0.1973
 6023W        W24877   2.508   1.189  12.824 -0.2234 -0.3603  0.1245
 6024W        W24878  16.544  11.038  13.553  0.0069 -0.0761 -0.0655
 6025W        W24879  11.286  12.011  11.401  0.1791  0.1027  0.1028
 6026W        W24880   9.358  15.675  13.240 -0.1458  0.1065 -0.0365
 6027W        W24881   0.610  13.497  14.757 -0.2374 -0.0761 -0.3664
 6028W        W24882   1.064  11.032  12.042  0.4348  0.2091 -0.5506
 6029W        W24883  14.687   3.066  10.477 -0.1414 -0.2213  0.1643
 6030W        W24884   8.638   9.158   1.312 -0.1759  0.1809  0.0599
 6031W        W24885   2.036   6.609   2.242  0.1209 -0.1271 -0.0252
 6032W        W24886  17.196   1.266  13.662 -0.1059 -0.0646 -0.1648
 6033W        W24887  14.567  14.057  11.677 -0.0399  0.1337 -0.0577
 6034W        W24888   3.864   7.159   4.557 -0.0822 -0.3344  0.0785
 6035W        W24889   4.495   8.764   4.114  0.0370  0.3095 -0.2641
 6036W        W24890   1.852   0.949   0.536 -0.1006  0.2409  0.1078
 6037W        W24891   9.762  14.051   2.987 -0.1823 -0.0441 -0.2674
 6038W        W24892   2.814  13.300   0.011 -0.1493 -0.0657  0.0056
 6039W        W24893   9.092   9.996   1.668  0.0079  0.2201 -0.0476
 6040W        W24894   9.098  17.382  10.296 -0.1684  0.5259 -0.1975
 6041W        W24895   5.943   0.671   0.563 -0.1441  0.0764 -0.1684
 6042W        W24896  15.183   6.957   3.826 -0.0909 -0.0378 -0.0164
 6043W        W24897  18.740   0.407  13.654 -0.0479  0.2044 -0.1573
 6044W        W24898   9.420  13.803   1.023 -0.0714  0.0153 -0.0447
 6045W        W24899  15.218  12.028   2.579  0.0818 -0.2355 -0.0426
 6046W        W24900  15.393   9.254   1.783 -0.0681 -0.3185  0.1059
 6047W        W24901   7.056  18.271  13.119  0.0388  0.1449  0.2430
 6048W        W24902   3.764   5.173   1.196  0.1039 -0.0555 -0.2891
 6049W        W24903   2.451  10.312   2.301  0.0864  0.2623  0.1784
 6050W        W24904   4.873   3.829   4.918  0.2764 -0.2199  0.2372
 6051W        W24905   8.819  17.705   1.434 -0.0880  0.2142  0.0713
 6052W        W24906   8.432   9.862  13.336  0.4399 -0.5632  0.0026
 6053W        W24907   5.764  10.967   0.236  0.4005 -0.2126 -0.1578
 6054W        W24908  18.759   6.944   3.305 -0.2544  0.2928 -0.3944
 6055W        W24909  13.131  12.302  12.597  0.0114  0.1203 -0.0307
 6056W        W24910   9.014  14.687   1.905  0.0265 -0.1106 -0.1359
 6057W        W24911  13.650   1.116   5.121 -0.2049 -0.0169  0.1428
 6058W        W24912   3.056   4.586   1.120  0.0635  0.4760 -0.0571
 6059W        W24913   1.470   6.211   3.794  0.0485  0.1251  0.1121
 6060W        W24914   2.957  10.600   2.927 -0.2404  0.0067 -0.2337
 6061W        W24915   2.936   2.966  12.304  0.0179  0.1018 -0.0046
 6062W        W24916  17.060   8.651   0.156  0.3839 -0.2415  0.1165
 6063W        W24917   9.353   5.297  13.356 -0.2925  0.0596  0.0723
 6064W        W24918  17.409  11.019   2.521 -0.1094  0.2964  0.0463
 6065W        W24919   6.525   4.213  14.685 -0.0619 -0.4662  0.2168
 6066W        W24920   6.603   8.918   1.198 -0.2534 -0.2106 -0.1598
 6067W        W24921   4.647   4.998   2.793 -0.1510 -0.0279  0.1348
 6068W        W24922   6.218  13.442  14.495 -0.0667 -0.1073  0.1178
 6069W        W24923  18.112  17.399   0.422 -0.1239  0.0230  0.1801
 6070W        W24924  16.379  14.027  12.735 -0.4569 -0.0358  0.1655
 6071W        W24925  18.410  14.475  11.600  0.1287  0.3046 -0.0271
 6072W        W24926   4.904   0.251   3.094 -0.1869  0.0246  0.1874
 6073W        W24927  14.559  17.281   3.236  0.0733  0.0162  0.0737
 6074W        W24928  10.949   2.669  10.058  0.0044 -0.3825  0.1416
 6075W        W24929  10.340  10.135   0.705  0.1148 -0.0369 -0.2296
 6076W        W24930  15.919   7.977   2.425  0.4794 -0.0967  0.0597
 6077W        W24931   1.398   4.507  14.979 -0.1901  0.0383  0.0148
 6078W        W24932  17.706  11.285  11.409  0.3726 -0.2577  0.3504
 6079W        W24933  13.462   3.836  12.094 -0.0538  0.0611  0.0056
 6080W        W24934   4.302   4.643  15.039  0.4306 -0.0941  0.0520
 6081W        W24935   6.088   7.858  11.188  0.0233  0.1902 -0.1930
 6082W        W24936  12.082  14.855  12.822  0.0931  0.0786  0.0446
 6083W        W24937  11.415   1.646   1.885  0.0971 -0.0045 -0.1644
 6084W        W24938  12.124  10.992   3.468 -0.0611 -0.2197  0.0557
 6085W        W24939   4.301   2.427   4.481 -0.2307 -0.0629  0.0751
 6086W        W24940  17.742   9.946  11.239  0.2608  0.0835 -0.2845
 6087W        W24941   3.095  15.541  11.088  0.1461  0.1253 -0.0868
 6088W        W24942   0.466   1.805  13.702 -0.2689  0.2817 -0.1667
 6089W        W24943  10.503   4.257   2.928 -0.0289 -0.0923  0.0570
 6090W        W24944   6.172  16.145  13.982  0.0955  0.1598 -0.1492
 6091W        W24945   9.005  10.995   0.009 -0.0972 -0.2216  0.3192
 6092W        W24946  11.038  11.812   1.805  0.3187 -0.0578  0.0347
 6093W        W24947   9.808   2.823  14.876 -0.0164  0.1539  0.0446
 6094W        W24948   6.896  10.528   3.686  0.0276  0.3258 -0.3601
 6095W        W24949   9.053   6.627  13.378 -0.0497  0.0304 -0.2649
 6096W        W24950  16.001  18.011  12.069 -0.0149 -0.0093  0.3253
 6097W        W24951  14.735  11.904  11.646  0.0960 -0.0007  0.1982
 6098W        W24952  12.160   8.316   2.516  0.1098  0.1137 -0.1527
 6099W        W24953  15.985   6.880   4.911  0.1694 -0.0588  0.2687
 6100W        W24954   5.364   4.026  13.095  0.1779  0.0855  0.0051
 6101W        W24955   5.572  17.785  11.982 -0.0111  0.5719 -0.2011
 6102W        W24956   3.207  16.578   1.933  0.0535 -0.0489  0.1503
 6103W        W24957   7.405   9.470   3.042  0.1589  0.1686 -0.1737
 6104W        W24958   2.103  17.433  12.590 -0.2293 -0.1816 -0.0329
 6105W        W24959  14.196  13.287  11.700  0.1684  0.0710  0.1565
 6106W        W24960  15.465   6.840   1.528  0.1520  0.0206 -0.2298
 6107W        W24961   4.586   9.554  10.227 -0.0055 -0.1186 -0.1857
 6108W        W24962  14.015  17.537  11.136 -0.2473 -0.1179  0.2059
 6109W        W24963   0.540   3.795  14.350 -0.1976  0.1247 -0.4602
 6110W        W24964  16.020   5.268  11.953 -0.1784 -0.1067 -0.0723
 6111W        W24965  15.476  16.634   3.128 -0.2595 -0.2194  0.5120
 6112W        W24966  14.610  15.566   1.489  0.0064 -0.1780  0.0550
 6113W        W24967  12.284  11.822   1.736 -0.2186 -0.1723 -0.0362
 6114W        W24968  15.591  18.335  12.084 -0.0316 -0.1953 -0.0529
 6115W        W24969   8.179  16.213  12.117  0.1979 -0.1438 -0.2673
 6116W        W24970   6.192  17.995   1.871 -0.2712 -0.0599  0.0182
 6117W        W24971  17.230  10.246   0.258  0.2136  0.1060 -0.2804
 6118W        W24972  14.357  11.848   4.198 -0.2338  0.1506 -0.3062
 6119W        W24973  14.335  11.342   3.364  0.1638 -0.3733 -0.0509
 6120W        W24974  10.249   9.379   4.533 -0.0230  0.1358  0.1981
 6121W        W24975   6.082   6.629   2.783 -0.1484 -0.0481 -0.1897
 6122W        W24976   7.584  15.983   9.550 -0.0940 -0.0178 -0.3593
 6123W        W24977  14.278  16.254   3.887  0.1058 -0.0252 -0.0662
 6124W        W24978  15.236  11.333  11.133 -0.0070 -0.0459 -0.3422
 6125W        W24979  17.809   4.817   3.641  0.0788  0.0427 -0.0288
 6126W        W24980   5.012  12.509  12.595  0.0107  0.0964  0.1362
 6127W        W24981   0.083  12.164  12.856  0.1327 -0.2610 -0.1218
 6128W        W24982  14.460  17.319  12.315  0.3536  0.0172 -0.2318
 6129W        W24983   6.639  12.248  14.826  0.1628 -0.0450  0.2335
 6130W        W24984  11.775  14.544   0.177 -0.2010 -0.0760  0.3352
 6131W        W24985   8.990  17.572  14.426 -0.0869 -0.0182 -0.4785
 6132W        W24986   9.545  11.260  13.855 -0.2829  0.0062 -0.0609
 6133W        W24987   4.923  11.436   0.360 -0.3382 -0.0016 -0.1687
 6134W        W24988   3.067   7.282  13.653  0.0237 -0.3314 -0.0231
 6135W        W24989  13.859   5.943  11.329 -0.2049 -0.3106 -0.0454
 6136W        W24990  18.344   7.475  14.000 -0.3721 -0.1544 -0.0146
 6137W        W24991   4.994  14.345   2.924 -0.5315  0.1727  0.4040
 6138W        W24992   6.893  10.111   2.659 -0.1860 -0.1313  0.3302
 6139W        W24993  18.296   5.415   1.894  0.0475  0.0290  0.0035
 6140W        W24994  12.069   5.633  14.578  0.3667 -0.0821  0.1602
 6141W        W24995   7.827   1.389   4.383 -0.1527 -0.2261  0.0914
 6142W        W24996   6.341   2.911   0.470 -0.2838  0.0649  0.0521
 6143W        W24997   1.485  18.008  14.976 -0.2417 -0.2574 -0.1259
 6144W        W24998   1.174  16.287   3.460 -0.0272  0.2991  0.1373
 6145W        W24999   3.223   1.699   4.338 -0.0592 -0.0444  0.1799
 6146W        W25000  12.398   2.764   2.251  0.0441  0.3046  0.0571
 6147W        W25001   6.397   1.205  13.162 -0.3658 -0.0984 -0.0721
 6148W        W25002   7.946  18.087  12.428  0.1700 -0.0304 -0.0453
 6149W        W25003  16.264   1.748   2.293 -0.1155  0.1678 -0.2639
 6150W        W25004   5.295   4.139   4.086 -0.1264  0.1403  0.3340
 6151W        W25005   9.784  13.981  13.369  0.2376 -0.0348 -0.1011
 6152W        W25006   8.070   1.272  13.321  0.2254  0.0373 -0.0843
 6153W        W25007  18.403   6.527  14.174  0.2130  0.4956 -0.1522
 6154W        W25008   2.280  10.380  12.693 -0.0867 -0.1904 -0.0439
 6155W        W25009  12.674  10.009   0.098 -0.1900 -0.0248  0.0473
 6156W        W25010   8.465  11.759  11.356  0.2782 -0.1995  0.0435
 6157W        W25011  16.649  11.303   2.902 -0.3686 -0.1775  0.0085
 6158W        W25012   1.362   2.029   1.146 -0.1084 -0.1994 -0.0960
 6159W        W25013  11.996  15.986   1.824 -0.0621  0.1127 -0.2849
 6160W        W25014   6.409  17.270   4.348 -0.2364 -0.0343 -0.1322
 6161W        W25015   7.760   0.303  14.966 -0.1332 -0.0075  0.3234
 6162W        W25016   9.529   0.958   5.156  0.1944  0.0050  0.0182
 6163W        W25017  16.811   7.001  11.233 -0.1603  0.1069 -0.0926
 6164W        W25018   2.432   3.523   0.521 -0.1012  0.0818  0.2467
 6165W        W25019  12.347  10.733  13.109 -0.2186  0.1015 -0.3476
 6166W        W25020   8.015   1.183  11.768 -0.1557  0.2302  0.1356
 6167W        W25021  10.325  17.918  11.696  0.1039  0.0753 -0.3666
 6168W        W25022  12.475  16.351  10.879 -0.0134  0.2138  0.1648
 6169W        W25023   6.088  16.477   1.979  0.0178 -0.0287 -0.0399
 6170W        W25024   3.957   7.215  14.760 -0.1770  0.2092 -0.0961
 6171W        W25025  12.847  16.050   1.420 -0.3007  0.0228  0.0608
 6172W        W25026  10.883   7.295  13.324 -0.1694 -0.0905 -0.2312
 6173W        W25027  13.926  13.633  11.396  0.0277  0.0634 -0.0855
 6174W        W25028   9.479  17.100  11.136 -0.0597 -0.1257  0.7115
 6175W        W25029   2.887   7.010   1.744  0.0689 -0.0643  0.3056
 6176W        W25030  16.162   0.763   1.475 -0.3024 -0.2535 -0.0670
 6177W        W25031  10.097  17.880   2.514  0.0901 -0.2836 -0.3041
 6178W        W25032  14.423   7.047   1.843 -0.0889 -0.0427 -0.1646
 6179W        W25033   6.744   8.619  13.709  0.4131 -0.0725 -0.2967
 6180W        W25034   1.834   7.525  11.033  0.1299 -0.0998 -0.0874
 6181W        W25035  16.530  10.159  11.338 -0.0082  0.1635  0.1704
 6182W        W25036   9.102   0.082   3.966  0.0217  0.2254 -0.3170
 6183W        W25037   6.072  16.722   0.794  0.0939  0.0708 -0.0408
 6184W        W25038   5.973   1.345   1.862  0.0296 -0.0147 -0.3562
 6185W        W25039  11.360   0.542  11.398  0.2230 -0.0083  0.0594
 6186W        W25040   5.722   3.320  14.541 -0.0528  0.1959  0.1926
 6187W        W25041   9.572   2.226  11.519 -0.2015 -0.1743  0.0460
 6188W        W25042   1.441   3.804  14.543 -0.0533 -0.1271  0.0068
 6189W        W25043  17.511  14.187  14.447 -0.2781  0.2262  0.1297
 6190W        W25044  12.068  12.921   0.221  0.1480 -0.0486 -0.1431
 6191W        W25045   4.988  15.179  11.010 -0.0886 -0.0968  0.0399
 6192W        W25046  18.486   9.615   3.536  0.1080  0.1321  0.0386
 6193W        W25047   8.186   6.246  12.020  0.0535  0.1804  0.1878
 6194W        W25048   2.037  12.070   4.398 -0.1985  0.1220  0.1577
 6195W        W25049   7.836  12.730   1.781 -0.0208 -0.1121 -0.2285
 6196W        W25050   9.819   4.178   0.933 -0.0854 -0.2450  0.0142
 6197W        W25051   9.874  12.352   0.142 -0.1777  0.1349  0.4362
 6198W        W25052  14.865  10.825  13.130 -0.1886 -0.1457  0.1201
 6199W        W25053  11.750   7.555  11.493  0.2086  0.0829  0.4234
 6200W        W25054  17.139  11.310   3.320 -0.1994 -0.2015 -0.0108
 6201W        W25055  11.243   5.993  10.837  0.0423 -0.1256  0.0073
 6202W        W25056   2.283  14.010  14.731  0.0077 -0.2582  0.2568
 6203W        W25057   8.741   7.480  13.310 -0.3183 -0.2055 -0.4558
 6204W        W25058  17.812   4.442   4.519 -0.0471  0.1215  0.1485
 6205W        W25059   0.630   9.694  14.014 -0.1485 -0.2462 -0.1564
 6206W        W25060  14.724   0.882  13.951  0.1791  0.0290 -0.1484
 6207W        W25061  11.626  11.505   1.247 -0.0714 -0.3140  0.0756
 6208W        W25062   4.519   9.778  11.047 -0.0456  0.1778  0.0630
 6209W        W25063   0.151   5.850   1.339  0.0978  0.2543  0.0500
 6210W        W25064   2.835   6.993  14.020  0.3216  0.0947  0.0637
 6211W        W25065   5.256  14.663  12.385 -0.1210  0.3536 -0.1118
 6212W        W25066  11.736  16.393   3.178  0.4543 -0.0715 -0.0533
 6213W        W25067   6.266  10.830   3.232  0.2041 -0.0132 -0.1627
 6214W        W25068   3.047   4.870   2.881  0.0941 -0.0512 -0.0142
 6215W        W25069  16.705  17.203   1.283  0.3648 -0.2204 -0.0617
 6216W        W25070  12.852   6.040   4.380  0.4453  0.2789  0.0603
 6217W        W25071   5.488  17.684   1.743  0.2570 -0.0780  0.2446
 6218W        W25072  13.155   6.622  13.640  0.1171 -0.0477 -0.0128
 6219W        W25073  13.625   1.677  14.597 -0.1790  0.0059 -0.0423
 6220W        W25074   6.553  15.918  11.296 -0.1761  0.1655 -0.1895
 6221W        W25075  12.717   1.371  12.596  0.0812  0.0168  0.1128
 6222W        W25076   7.198  15.771   5.163  0.2029 -0.1171  0.1315
 6223W        W25077   5.995  17.326   1.861 -0.0705  0.2764 -0.0572
 6224W        W25078  12.307   9.648  12.232  0.2000  0.2980  0.1355
 6225W        W25079   9.174  18.168   2.230  0.0668 -0.0061 -0.3427
 6226W        W25080  17.792   6.665   5.418 -0.4086 -0.0697  0.2012
 6227W        W25081   6.425  13.240   0.270 -0.0071 -0.1107  0.1488
 6228W        W25082  14.907   9.082   0.743  0.0651 -0.0297 -0.0208
 6229W        W25083   1.191   3.759   0.594  0.3104 -0.0621 -0.0995
 6230W        W25084  17.092  17.842   3.610  0.0980  0.2038 -0.2519
 6231W        W25085  13.985  13.417   0.481 -0.1883 -0.0933  0.0787
 6232W        W25086  18.157   4.283  13.105 -0.1217 -0.0924  0.2864
 6233W        W25087   2.997   3.927   2.427  0.0889  0.1720 -0.1189
 6234W        W25088  13.926   6.179   3.647  0.1763 -0.1001  0.0124
 6235W        W25089  16.249  10.382   0.722 -0.2364  0.4213  0.1342
 6236W        W25090   7.388   6.223   4.294  0.1241  0.0796  0.0206
 6237W        W25091  17.435  17.787   1.929 -0.0165 -0.1798  0.0052
 6238W        W25092   9.263  15.001  14.961  0.4029  0.1277 -0.1362
 6239W        W25093   2.585  14.231   1.328  0.0696 -0.4910  0.2084
 6240W        W25094   7.303  16.833  14.205  0.0124  0.0986 -0.2303
 6241W        W25095  12.043  13.827   4.368 -0.1053 -0.2156  0.1030
 6242W        W25096   7.231   3.270  13.104 -0.0447 -0.0767 -0.2669
 6243W        W25097   2.984  17.984  12.352  0.0081  0.1399 -0.1171
 6244W        W25098  11.624  18.241  12.973 -0.0006  0.1483 -0.1060
 6245W        W25099   3.393   6.307  12.325  0.1332  0.0976  0.1389
 6246W        W25100  18.521  11.790  11.583  0.0735  0.0063  0.0370
 6247W        W25101   2.973  14.497   3.369  0.2913 -0.2761 -0.0813
 6248W        W25102   6.778  11.068  13.341  0.0120  0.0407  0.0559
 6249W        W25103   2.936  15.693  12.490 -0.2457 -0.1268 -0.1226
 6250W        W25104   9.319  17.042  14.134  0.1431  0.2509  0.0436
 6251W        W25105  12.450  14.164  11.707  0.1237  0.0950 -0.1662
 6252W        W25106   7.506  10.693   4.663 -0.1033 -0.0072 -0.0065
 6253W        W25107   3.388   4.920   0.956 -0.0336 -0.1533  0.4973
 6254W        W25108   4.819  13.656  12.224 -0.0324 -0.4755  0.4054
 6255W        W25109   1.385   0.020  10.629 -0.1999  0.2078 -0.3219
 6256W        W25110   6.007   7.405   3.820  0.2962 -0.4550 -0.0152
 6257W        W25111   4.539   9.715  13.416  0.0623  0.0525 -0.0258
 6258W        W25112   2.918   9.331   2.210  0.1568 -0.2368 -0.2647
 6259W        W25113   6.315  16.805   2.911 -0.1230  0.3329  0.3129
 6260W        W25114   8.377  11.037   2.828  0.0666  0.0625 -0.1999
 6261W        W25115   3.109  12.262  11.817 -0.0104  0.3005 -0.0705
 6262W        W25116   5.559  13.402   1.921 -0.2400  0.1310 -0.2422
 6263W        W25117   9.450  13.092  11.845  0.2522 -0.3425  0.0107
 6264W        W25118  11.042   5.734  13.605 -0.0914  0.1966  0.3034
 6265W        W25119   6.989   4.926   1.715 -0.0717  0.0872 -0.1466
 6266W        W25120  12.190  17.726  14.486 -0.1758 -0.1322 -0.0355
 6267W        W25121  15.794   0.389  11.472  0.1904 -0.0025 -0.0204
 6268W        W25122   0.315  18.534  11.684  0.2352 -0.0874 -0.2177
 6269W        W25123  17.694   0.569  12.289 -0.2504 -0.1479 -0.1634
 6270W        W25124   7.497  13.953   2.449  0.0828 -0.1019  0.3490
 6271W        W25125  12.540  13.596   0.772  0.0690 -0.3993 -0.0135
 6272W        W25126  13.907  15.514  13.415 -0.0727  0.0407  0.2232
 6273W        W25127   7.952  13.776   1.821 -0.2541  0.0478 -0.0741
 6274W        W25128   8.437  17.444   3.727  0.0112  0.2369 -0.1686
 6275W        W25129  13.258   7.775   1.550 -0.0673  0.2014 -0.0678
 6276W        W25130   6.695   5.933   3.213 -0.1968  0.1177 -0.1200
 6277W        W25131  10.937   0.701   3.922 -0.0614 -0.0900 -0.0067
 6278W        W25132  16.426  12.183   2.055  0.0892 -0.0736 -0.2222
 6279W        W25133   4.135   6.033  11.806  0.1306  0.0223 -0.2168
 6280W        W25134  12.544   1.296   2.839 -0.2858 -0.0892 -0.3003
 6281W        W25135  12.797  12.771  11.731 -0.1339 -0.0667 -0.0503
 6282W        W25136   1.794   9.318  13.718 -0.1688  0.1477  0.3393
 6283W        W25137   5.903  13.164   0.892 -0.2104 -0.0279 -0.0725
 6284W        W25138   2.574  14.333  11.353 -0.1828  0.1449  0.1574
 6285W        W25139   6.904  16.970   4.533 -0.1291  0.3046  0.0043
 6286W        W25140   2.989   7.585  11.695  0.0803 -0.3291  0.0485
 6287W        W25141   4.349  14.960   0.356  0.2324  0.1342 -0.0593
 6288W        W25142  13.554  15.682   3.466 -0.0674  0.6389 -0.0784
 6289W        W25143   2.127   4.977  10.931 -0.4219 -0.1057 -0.4879
 6290W        W25144   9.214   0.960  10.916  0.0584 -0.1252  0.0598
 6291W        W25145  14.878   3.845   0.902 -0.1324 -0.0768  0.3547
 6292W        W25146   6.030  18.804  14.536  0.0533  0.1550  0.0727
 6293W        W25147  18.099  13.898   1.331 -0.0496  0.3970 -0.2977
 6294W        W25148   8.143   2.732  12.969 -0.2855  0.0570 -0.3219
 6295W        W25149   4.470   6.226   2.080 -0.2871 -0.1864 -0.0693
 6296W        W25150   2.736   2.859  14.637  0.1637 -0.1066  0.3589
 6297W        W25151   3.733   4.539  11.720  0.1254  0.0920 -0.2799
 6298W        W25152  15.651   1.066   0.549 -0.0768  0.0669 -0.0982
 6299W        W25153   9.721   6.203  11.862 -0.2951  0.0865 -0.1621
 6300W        W25154   7.637   5.941  11.239 -0.0707  0.1513 -0.0849
 6301W        W25155   7.477   2.902   1.511  0.0360 -0.0389 -0.1333
 6302W        W25156   6.923   9.683  12.704  0.0923  0.2796 -0.0282
 6303W        W25157  16.179   6.772   2.999  0.0605  0.1750 -0.3129
 6304W        W25158   5.202   8.926  10.946  0.2391 -0.0031 -0.2180
 6305W        W25159  15.462  13.231   4.087  0.2435 -0.0769  0.0059
 6306W        W25160  12.630  14.581  10.711 -0.0033 -0.1914  0.0079
 6307W        W25161   7.069  17.321   1.906 -0.0513  0.0887 -0.0658
 6308W        W25162   4.187   1.489   1.669  0.0154 -0.2292 -0.1841
 6309W        W25163   3.111   4.166   3.393  0.1313 -0.1227  0.1942
 6310W        W25164  11.033   7.451  15.081  0.2744  0.0538  0.2524
 6311W        W25165   8.378   1.134  11.253  0.0689  0.0881  0.0738
 6312W        W25166   6.233   9.900   2.298 -0.4341  0.4192  0.0735
 6313W        W25167  15.126   3.907   2.988 -0.1398  0.1673  0.2627
 6314W        W25168  13.467   6.643  12.954  0.1458  0.3104  0.3519
 6315W        W25169   9.098  13.297   2.579 -0.0980 -0.3962  0.0442
 6316W        W25170   5.586  18.336  11.805 -0.3849 -0.0264 -0.3608
 6317W        W25171  11.648  17.200  11.590 -0.2522  0.0670  0.2077
 6318W        W25172  10.139  11.406  11.980  0.0424 -0.4763 -0.2843
 6319W        W25173   5.618  10.618   1.811  0.1470  0.0826 -0.1186
 6320W        W25174  16.282   2.141  14.326 -0.2142 -0.0493 -0.0668
 6321W        W25175  11.456  14.917   3.404 -0.1810 -0.2281  0.0935
 6322W        W25176  10.365   4.437  12.757  0.1485 -0.0610  0.0296
 6323W        W25177  11.575   2.436   5.598  0.1432 -0.1308 -0.0417
 6324W        W25178  10.369  13.095  11.325 -0.0474 -0.2160 -0.2910
 6325W        W25179   1.516  12.027  13.097  0.2050  0.3588 -0.0736
 6326W        W25180   6.710   7.216   3.272  0.1579 -0.0079 -0.1908
 6327W        W25181   4.798   6.527   1.681  0.1683  0.1668 -0.2112
 6328W        W25182   8.172  14.787  14.171  0.3257  0.0979  0.1036
 6329W        W25183   2.463  13.561  14.781  0.0400 -0.0590 -0.2636
 6330W        W25184  14.603   8.611  12.871 -0.2152  0.3244 -0.5286
 6331W        W25185  13.008  12.301  10.915  0.0456 -0.0326  0.0864
 6332W        W25186   9.358  10.153   2.206 -0.0882 -0.6901  0.0111
 6333W        W25187  12.623   5.155  12.236 -0.0117  0.0412 -0.0302
 6334W        W25188   4.079  17.085   1.061  0.2347 -0.3862  0.0538
 6335W        W25189  18.164   1.602  14.797  0.0275  0.2393  0.1633
 6336W        W25190   0.945   9.451   2.269  0.3619  0.1515 -0.1600
 6337W        W25191   4.842   1.687   0.318  0.0213 -0.3156 -0.0323
 6338W        W25192  13.850   9.888   4.050 -0.1765 -0.0737  0.0154
 6339W        W25193   2.310   1.532  13.131 -0.1468 -0.1984 -0.3052
 6340W        W25194   8.491   3.318   0.188 -0.1317 -0.2404 -0.2649
 6341W        W25195   4.255   8.093  11.402 -0.0879 -0.1634  0.0707
 6342W        W25196  10.153   7.572  12.347  0.0489 -0.1989  0.2141
 6343W        W25197  17.844  14.711  13.755 -0.3667 -0.1807 -0.2248
 6344W        W25198  18.326   6.058   2.552 -0.2207 -0.0073  0.0126
 6345W        W25199  12.604  10.910  13.720 -0.0494 -0.0917  0.1095
 6346W        W25200  13.942   4.250   3.572 -0.1063 -0.0045  0.1956
 6347W        W25201  16.602   7.474  11.361  0.1208  0.1843 -0.1219
 6348W        W25202   4.625  10.321  14.153  0.5519 -0.3372  0.0451
 6349W        W25203  10.589   0.919  10.519  0.0862 -0.0071  0.0493
 6350W        W25204   1.692   9.691   0.150 -0.1899  0.0603  0.0919
 6351W        W25205   8.712  16.486   1.694 -0.2554  0.1349  0.1864
 6352W        W25206  11.514   2.662  11.384  0.2161 -0.1747  0.0721
 6353W        W25207   8.177  10.733   2.519  0.1101  0.1366 -0.4156
 6354W        W25208  17.117  15.602   0.486  0.1968  0.2570 -0.2910
 6355W        W25209  10.338  16.392  11.443 -0.4026  0.2248  0.0139
 6356W        W25210  12.504  15.213   1.973  0.1067 -0.0177  0.0131
 6357W        W25211  10.015  12.588  14.819  0.0795  0.1606 -0.0472
 6358W        W25212  12.091   2.542   3.142  0.1125  0.1057 -0.1918
 6359W        W25213  14.707  14.957  14.733  0.0055  0.3222 -0.2839
 6360W        W25214  16.354  15.462   2.863  0.2335  0.0999  0.0057
 6361W        W25215   2.971   7.889   3.979 -0.0686  0.3055 -0.2492
 6362W        W25216   4.793  12.456   4.922 -0.1464  0.1306 -0.0766
 6363W        W25217   5.744   5.213   0.682  0.2108 -0.5243  0.1598
 6364W        W25218   6.274  11.009   0.166 -0.0426 -0.0350  0.0680
 6365W        W25219   7.619  15.187  10.604  0.1606 -0.4024 -0.1306
 6366W        W25220   4.934  11.492   4.875 -0.0849  0.2721  0.0524
 6367W        W25221  14.515  12.561   0.141  0.0853  0.1113  0.0234
 6368W        W25222  17.118   8.693  10.310 -0.4660 -0.0308 -0.1051
 6369W        W25223  10.865   2.786   3.862 -0.2926 -0.2738  0.2262
 6370W        W25224  16.336  16.480  14.344 -0.0264  0.0473  0.1290
 6371W        W25225   8.420   4.815  13.676  0.0147  0.0206 -0.0858
 6372W        W25226   3.822   4.991  11.908 -0.2408 -0.1788 -0.0570
 6373W        W25227   7.959   9.155   0.776 -0.0891 -0.2431  0.4341
 6374W        W25228   8.861   7.454   0.584  0.3304  0.0028 -0.0200
 6375W        W25229   5.118   6.519   3.648 -0.1401  0.1370  0.3481
 6376W        W25230  12.164   0.123  10.455 -0.1092 -0.0197 -0.1492
 6377W        W25231  16.460   8.064  11.471  0.1046  0.0272  0.4067
 6378W        W25232  12.197   2.531   2.663  0.1397 -0.0260  0.1167
 6379W        W25233   8.726   3.054  14.404  0.0051  0.0660  0.0686
 6380W        W25234  12.171   9.750   0.387  0.1187  0.1098 -0.3345
 6381W        W25235  13.615   8.158  11.654  0.2311  0.1826 -0.1953
 6382W        W25236   4.032  15.456   4.562  0.2744 -0.0821 -0.1060
 6383W        W25237   9.229   4.806  11.994  0.2370  0.2160 -0.0805
 6384W        W25238  14.252   3.333   1.346 -0.1481  0.2355 -0.2865
 6385W        W25239  12.122  15.269   2.817 -0.1720 -0.0754  0.1448
 6386W        W25240   7.259   3.056  11.714 -0.0793  0.1591  0.1538
 6387W        W25241  17.116   1.938   0.089  0.0255 -0.1191 -0.2947
 6388W        W25242   3.218   0.875   4.869 -0.0281  0.1478  0.0548
 6389W        W25243  13.847  10.412  12.722  0.1973  0.0611 -0.0858
 6390W        W25244   2.237  12.336   1.933 -0.0241  0.0754  0.0392
 6391W        W25245  18.543  18.479  10.190  0.0132  0.1256 -0.0075
 6392W        W25246  16.973   6.530  13.536  0.4327  0.0225 -0.1174
 6393W        W25247  12.217   5.987  12.228 -0.0440 -0.2952 -0.1064
 6394W        W25248   1.542   3.096  12.190  0.1362 -0.3121  0.0138
 6395W        W25249   1.348  17.185  14.080 -0.0148 -0.0753 -0.1273
 6396W        W25250  15.040  13.926   0.497 -0.0075  0.0423  0.2011
 6397W        W25251   0.466  16.328  10.851  0.1431  0.0638 -0.1436
 6398W        W25252  11.585  14.998  12.348 -0.0175  0.1359 -0.0467
 6399W        W25253  16.110   3.961   4.784 -0.2613 -0.0632 -0.2416
 6400W        W25254  16.754  13.044   0.392 -0.1063 -0.1830  0.0228
 6401W        W25255  16.336   0.661  14.980  0.2473 -0.2176 -0.3518
 6402W        W25256  11.559  13.104   0.211  0.1234 -0.2232  0.1035
 6403W        W25257  10.905   0.613   3.408 -0.0613 -0.0101 -0.0893
 6404W        W25258  14.611   3.454  14.847  0.0673 -0.1786  0.1205
 6405W        W25259   8.188   9.415   1.896  0.3166  0.2988  0.0923
 6406W        W25260  18.611   8.603   3.609  0.1621  0.2864  0.1603
 6407W        W25261   5.164  17.659   3.466  0.1597  0.1974 -0.0696
 6408W        W25262  10.749   4.802  12.573  0.2951 -0.0190  0.4103
 6409W        W25263  18.377   6.728  12.457 -0.0723 -0.1759  0.0181
 6410W        W25264  11.026  17.090  12.305  0.0405 -0.1393  0.1931
 6411W        W25265  17.878   6.442  14.215 -0.1324  0.0754  0.2625
 6412W        W25266   5.933  15.944  10.492  0.0817  0.1537  0.0324
 6413W        W25267   5.580  10.897  12.957  0.4381  0.0706 -0.1048
 6414W        W25268   1.832  14.347   1.831  0.0319 -0.0550 -0.0034
 6415W        W25269   7.292  15.132  13.188 -0.0237  0.1136  0.0784
 6416W        W25270  17.012   2.945  14.025 -0.0393  0.2127  0.0570
 6417W        W25271   6.827  13.420  12.615  0.2727 -0.0547 -0.0541
 6418W        W25272   4.304   1.817   0.366  0.0963  0.2397  0.1551
 6419W        W25273  17.647   6.656  10.983  0.1118 -0.3505  0.1734
 6420W        W25274   9.453  11.251   3.468 -0.2500  0.0982 -0.0614
 6421W        W25275  12.991  11.793  13.675 -0.0961 -0.0434 -0.1170
 6422W        W25276   6.489  14.045   0.760 -0.4587  0.0385 -0.4689
 6423W        W25277  12.850   1.314   4.346 -0.0660 -0.1794  0.1567
 6424W        W25278   6.742   3.425   2.247  0.1147  0.0392 -0.1091
 6425W        W25279   9.989  12.840  13.118 -0.2691 -0.0677  0.0037
 6426W        W25280   0.107   7.108   2.142 -0.1334  0.0619 -0.3284
 6427W        W25281  15.350  10.224   2.404  0.2340  0.0178 -0.0810
 6428W        W25282  15.528   0.115   0.096 -0.0264 -0.2319  0.2255
 6429W        W25283  11.475   8.969  12.104 -0.0955  0.0619 -0.2217
 6430W        W25284   6.817  18.417   3.848  0.1194  0.2761 -0.0353
 6431W        W25285  11.726  10.478   0.606  0.0207  0.0317 -0.2334
 6432W        W25286   3.286   3.330   0.729 -0.3231  0.1411 -0.0816
 6433W        W25287   5.242  10.636   0.925  0.2234 -0.2184  0.4795
 6434W        W25288   6.064  10.703   1.494  0.0758  0.2501  0.1934
 6435W        W25289  17.046   2.534  11.724 -0.0810  0.1145 -0.1503
 6436W        W25290   1.940  14.871   3.393  0.0045 -0.2407 -0.0476
 6437W        W25291  17.565  16.787  14.852 -0.2496 -0.3010  0.1168
 6438W        W25292  18.541   2.667   4.092  0.0266  0.0732 -0.2072
 6439W        W25293  17.197   6.863   0.519 -0.2478 -0.1090 -0.3221
 6440W        W25294  13.867   8.048   0.650  0.0110 -0.0834  0.0244
 6441W        W25295   3.140   0.189   3.407  0.0791  0.2167  0.3885
 6442W        W25296   5.970   4.247  11.324 -0.2760 -0.0502  0.0902
 6443W        W25297  17.065  13.774   1.652  0.0170 -0.1335 -0.0964
 6444W        W25298   1.722  14.028   3.286  0.1940 -0.2386 -0.0008
 6445W        W25299  14.814   7.742   0.295  0.0130  0.0389  0.0330
 6446W        W25300   2.023   9.430   3.484  0.0982  0.0588  0.2949
 6447W        W25301  12.648   8.295  11.840 -0.0328 -0.0139 -0.0127
 6448W        W25302  16.044   9.125  14.764 -0.1742  0.1194 -0.1980
 6449W        W25303  10.752  12.542  10.861 -0.1536  0.2706  0.1045
 6450W        W25304   6.993  17.930   3.762  0.2417  0.2009 -0.0087
 6451W        W25305   0.961  12.908   1.983 -0.1716 -0.2654 -0.0740
 6452W        W25306  14.756   3.290  10.941 -0.2988 -0.1900 -0.3294
 6453W        W25307   2.121   6.804  11.424  0.1466 -0.0756 -0.2762
 6454W        W25308   0.236   3.021  11.975  0.1977 -0.1454 -0.2478
 6455W        W25309   4.876   4.308   2.313 -0.0917  0.0267  0.1233
 6456W        W25310   5.678   9.054   3.395 -0.1304  0.2315  0.0093
 6457W        W25311  15.806  17.570   4.199 -0.2104 -0.2006 -0.2831
 6458W        W25312  14.894  17.697  12.505  0.3838 -0.0178 -0.2005
 6459W        W25313   7.814  12.393   2.176  0.0084  0.0687 -0.3218
 6460W        W25314   9.177  17.292  15.105  0.0609 -0.1598 -0.0979
 6461W        W25315  14.081   7.181  11.983  0.2419 -0.2123  0.1730
 6462W        W25316   6.654   6.569  10.952  0.2037  0.0738  0.0822
 6463W        W25317  15.986  18.184   1.413  0.1407 -0.2378 -0.1892
 6464W        W25318   7.065   0.946  10.998  0.0596  0.0469 -0.0460
 6465W        W25319   1.850   1.727  13.749 -0.0805 -0.0685 -0.0080
 6466W        W25320   0.336   4.961  13.629 -0.1654 -0.2190 -0.1711
 6467W        W25321   2.025   8.753   2.314 -0.0317  0.0698  0.1342
 6468W        W25322   0.809  10.716   9.713 -0.2437 -0.0835 -0.2186
 6469W        W25323  10.161   0.657  10.638 -0.2435  0.1205  0.0521
 6470W        W25324  15.428  11.151   1.427  0.0454 -0.0057 -0.0694
 6471W        W25325   7.142  13.428   1.727  0.0653  0.1811  0.1847
 6472W        W25326  13.992   6.175  12.668 -0.1749  0.0758  0.2363
 6473W        W25327   1.065   0.989  14.456 -0.0088 -0.1081 -0.2176
 6474W        W25328   8.156   4.191   4.055 -0.1805  0.0244 -0.1965
 6475W        W25329  18.111  18.786   0.889 -0.0262 -0.3264  0.0716
 6476W        W25330  15.214  17.287  11.157 -0.1005  0.2204  0.0053
 6477W        W25331  16.163   1.710  12.910  0.3943  0.3025  0.3767
 6478W        W25332   6.516  10.167   0.531 -0.0901  0.0529  0.0815
 6479W        W25333  18.368  14.536   3.625 -0.0396 -0.1468 -0.1068
 6480W        W25334  14.078  12.708   3.572 -0.2876  0.1059  0.1751
 6481W        W25335  10.916  14.254   0.008  0.0244  0.3375 -0.0445
 6482W        W25336   9.702   7.323  12.269 -0.1867 -0.0266 -0.0031
 6483W        W25337  18.447  16.246   0.612 -0.0720 -0.1843 -0.3341
 6484W        W25338   3.960   3.444   3.939 -0.1025 -0.0916  0.2878
 6485W        W25339  10.763   1.458   0.096  0.0088 -0.0060 -0.1248
 6486W        W25340   8.994   5.654   1.665 -0.1110 -0.1291  0.0356
 6487W        W25341  13.713   1.155   4.502 -0.0614 -0.1505  0.1465
 6488W        W25342   5.641  14.379  12.668  0.2142  0.0901 -0.1389
 6489W        W25343   9.933  16.130  12.804  0.1649 -0.3269 -0.3252
 6490W        W25344   2.523   6.716   0.388 -0.2397  0.0708 -0.0128
 6491W        W25345   3.482   1.095   0.223  0.2316 -0.1721 -0.2589
 6492W        W25346  18.842  13.419  12.160  0.2319 -0.0010  0.1397
 6493W        W25347   1.220   1.666   2.920  0.0822  0.1204 -0.1159
 6494W        W25348   3.319  14.704   2.972  0.1648  0.2644 -0.0162
 6495W        W25349   9.298  16.199   0.429  0.0825 -0.3070 -0.0936
 6496W        W25350  17.017  15.495   4.486 -0.0601 -0.1958  0.0635
 6497W        W25351   8.405  13.744  13.252  0.0478  0.0700 -0.1714
 6498W        W25352  12.855   5.935  13.226 -0.3452  0.0788 -0.2970
 6499W        W25353   7.222  14.875   0.855  0.1959  0.3864 -0.0650
 6500W        W25354  14.778   1.725   4.049 -0.1696 -0.0764 -0.2081
 6501W        W25355  17.890  14.278   3.494  0.2976 -0.0588  0.1419
 6502W        W25356   1.446  18.124   0.926 -0.0309 -0.0870  0.1032
 6503W        W25357  15.501   5.236   0.379 -0.3026 -0.1429  0.1192
 6504W        W25358   3.909   9.676   9.946 -0.2564  0.2708  0.0487
 6505W        W25359   2.010   9.669  13.311  0.2092  0.0979  0.1232
 6506W        W25360   6.631   7.700   0.939  0.0324 -0.0204 -0.3234
 6507W        W25361  10.166   8.122  14.110 -0.0959  0.0012  0.0952
 6508W        W25362   4.772  14.681  13.625 -0.0893  0.2856 -0.3315
 6509W        W25363   8.527   8.625   2.739  0.1414 -0.1760 -0.0422
 6510W        W25364  16.313   7.636   3.637  0.3062  0.0489  0.0752
 6511W        W25365   5.227   8.970  12.574 -0.0091  0.0765 -0.1025
 6512W        W25366   4.372  18.217  13.100  0.0420  0.0951 -0.2960
 6513W        W25367  17.902  10.423   0.223  0.0754 -0.0094 -0.0648
 6514W        W25368   4.277   1.099  12.513 -0.1830  0.2505 -0.0925
 6515W        W25369   2.794  18.464   3.015 -0.0838 -0.0415  0.1195
 6516W        W25370  13.691  11.110  13.340 -0.0958 -0.3351  0.0985
 6517W        W25371   2.688   5.002  10.661 -0.1786  0.0840 -0.2275
 6518W        W25372   9.804   1.780   0.367  0.0573  0.1477  0.0422
 6519W        W25373   0.095   0.969   0.414 -0.1693 -0.0686 -0.0068
 6520W        W25374  17.308   9.632  13.476 -0.0440 -0.2772  0.1181
 6521W        W25375   6.976   4.581  10.284  0.1985  0.2240 -0.0635
 6522W        W25376   6.518  14.944  11.255  0.2055 -0.3527 -0.1813
 6523W        W25377  15.509   9.645  11.617 -0.0263 -0.3668  0.3560
 6524W        W25378   9.799  18.268  13.243  0.1798 -0.1452  0.0466
 6525W        W25379  15.341   8.419   3.178  0.2764 -0.0242  0.3441
 6526W        W25380  10.206   1.918  13.485 -0.0110  0.2319  0.3554
 6527W        W25381   8.186  10.271   2.628  0.0543 -0.0849 -0.1464
 6528W        W25382  16.689  14.431  13.512  0.0917  0.1509  0.2875
 6529W        W25383   5.178   0.820  11.909  0.0433 -0.0764 -0.0948
 6530W        W25384  15.172  13.965   1.069  0.0260  0.0994 -0.1428
 6531W        W25385  11.421   0.334   4.344 -0.0962 -0.1479  0.0275
 6532W        W25386  14.156  10.309   3.890 -0.0675 -0.1236  0.0003
 6533W        W25387  17.888   1.898   0.441  0.1576 -0.3210  0.2538
 6534W        W25388   3.984  16.769  13.499 -0.0237  0.1435 -0.3572
 6535W        W25389   8.174  14.430   3.534  0.0817 -0.1297 -0.1040
 6536W        W25390   0.983   9.685  11.656 -0.2028 -0.1873 -0.0268
 6537W        W25391   7.487  11.757   3.869 -0.0643  0.1313  0.1352
 6538W        W25392   6.329  15.014   1.650 -0.1365 -0.0069 -0.1857
 6539W        W25393  11.671   9.237  13.815  0.0646  0.2490  0.0795
 6540W        W25394  15.266  15.450   4.437  0.0120  0.2308 -0.2217
 6541W        W25395   9.223  15.096   2.166 -0.1695  0.1688 -0.1365
 6542W        W25396   2.710  13.483   1.782  0.0465 -0.1703  0.0019
 6543W        W25397   3.529   6.794   2.705  0.1627  0.3304 -0.1274
 6544W        W25398   5.217   5.281   2.824  0.1677  0.0967 -0.2351
 6545W        W25399  18.390   6.611   2.656 -0.2074  0.1052  0.0025
 6546W        W25400  10.629   4.551   2.319  0.0165  0.4163  0.2182
 6547W        W25401   6.193  12.349   3.914  0.0565  0.2745  0.0606
 6548W        W25402  16.560   6.149  12.470 -0.0175  0.2646  0.0706
 6549W        W25403  15.794  10.670  11.067 -0.0899  0.1440  0.1882
 6550W        W25404  14.521  14.573  11.841 -0.0140 -0.0151  0.0745
 6551W        W25405   4.388  16.709   0.942 -0.0361  0.1559  0.1896
 6552W        W25406  17.899  12.110  12.491 -0.0128  0.2763 -0.0106
 6553W        W25407  11.338  10.854  12.763  0.0708 -0.3360  0.1080
 6554W        W25408  11.194   5.891  11.741  0.0091 -0.2185  0.0721
 6555W        W25409   5.622  18.043  10.917  0.2492 -0.2154 -0.2155
 6556W        W25410   6.119   6.316   2.388 -0.1338 -0.0592 -0.1896
 6557W        W25411  16.597   5.253   0.175 -0.2046 -0.0377 -0.1315
 6558W        W25412   6.957   9.995  13.980  0.0330 -0.0443  0.0411
 6559W        W25413   1.615   6.831  14.156  0.0211  0.0628  0.1203
 6560W        W25414  10.718   0.529  13.101  0.0911  0.1000  0.3539
 6561W        W25415  17.060  15.023   0.130  0.2151  0.0855  0.0611
 6562W        W25416  15.251   9.051   2.909  0.2691 -0.0061 -0.2240
 6563W        W25417   1.919   9.379  11.754 -0.1437 -0.1586 -0.0938
 6564W        W25418   0.665  17.192   4.240  0.2416  0.2352 -0.1896
 6565W        W25419   3.674  16.858   4.260 -0.0846  0.1786  0.0303
 6566W        W25420   5.932  18.433  13.795  0.5413 -0.0932  0.0867
 6567W        W25421   3.278  17.997   2.240 -0.0868  0.1771 -0.2044
 6568W        W25422   2.012  14.887   4.213 -0.0878  0.2793  0.0570
 6569W        W25423   5.294  10.841  10.364  0.0943  0.0282 -0.3047
 6570W        W25424  13.843  10.385  11.526 -0.3681 -0.0589 -0.1020
 6571W        W25425   3.403  11.087   4.195 -0.0504 -0.1525 -0.1721
 6572W        W25426   5.343  11.573   0.610  0.1122 -0.2090 -0.0651
 6573W        W25427  10.311  17.550  12.588 -0.0784 -0.1434 -0.0081
 6574W        W25428  15.728   2.902  10.549  0.2910  0.3767 -0.2173
 6575W        W25429  16.693   6.028  14.995 -0.0081  0.1459  0.2520
 6576W        W25430   1.769  15.142   2.975 -0.0514  0.0289  0.1121
 6577W        W25431  12.394   9.823   3.929 -0.1745  0.0402  0.0008
 6578W        W25432  12.174   6.915   0.440 -0.3284 -0.4240  0.0438
 6579W        W25433   0.159  15.453   2.324  0.1036  0.0278 -0.1729
 6580W        W25434   6.249   2.946   0.986 -0.0713 -0.1464 -0.0218
 6581W        W25435  14.750  17.824   3.163  0.3829 -0.0087  0.3218
 6582W        W25436  11.329   8.796  12.588  0.0248 -0.1926 -0.0806
 6583W        W25437  15.262  10.127   1.955 -0.0927 -0.2700  0.1719
 6584W        W25438  12.322   5.789   2.726  0.0903 -0.1947 -0.2926
 6585W        W25439   9.007   3.902  12.812 -0.1517  0.1389 -0.0637
 6586W        W25440   8.136  10.137   3.722  0.1058  0.1499 -0.1254
 6587W        W25441   6.411   2.311   2.398  0.0296 -0.1745 -0.0510
 6588W        W25442   6.072  18.092   2.372  0.0475  0.1824 -0.1642
 6589W        W25443   6.416   2.666   5.027  0.1466  0.0073 -0.1853
 6590W        W25444   5.206   1.340  11.891  0.6460  0.0947  0.2570
 6591W        W25445   6.860  14.432  14.155  0.0795  0.1896 -0.1618
 6592W        W25446   0.459   3.487  12.222 -0.1583  0.1904 -0.2212
 6593W        W25447  13.095   3.121  13.028 -0.0296 -0.0793 -0.1907
 6594W        W25448  13.738   9.769  14.071  0.1073  0.5076 -0.0315
 6595W        W25449   9.227   1.004  14.640  0.1196 -0.0636  0.1472
 6596W        W25450  14.011  12.847   2.077 -0.2342 -0.1001  0.2626
 6597W        W25451  13.524  12.254   0.514  0.1103  0.2873 -0.0656
 6598W        W25452  16.054   7.896   4.456 -0.0655  0.0456  0.0187
 6599W        W25453  10.365   9.571   1.316 -0.0774  0.0976  0.2393
 6600W        W25454   7.102  15.602   2.001  0.0549  0.5548 -0.2033
 6601W        W25455   2.587   0.072   1.174 -0.1209  0.0998  0.2405
 6602W        W25456   5.091   0.001   2.490  0.1095  0.2238  0.1801
 6603W        W25457  12.135   3.295  10.521  0.1366  0.0105 -0.0344
 6604W        W25458  10.785  11.348  14.640 -0.0837 -0.0492 -0.1084
 6605W        W25459   1.625  11.701   2.989  0.1253  0.0294 -0.0201
 6606W        W25460  18.635   5.459   5.085  0.0301 -0.1665 -0.3892
 6607W        W25461  14.917  17.209   4.176  0.0720  0.0091 -0.0345
 6608W        W25462  11.112  10.808   0.866 -0.0900  0.0950  0.1714
 6609W        W25463  12.676  16.086  14.135  0.0178  0.0722  0.1840
 6610W        W25464  10.641   5.048  13.940  0.2146 -0.0035 -0.1201
 6611W        W25465   6.947   3.787  15.110 -0.0905  0.4744 -0.3104
 6612W        W25466  16.694  10.026   3.139 -0.1217  0.0265 -0.0155
 6613W        W25467  16.768   3.260   3.504  0.0856 -0.0347  0.3006
 6614W        W25468  18.259  16.088  14.798  0.1041  0.0363  0.2193
 6615W        W25469   5.691  14.450   9.731 -0.3489  0.2735  0.2198
 6616W        W25470  18.550  17.277  12.262  0.0708  0.0327  0.1049
 6617W        W25471   4.843   7.636   9.608 -0.0319  0.3512  0.0963
 6618W        W25472   6.997  10.421  11.097 -0.0561 -0.0070 -0.0332
 6619W        W25473   2.672  12.298   0.310 -0.0628  0.2130  0.0290
 6620W        W25474   6.002  17.156   0.133  0.3117  0.0614  0.0971
 6621W        W25475  17.271   4.346   2.343  0.0292 -0.0397 -0.1650
 6622W        W25476  18.242   2.159  10.833 -0.0222 -0.0292 -0.0598
 6623W        W25477   9.702   1.293   0.400 -0.0051  0.0895 -0.1746
 6624W        W25478   9.481  17.527   5.186  0.0346 -0.0389 -0.0319
 6625W        W25479   6.947   8.573   3.927  0.0209  0.0226  0.0188
 6626W        W25480  11.239  13.129  12.131 -0.0151 -0.1230  0.0111
 6627W        W25481  12.985   0.829  13.889 -0.5140 -0.0413  0.3716
 6628W        W25482   8.981  14.406  14.453  0.0834 -0.0491  0.0528
 6629W        W25483   4.522   3.098  13.306 -0.1088  0.2402  0.1035
 6630W        W25484   0.038  14.483  13.015 -0.0246 -0.1302  0.0129
 6631W        W25485   5.541  12.699   2.257 -0.1166 -0.0950 -0.0206
 6632W        W25486   6.600  12.205  12.190 -0.0051 -0.0684  0.1577
 6633W        W25487   7.887  15.235   0.304 -0.0263 -0.1632  0.0817
 6634W        W25488  11.110  14.450   9.794  0.2514 -0.2469  0.0284
 6635W        W25489   5.069  10.951   1.218  0.0445 -0.2421  0.0667
 6636W        W25490  11.556  12.972   4.750 -0.0575  0.0725 -0.2600
 6637W        W25491   1.553   4.613   1.004 -0.4008  0.0550 -0.2757
 6638W        W25492  13.112   8.827   0.300  0.0612  0.0491 -0.1406
 6639W        W25493  10.684  12.436   4.671  0.0744  0.2412 -0.0335
 6640W        W25494  10.365   1.699   4.656  0.1088  0.1297 -0.0100
 6641W        W25495  18.729   8.250   2.654  0.1766 -0.2355 -0.2083
 6642W        W25496   6.867   8.520  15.115  0.0191 -0.0404 -0.1847
 6643W        W25497   6.509   1.652  13.428 -0.1967 -0.1377  0.0990
 6644W        W25498   4.075  16.120  10.542 -0.0225  0.2663  0.0459
 6645W        W25499  12.946   8.497  13.970 -0.1697 -0.1867 -0.0514
 6646W        W25500   6.852   6.811   0.868 -0.3425 -0.1103  0.0991
 6647W        W25501  11.173  13.791   2.655  0.2912  0.2791  0.2310
 6648W        W25502   2.896   8.989  15.098  0.2630  0.1073  0.0477
 6649W        W25503   3.100  18.487  11.027 -0.1302 -0.2422 -0.3069
 6650W        W25504   3.876   9.395   9.537 -0.3326  0.3735 -0.0215
 6651W        W25505   3.607  16.779   2.888 -0.1094 -0.0598  0.0726
 6652W        W25506   2.613   4.164  11.860 -0.0582 -0.2969 -0.2421
 6653W        W25507  11.639   3.922   1.692  0.1291  0.0647  0.3495
 6654W        W25508  15.563  15.074   1.325 -0.3103 -0.0034  0.0507
 6655W        W25509   3.771  11.237  12.622 -0.0911  0.1257  0.0770
 6656W        W25510  18.488   3.697  14.163  0.0096 -0.1690  0.0556
 6657W        W25511  12.430  13.734  14.304 -0.0113 -0.0451  0.0858
 6658W        W25512   7.696  15.879   1.257 -0.2057  0.1108 -0.3990
 6659W        W25513  10.942  18.212   2.908  0.1789  0.0244  0.0982
 6660W        W25514   1.422  16.850   2.176  0.3605 -0.3950  0.0704
 6661W        W25515  17.090  14.791  11.511  0.0124 -0.1537 -0.0823
 6662W        W25516  12.342   8.463   3.787 -0.1791 -0.2029  0.0523
 6663W        W25517  17.188   8.523  13.117  0.1088 -0.2094  0.0158
 6664W        W25518   0.307   5.308   2.517  0.0689 -0.0900 -0.3954
 6665W        W25519   0.347  15.795   3.755  0.0367 -0.2418  0.0981
 6666W        W25520  14.044  15.185   0.022 -0.2802  0.2547  0.2919
 6667W        W25521   8.235  16.385  12.604  0.1450 -0.1314 -0.1505
 6668W        W25522   2.430   9.781  14.794  0.3944 -0.1370  0.1558
 6669W        W25523   5.555  16.467   4.012  0.1172  0.2352  0.3737
 6670W        W25524   6.224   1.304   3.241  0.2736 -0.6629  0.0724
 6671W        W25525  17.498  12.731   0.616 -0.0366 -0.0830  0.2243
 6672W        W25526   8.252   1.838  14.155 -0.0350  0.0196 -0.2675
 6673W        W25527   2.149   7.326   5.610 -0.1601 -0.1610  0.1885
 6674W        W25528  16.403  10.625  13.885 -0.0642  0.1783  0.1977
 6675W        W25529   3.919  17.517  11.081  0.0024 -0.3101  0.3370
 6676W        W25530   3.093  15.286   2.753  0.2443  0.0018  0.1396
 6677W        W25531  12.069   1.045  12.029 -0.1041  0.0807 -0.2352
 6678W        W25532   2.472   6.991   0.867 -0.1030  0.3315  0.2351
 6679W        W25533  13.193  13.644  10.727  0.0281 -0.2648 -0.1959
 6680W        W25534  13.339  14.397   4.014  0.0137 -0.3511  0.0510
 6681W        W25535  17.483   0.581   2.074  0.1343  0.1961 -0.0853
 6682W        W25536  12.704   7.547  14.164 -0.0965  0.2934  0.0546
 6683W        W25537   2.567   3.805   5.330  0.1394  0.1247 -0.0235
 6684W        W25538   3.847  15.660  12.841  0.0001 -0.1589  0.0508
 6685W        W25539  13.302   6.759  11.963 -0.2668 -0.0785  0.4050
 6686W        W25540  12.458  10.375  11.815  0.4535  0.2152  0.0697
 6687W        W25541   4.886   9.374  10.943 -0.0213 -0.0295 -0.4137
 6688W        W25542   3.050  11.405  13.864  0.0766  0.1100 -0.0985
 6689W        W25543   6.811   1.829  11.362  0.2593 -0.1199  0.2257
 6690W        W25544  13.046   4.872  13.856  0.1942  0.2222  0.0893
 6691W        W25545   0.565  16.369  11.365  0.0560  0.1208 -0.1177
 6692W        W25546  18.432   3.681  11.560  0.2175  0.0640  0.0526
 6693W        W25547  13.667  16.465   0.343 -0.0592  0.1079 -0.1453
 6694W        W25548   9.278  14.073   3.753  0.2178  0.0039  0.4416
 6695W        W25549   8.800   4.694  11.800  0.0830  0.2646 -0.1558
 6696W        W25550   4.063   3.017   2.301  0.3770  0.1456  0.1096
 6697W        W25551  10.064  14.303   3.964  0.2824  0.1005  0.3390
 6698W        W25552  17.853  13.258   3.744  0.1729  0.0103  0.0583
 6699W        W25553  10.804  10.233  13.611  0.1418  0.0870 -0.0098
 6700W        W25554   7.123   4.897  11.679 -0.1780 -0.0864  0.1630
 6701W        W25555  17.511   5.896   0.638  0.2709 -0.1770  0.1057
 6702W        W25556  18.004   3.198  12.567  0.0548  0.0130  0.1202
 6703W        W25557  15.485   4.484  14.626  0.2751 -0.3627 -0.1076
 6704W        W25558  10.683   1.906  13.405  0.1880  0.0143 -0.1809
 6705W        W25559  10.410   2.746   9.953  0.2147  0.2580  0.1145
 6706W        W25560  16.029   3.910  13.026 -0.0583 -0.1038  0.2360
 6707W        W25561   3.548   3.819  10.626  0.0002 -0.0336 -0.3953
 6708W        W25562   5.067   2.098  11.492 -0.5013 -0.2468  0.0959
 6709W        W25563  12.717  11.078   2.083 -0.0953 -0.3269 -0.0662
 6710W        W25564   6.963   0.109   3.911  0.0944 -0.2173 -0.0765
 6711W        W25565  18.390  17.003  15.021  0.0090 -0.0033  0.2996
 6712W        W25566  11.986  16.018  13.679 -0.2823  0.1822 -0.1638
 6713W        W25567   7.945  13.573  14.443 -0.2250 -0.1213  0.1633
 6714W        W25568   1.376   3.267  12.753 -0.2167 -0.0804  0.2867
 6715W        W25569  10.789   2.770   0.420  0.0475  0.1025  0.1492
 6716W        W25570  16.607   3.740  14.548 -0.2104 -0.1172  0.4680
 6717W        W25571   6.706  16.473   4.536  0.2063 -0.2459  0.3875
 6718W        W25572  15.900   3.931  13.511 -0.1385 -0.0412  0.0132
 6719W        W25573   2.466  13.555   2.657  0.1450 -0.3536 -0.1889
 6720W        W25574   3.718  17.261   3.352 -0.0156 -0.1847 -0.1021
 6721W        W25575  10.817  13.037   5.267  0.1287  0.1688  0.2012
 6722W        W25576   3.272  15.996  14.232  0.0446 -0.2080  0.1883
 6723W        W25577  15.366   0.398   4.331 -0.0725  0.2288  0.2632
 6724W        W25578   9.171  12.009   4.465  0.0863 -0.3829 -0.0596
 6725W        W25579   9.374   0.896  12.653 -0.1317 -0.1279  0.0578
 6726W        W25580   6.482   7.703  13.967 -0.3198  0.1822 -0.1787
 6727W        W25581  13.809   4.717  12.799  0.1980 -0.1848  0.1445
 6728W        W25582  13.182  10.210  10.638 -0.0632  0.0016 -0.2513
 6729W        W25583   9.959  17.520   2.072 -0.1101 -0.0444 -0.0836
 6730W        W25584  10.362  11.010   0.242 -0.1079  0.2376 -0.0919
 6731W        W25585   2.409   9.270   1.359 -0.0489 -0.4033  0.1115
 6732W        W25586   2.493  13.063  14.871 -0.2770 -0.1558 -0.0604
 6733W        W25587  12.839   0.655  11.561 -0.0776 -0.1516  0.1258
 6734W        W25588   2.937   2.517   4.032 -0.0953  0.1107 -0.5545
 6735W        W25589   4.239  15.978  12.538  0.1615  0.1152  0.1263
 6736W        W25590  14.483   2.213  15.011  0.1446 -0.0805 -0.0738
 6737W        W25591   5.006  18.287  15.096  0.1573  0.2142 -0.2651
 6738W        W25592   7.997   8.977  14.290 -0.1052  0.1029 -0.1936
 6739W        W25593  14.045   7.799   3.461 -0.0375 -0.1023  0.0335
 6740W        W25594   5.281  16.653   1.682 -0.0067 -0.0937  0.2643
 6741W        W25595   6.675   9.747   0.178  0.1517 -0.2027  0.2391
 6742W        W25596  16.340   4.293  12.758  0.2330  0.0965  0.2459
 6743W        W25597  16.674   9.228   1.545 -0.0608  0.5076 -0.0061
 6744W        W25598  18.828   1.349   3.922 -0.2841  0.1098 -0.1511
 6745W        W25599  15.845  15.328   3.609  0.5699  0.2071  0.0079
 6746W        W25600  15.029   6.173  12.130  0.2006  0.0972 -0.1763
 6747W        W25601   0.824  13.372  12.399 -0.3531  0.0131  0.2527
 6748W        W25602  13.249   4.709  11.904  0.0214 -0.1268 -0.0459
 6749W        W25603   0.338  11.067   1.328  0.1041 -0.2909  0.0929
 6750W        W25604   3.735  11.653  14.551 -0.0745 -0.0212  0.1677
 6751W        W25605  13.512   0.324  12.802  0.0256  0.2032  0.0534
 6752W        W25606  11.386   1.324   0.249 -0.3264 -0.0087 -0.0647
 6753W        W25607   8.274  17.707   0.401  0.0526  0.0093 -0.1392
 6754W        W25608  10.734   6.349  12.112 -0.1085 -0.0204  0.0001
 6755W        W25609   2.861  13.199  11.694  0.0327 -0.2541 -0.3613
 6756W        W25610  14.948  11.020   4.638 -0.1690  0.0720  0.0179
 6757W        W25611   8.268  17.788  12.803  0.0479 -0.0097  0.1503
 6758W        W25612   6.646   7.965   3.161 -0.0329  0.0286  0.0040
 6759W        W25613   8.529   5.687   4.222 -0.2380  0.0526  0.0305
 6760W        W25614  17.963   1.071  12.231 -0.0374 -0.0755  0.0981
 6761W        W25615  11.994   8.930  12.033 -0.0016  0.0152 -0.2501
 6762W        W25616  13.322   5.132   0.651  0.0946 -0.1809  0.1459
 6763W        W25617  11.142   9.946  12.192  0.1640 -0.1871  0.0270
 6764W        W25618  17.490  18.062   2.307 -0.0290  0.0477  0.0597
 6765W        W25619   5.773   8.245  11.282  0.1035 -0.2370 -0.2066
 6766W        W25620   4.715  18.359  11.639 -0.1040 -0.2438  0.1374
 6767W        W25621  16.844   0.773  14.974 -0.0859 -0.1930  0.1223
 6768W        W25622  17.180   3.308  15.061 -0.1791  0.1832 -0.0937
 6769W        W25623  11.048   7.894  12.660  0.0586  0.0733 -0.2562
 6770W        W25624  14.785  13.046   0.757  0.2544 -0.2092  0.1388
 6771W        W25625   0.743  14.713  12.289 -0.0538  0.2158  0.1037
 6772W        W25626   3.245  13.295  11.148  0.0392 -0.0120  0.2399
 6773W        W25627  14.055  14.789  13.128 -0.0061  0.1704  0.3650
 6774W        W25628  14.704  11.632   0.160 -0.2424 -0.0146  0.1310
 6775W        W25629   9.960   0.940  11.835 -0.0379 -0.2444 -0.1634
 6776W        W25630   2.096   5.641   2.441 -0.0438  0.3739 -0.1041
 6777W        W25631   6.441  13.371  12.216  0.2305 -0.0140  0.1478
 6778W        W25632  13.393   3.850   2.408 -0.1114  0.0034  0.1636
 6779W        W25633  14.577   4.999  12.425  0.0465  0.0208 -0.0608
 6780W        W25634   5.305   0.568  12.428  0.1004  0.1495 -0.2315
 6781W        W25635  18.218  17.535   3.681 -0.1724 -0.1074  0.1754
 6782W        W25636   7.163  14.361  10.998 -0.1505  0.1320 -0.1046
 6783W        W25637   8.585  17.597  11.362  0.0781 -0.0238  0.0854
 6784W        W25638  15.841   4.116  12.579  0.0474 -0.0671 -0.3905
 6785W        W25639   0.470   8.427   1.722 -0.1867  0.0654  0.0169
 6786W        W25640   6.577   4.653   1.704  0.0400  0.1260 -0.0983
 6787W        W25641  15.571   8.896   2.107 -0.0922  0.1486  0.2464
 6788W        W25642   3.649   5.696   3.354  0.0700  0.2463  0.0159
 6789W        W25643   5.273  13.781  14.975  0.2297 -0.1842 -0.3436
 6790W        W25644   6.730   5.279   2.496 -0.0638  0.0620  0.1246
 6791W        W25645  10.704  17.237   2.850 -0.1421  0.0895  0.0600
 6792W        W25646  14.636  14.932  12.297 -0.0230  0.1462  0.0995
 6793W        W25647   5.927  15.809  12.634 -0.1143 -0.0719 -0.1479
 6794W        W25648   0.567   9.985  13.024 -0.0502  0.0021  0.1123
 6795W        W25649  15.578   5.767   0.196 -0.2441 -0.0816  0.1221
 6796W        W25650   4.054  18.419   1.516  0.2084  0.0770 -0.0123
 6797W        W25651   5.379  15.603   1.787  0.2232 -0.1238 -0.0548
 6798W        W25652   5.187   1.120  14.927  0.0841  0.1051 -0.2448
 6799W        W25653   6.315  11.969   2.185  0.3207  0.0613  0.3348
 6800W        W25654  18.441   4.082   1.121  0.0104 -0.0078 -0.2736
 6801W        W25655   5.108  11.193   2.218 -0.0486 -0.1011 -0.0057
 6802W        W25656  13.703   7.514  14.399 -0.1326  0.1021 -0.1816
 6803W        W25657  10.155   7.277  11.556 -0.1531 -0.0808 -0.0955
 6804W        W25658  16.347  15.083   1.472 -0.0895 -0.0725  0.2024
 6805W        W25659  12.176   0.499   1.143 -0.2550  0.1544 -0.3257
 6806W        W25660   3.417   7.643  11.414 -0.3905  0.1013  0.0869
 6807W        W25661   6.304  15.908   0.696  0.1689  0.4377  0.0561
 6808W        W25662   2.481  13.724   1.403  0.0783 -0.0793  0.0247
 6809W        W25663  13.286  11.775   0.474 -0.0537  0.2852  0.0275
 6810W        W25664   9.423   5.930   2.193  0.0384  0.0213 -0.1208
 6811W        W25665  11.673  13.244  12.361 -0.0450 -0.1488 -0.0400
 6812W        W25666   2.644   7.008  13.036 -0.1511  0.0088  0.1285
 6813W        W25667   5.154   6.180  13.125 -0.0056 -0.0079 -0.2402
 6814W        W25668   7.650   8.575  11.675 -0.1971 -0.0120 -0.0162
 6815W        W25669   8.839  13.819   3.840  0.0655 -0.0449  0.0622
 6816W        W25670   9.617  18.705  11.079 -0.3049 -0.0123 -0.1265
 6817W        W25671   0.110  17.923   1.172 -0.2012  0.3928 -0.2153
 6818W        W25672   5.434  14.785  14.042 -0.3426 -0.2504  0.4368
 6819W        W25673  12.993   6.542  12.789 -0.4670 -0.0979  0.1055
 6820W        W25674  13.727   2.093  12.171  0.3369  0.0740 -0.3325
 6821W        W25675   3.916  12.123   4.706  0.1235  0.0859  0.0945
 6822W        W25676   9.950   1.726  13.065 -0.1175 -0.1187  0.0362
 6823W        W25677  10.390  16.097   1.025 -0.1069 -0.3740  0.0459
 6824W        W25678   8.784  12.316   4.798 -0.1360  0.1348 -0.1974
 6825W        W25679   6.985   5.023   1.179  0.0993  0.3286  0.0676
 6826W        W25680  18.131  13.243  14.253  0.0190 -0.1420 -0.3081
 6827W        W25681  14.797  14.173   4.460 -0.0054 -0.1934  0.2089
 6828W        W25682   1.862   0.507  11.805  0.2440  0.0503  0.3330
 6829W        W25683   3.865  10.439  11.456  0.2256 -0.1692 -0.0581
 6830W        W25684   6.886   4.996   4.251  0.4249 -0.3416 -0.1328
 6831W        W25685  11.580   1.956  13.223 -0.0464 -0.1186 -0.0987
 6832W        W25686  12.880  11.467   2.412 -0.0858  0.1316  0.1192
 6833W        W25687   2.382  17.510   2.015  0.1483 -0.0261  0.1847
 6834W        W25688  12.914  16.587   4.161  0.0515 -0.0763  0.0888
 6835W        W25689  18.801  11.299  12.856 -0.0316  0.1146 -0.1553
 6836W        W25690   3.761  10.365   2.254  0.0885  0.1007  0.1779
 6837W        W25691   1.742   2.042   2.035 -0.0199 -0.0911 -0.1008
 6838W        W25692   6.974  13.304  13.349  0.3251  0.3668 -0.0384
 6839W        W25693   3.577  11.368  10.814 -0.0794 -0.0909  0.1574
 6840W        W25694  14.843  18.224  12.594 -0.1191  0.1539 -0.0159
 6841W        W25695  11.842   5.839  14.184 -0.1824 -0.2419 -0.0223
 6842W        W25696  18.026  16.579  10.192  0.3526  0.1591 -0.1237
 6843W        W25697  18.396   1.239  13.530 -0.0142 -0.0496  0.2796
 6844W        W25698   3.088  14.066   3.513 -0.0264  0.1347 -0.3501
 6845W        W25699   0.222   8.769   2.827 -0.2148 -0.1746 -0.0482
 6846W        W25700   5.864  10.246  13.082 -0.1262  0.1116  0.0346
 6847W        W25701  14.733  16.442  11.867 -0.0133  0.1970 -0.2987
 6848W        W25702   9.914  18.827  14.291  0.2430  0.1900 -0.1483
 6849W        W25703  15.753   6.011   3.932  0.2107  0.1420 -0.0278
 6850W        W25704  17.776  13.210  15.026 -0.0151  0.1448  0.2282
 6851W        W25705  13.256   9.281   4.035  0.0103 -0.2112 -0.1286
 6852W        W25706   2.035   1.011   4.527 -0.0145  0.3422 -0.2762
 6853W        W25707   0.501  14.602  14.432  0.0582  0.0557 -0.4032
 6854W        W25708   3.279  16.260   0.150 -0.1273  0.1455 -0.1977
 6855W        W25709   9.596  16.640  10.920 -0.0624  0.1364 -0.1049
 6856W        W25710  15.591  11.030  11.383 -0.2282 -0.1131 -0.2557
 6857W        W25711  14.035  14.450  14.324  0.1145 -0.0281 -0.0312
 6858W        W25712   0.471   3.382   2.518 -0.2642  0.1402  0.0727
 6859W        W25713  10.211   3.009   2.314  0.0411 -0.0704  0.2850
 6860W        W25714   0.578   8.371   3.857  0.1449 -0.0601 -0.2904
 6861W        W25715  18.601  15.166   4.557  0.0035  0.0390  0.1459
 6862W        W25716  13.510  17.068   4.203 -0.1200 -0.0539  0.0131
 6863W        W25717   8.358   4.470   4.456  0.1581  0.2545  0.2332
 6864W        W25718   8.882  14.256   2.695 -0.0376  0.3332 -0.1126
 6865W        W25719   1.589  11.149  12.128 -0.3139  0.0640  0.0994
 6866W        W25720   2.998  18.554   0.064 -0.3518  0.2570 -0.0154
 6867W        W25721   5.486  13.491   2.745  0.0268  0.2199 -0.2632
 6868W        W25722   0.810  15.089  13.436  0.1159 -0.1415  0.1156
 6869W        W25723  13.023  13.794   2.382  0.0669  0.2446 -0.2760
 6870W        W25724  15.974  17.759  14.810 -0.0107  0.0761  0.2830
 6871W        W25725   5.869  13.980  14.089 -0.1403  0.4569  0.2370
 6872W        W25726  13.515   9.230   3.558  0.2417  0.3264 -0.0133
 6873W        W25727  11.866  11.072   1.382 -0.2274  0.1381 -0.3756
 6874W        W25728  11.391   0.499   3.846 -0.0139  0.2312 -0.2730
 6875W        W25729   5.112  14.217  10.894 -0.0016 -0.0533  0.0469
 6876W        W25730  17.728   2.375  14.879 -0.1416  0.0856  0.3319
 6877W        W25731  11.068   3.194   2.803  0.0399  0.0752 -0.0379
 6878W        W25732   1.024   1.919  13.484  0.1537 -0.0084 -0.0517
 6879W        W25733  14.802  10.828  11.898 -0.0374 -0.1231 -0.2850
 6880W        W25734  16.848  18.546   1.906  0.1613  0.0200  0.1124
 6881W        W25735   4.828   1.422  12.319 -0.1847  0.1312 -0.0754
 6882W        W25736   9.247  18.120   2.893 -0.0974 -0.3856 -0.0725
 6883W        W25737   4.507  11.515  12.413 -0.1572 -0.0973  0.0480
 6884W        W25738  11.684   9.354   3.386  0.2664  0.1496 -0.1744
 6885W        W25739  14.851   6.567   4.245  0.0770  0.0509 -0.0791
 6886W        W25740  16.641  11.617   4.398 -0.0019 -0.1052 -0.0808
 6887W        W25741   1.814   5.283   1.502 -0.0463 -0.1325  0.3326
 6888W        W25742  18.306  17.552   2.756  0.2565  0.1549 -0.1331
 6889W        W25743   8.535  12.733   3.022 -0.4505  0.2172 -0.0434
 6890W        W25744  13.528   5.564  11.572  0.0313 -0.1481 -0.2055
 6891W        W25745   7.718  13.352   0.811 -0.0175 -0.0447 -0.0610
 6892W        W25746  14.221  16.952  14.599 -0.0832 -0.0727  0.0564
 6893W        W25747   4.755   7.242   2.998 -0.4474  0.1444  0.0520
 6894W        W25748   8.683   9.978  10.990 -0.0375  0.2922 -0.0903
 6895W        W25749  12.428  14.558  11.997 -0.2284  0.1633  0.3565
 6896W        W25750   3.290  17.619   3.177 -0.0803 -0.2546  0.0995
 6897W        W25751   5.266   9.338  10.556  0.0490 -0.2649  0.1834
 6898W        W25752   9.286   4.020   3.396 -0.1328  0.1385 -0.0386
 6899W        W25753  17.585   9.329  12.042 -0.0079 -0.1099  0.0434
 6900W        W25754  11.975   4.662  14.899 -0.2561  0.1360 -0.1336
 6901W        W25755   7.759  15.091   3.892 -0.0605 -0.0535  0.0572
 6902W        W25756   3.181   3.683   3.296 -0.0058  0.3760 -0.2405
 6903W        W25757   3.078  17.718  14.871  0.4969 -0.1496  0.3443
 6904W        W25758  10.907   4.099  11.462 -0.0428  0.2593  0.0725
 6905W        W25759   1.515   0.126  15.018  0.0597 -0.0823  0.0080
 6906W        W25760   5.568   2.493   0.094  0.2109  0.2350 -0.0978
 6907W        W25761   7.879   9.849  12.104  0.3703 -0.2442 -0.1956
 6908W        W25762   6.928   3.593  13.356  0.1630 -0.2881  0.0623
 6909W        W25763  17.647  12.139   3.042 -0.4169  0.3448 -0.1674
 6910W        W25764   7.182   5.865  11.462  0.1736 -0.0152 -0.2865
 6911W        W25765  11.712   1.938  13.697 -0.1897  0.0358  0.2218
 6912W        W25766  17.066   0.864   1.890  0.0504 -0.0345  0.2650
 6913W        W25767  11.478  14.291   1.952  0.3641  0.0386  0.1652
 6914W        W25768   5.999   3.424  11.089 -0.1455  0.2734 -0.0232
 6915W        W25769  10.503   3.494  13.076  0.1353 -0.2404  0.1581
 6916W        W25770   6.279  10.436  11.536 -0.3102 -0.1836 -0.2278
 6917W        W25771  14.244  18.588   1.492  0.0461  0.1382 -0.0565
 6918W        W25772  18.272  11.663  14.271  0.1602 -0.1163  0.1907
 6919W        W25773   0.290  17.464   3.240 -0.1545  0.0725  0.1520
 6920W        W25774  15.886   0.131  13.021 -0.2017 -0.3016 -0.1948
 6921W        W25775   7.229  11.897  15.068 -0.0525  0.2482 -0.1745
 6922W        W25776   0.819  16.891   2.856 -0.1553  0.0528  0.0411
 6923W        W25777   6.455   1.227   1.790  0.0574  0.1566  0.1113
 6924W        W25778  11.538   6.314  14.389 -0.2494  0.0679 -0.2725
 6925W        W25779   6.027  11.069  12.172  0.2369  0.1057 -0.1115
 6926W        W25780  13.744   8.371  11.199  0.2309 -0.1280  0.2156
 6927W        W25781   0.167  14.426  10.888  0.3313 -0.1879 -0.2244
 6928W        W25782  10.867  11.008   3.779 -0.2724  0.0862 -0.1548
 6929W        W25783   2.545   2.556  13.690 -0.2121 -0.0277 -0.0797
 6930W        W25784  16.795  17.870  15.074  0.0094  0.0767  0.1217
 6931W        W25785   7.610  11.203   3.376 -0.0463 -0.0761  0.0020
 6932W        W25786   0.513  15.524   1.910  0.2125  0.0392  0.0898
 6933W        W25787  12.813   2.801   3.702  0.2025 -0.0429 -0.1375
 6934W        W25788   7.648  14.016  14.590 -0.0841  0.1094  0.0780
 6935W        W25789  14.438  10.857   3.872 -0.0640 -0.3184 -0.2694
 6936W        W25790   0.781  12.106   3.879 -0.2036  0.3845  0.1239
 6937W        W25791  12.069  13.534  14.091  0.2391 -0.0180  0.0277
 6938W        W25792   1.606  17.147   3.280 -0.0362  0.0085  0.2012
 6939W        W25793  16.872  13.780  11.300 -0.1061 -0.1790  0.1228
 6940W        W25794   6.963   3.621   1.734  0.2317  0.1170 -0.1707
 6941W        W25795  15.855   1.566   1.364 -0.1354  0.0541  0.0104
 6942W        W25796  10.769  13.435   9.715  0.0138 -0.2403 -0.1524
 6943W        W25797   3.069  13.611  12.485 -0.0491  0.0126 -0.2555
 6944W        W25798   9.853   3.375  11.326 -0.2758 -0.0679 -0.1133
 6945W        W25799   7.085   5.106  12.313 -0.2610  0.2996 -0.1039
 6946W        W25800   1.577   8.586  14.901 -0.0011 -0.0974  0.0827
 6947W        W25801  12.311   0.106  12.205 -0.2304 -0.1575 -0.2358
 6948W        W25802  17.773  14.292   1.604 -0.0803  0.4368 -0.2345
 6949W        W25803  11.659   7.352   3.186 -0.0878  0.2976 -0.2227
 6950W        W25804   5.325   5.844   1.190 -0.3808 -0.2014  0.1515
 6951W        W25805  11.630  16.833   2.384 -0.0638  0.1156  0.0103
 6952W        W25806   1.148  10.733   1.732  0.0425  0.3342  0.0163
 6953W        W25807  13.321  10.640   4.196  0.0171 -0.0011  0.2017
 6954W        W25808   3.240   0.857  12.524 -0.3590 -0.1229 -0.1274
 6955W        W25809  13.251  18.759  12.396  0.0487  0.2508  0.0469
 6956W        W25810  18.161   2.761  10.803  0.1455  0.0427  0.2363
 6957W        W25811   2.448   1.116   3.089  0.3282 -0.1563 -0.0134
 6958W        W25812   1.844   2.307  14.574  0.2132  0.0711 -0.0635
 6959W        W25813  14.176   9.903   2.161  0.2218 -0.0676  0.4471
 6960W        W25814  12.170   8.968  15.106 -0.0009 -0.0520  0.2233
 6961W        W25815  15.928   3.126  15.124 -0.1408 -0.1698 -0.0302
 6962W        W25816   0.101  15.831  12.973 -0.0477 -0.0808  0.0232
 6963W        W25817  18.528   9.937   3.878  0.2968  0.2272  0.2036
 6964W        W25818  18.613   1.926  14.995 -0.0649  0.0409  0.2677
 6965W        W25819   4.811  10.833   1.587 -0.1086  0.2899  0.2327
 6966W        W25820   5.210  13.642   2.364  0.1892 -0.0216 -0.4611
 6967W        W25821  10.715  10.397   3.220 -0.0566  0.1408  0.3329
 6968W        W25822   7.872  14.265   0.608  0.1499 -0.0152  0.1103
 6969W        W25823  10.070   6.707   1.944  0.1453  0.2709  0.2492
 6970W        W25824   6.108   7.408  15.003 -0.0732  0.3549 -0.0310
 6971W        W25825  16.708   0.343  10.358 -0.0578 -0.1956 -0.0647
 6972W        W25826   8.729   1.242   4.905 -0.2233  0.1360 -0.1368
 6973W        W25827   9.127  10.755  11.052  0.1807 -0.1051 -0.2158
 6974W        W25828  16.237  10.941   1.586 -0.0184 -0.0258 -0.0762
 6975W        W25829   6.916   6.250  11.712  0.2090 -0.5286  0.1138
 6976W        W25830   0.707  10.994  13.944 -0.1161 -0.1874 -0.2872
 6977W        W25831   6.280  12.612   2.038 -0.0237 -0.1262  0.1370
 6978W        W25832   5.481  11.334   3.590  0.0407  0.0234 -0.1147
 6979W        W25833  17.330   1.072  14.958  0.2020  0.2660  0.2358
 6980W        W25834  15.615   1.851  12.993  0.0848  0.0349 -0.0805
 6981W        W25835  12.585   6.805   1.399 -0.3836  0.0092 -0.3818
 6982W        W25836   7.713  17.712  13.166 -0.1543 -0.1312 -0.1984
 6983W        W25837   8.445   7.219   4.379 -0.3941  0.0919 -0.2677
 6984W        W25838  13.831  17.572  14.079 -0.3476 -0.1144 -0.2592
 6985W        W25839  17.886  13.760   3.635  0.0953 -0.2808  0.2092
 6986W        W25840   0.025   8.323   0.270  0.1304 -0.1272 -0.0378
 6987W        W25841  12.301   0.684   1.630 -0.1882  0.3224  0.3755
 6988W        W25842   1.783  18.084  13.095  0.0448  0.1468 -0.1150
 6989W        W25843   2.342   3.760   1.666 -0.0143  0.3284 -0.0697
 6990W        W25844   4.934  14.601   1.631 -0.0855  0.2104 -0.1146
 6991W        W25845  11.086  16.569   1.557  0.0537 -0.3918 -0.2827
 6992W        W25846  17.443  18.545   2.390  0.2531 -0.0700  0.0417
 6993W        W25847   4.970   0.519   0.428 -0.1130 -0.0772  0.4839
 6994W        W25848  12.997  15.925   0.959  0.1603 -0.1040  0.0129
 6995W        W25849  14.837   6.124   3.616  0.1480  0.0712  0.0623
 6996W        W25850   7.475  15.072  12.182  0.2230  0.0562  0.0727
 6997W        W25851   9.156  10.928  13.807  0.0953 -0.2826  0.1121
 6998W        W25852   9.748  17.052   2.133  0.1395  0.4445 -0.1766
 6999W        W25853   4.844  13.567   2.721  0.1607 -0.0974  0.0282
 7000W        W25854  11.785  12.337  11.187  0.1684 -0.1027  0.1229
 7001W        W25855  15.471  13.730   3.187  0.1065  0.4768 -0.2091
 7002W        W25856   3.357   7.691   2.724 -0.1863 -0.1023  0.2801
 7003W        W25857  16.466  12.696  12.865  0.0020  0.5447 -0.1352
 7004W        W25858  14.477  14.496   2.655 -0.1602 -0.1128  0.0736
 7005W        W25859  17.249   7.538   1.442 -0.1517  0.1212 -0.2787
 7006W        W25860  16.444  13.650  11.115  0.1057  0.0317  0.0723
 7007W        W25861  12.096   5.755  12.620 -0.1685 -0.1107 -0.0712
 7008W        W25862   9.534   0.766  11.722 -0.0029 -0.2117 -0.3658
 7009W        W25863  10.625   9.137   1.430 -0.0311 -0.0388 -0.0699
 7010W        W25864  12.534   6.180  14.963  0.1520 -0.1460 -0.0826
 7011W        W25865   3.184  15.204   1.939  0.2143  0.0622  0.0520
 7012W        W25866  11.107   5.544   0.538 -0.0064  0.1605 -0.5061
 7013W        W25867  18.618  16.933  14.524 -0.0853  0.0499  0.4665
 7014W        W25868   9.502  12.233  11.409 -0.1256  0.2910  0.0867
 7015W        W25869   5.048   9.478  12.299  0.0039 -0.2717  0.0754
 7016W        W25870   2.925  12.252  12.724  0.0365 -0.0506 -0.1774
 7017W        W25871  17.973   2.197  12.794  0.1069 -0.0564  0.3855
 7018W        W25872   1.014  18.429  12.358 -0.0620 -0.0913  0.1787
 7019W        W25873   3.307   4.147   1.455  0.0419  0.1755 -0.0203
 7020W        W25874  18.716   5.287  14.537 -0.1586  0.0239  0.1433
 7021W        W25875   8.462  12.025   1.245 -0.1678  0.0280 -0.2311
 7022W        W25876  12.463  15.784  14.476  0.2813  0.2012  0.1552
 7023W        W25877  16.603   1.919  12.536  0.2357 -0.0810 -0.0936
 7024W        W25878   0.964  15.285  11.565 -0.2464  0.0991 -0.1917
 7025W        W25879   5.322   7.592   2.609  0.1823 -0.0813  0.0638
 7026W        W25880   0.685   2.646   1.445  0.1190 -0.2483 -0.3048
 7027W        W25881  16.079  17.729   1.150  0.2536  0.4199  0.2528
 7028W        W25882   1.099   1.797   1.563  0.0770 -0.2611  0.2618
 7029W        W25883  12.096   5.183   0.733 -0.2215  0.1302 -0.0852
 7030W        W25884   5.022   1.051  13.848 -0.0418 -0.1304  0.0828
 7031W        W25885   6.278   3.520   1.193 -0.2366  0.1206 -0.0368
 7032W        W25886   6.125  14.791  11.600 -0.0983 -0.2181 -0.0830
 7033W        W25887  13.647  14.684   2.686  0.3898 -0.0676 -0.2400
 7034W        W25888   6.602   4.977  11.087 -0.3314 -0.1364 -0.0595
 7035W        W25889   6.184  12.775   0.187  0.0520  0.0115  0.0467
 7036W        W25890  11.598  12.495   4.923 -0.0848  0.2758  0.0960
 7037W        W25891   9.017   9.126  12.851 -0.2450 -0.2645 -0.1255
 7038W        W25892  12.672  11.052  15.018 -0.0195  0.0513  0.1765
 7039W        W25893  10.414  16.144   1.555  0.1222 -0.0596  0.0294
 7040W        W25894   6.076  15.155   3.382 -0.1631 -0.0735 -0.2851
 7041W        W25895   1.718  12.587   3.597 -0.4003  0.1863  0.1173
 7042W        W25896  11.916  11.869  14.882  0.0812 -0.0239  0.0246
 7043W        W25897  18.641   1.093  10.759 -0.1420  0.0703  0.0375
 7044W        W25898   1.870  13.761  13.315  0.2319  0.3389  0.0109
 7045W        W25899  10.866   2.780  11.130  0.1174 -0.1809  0.0012
 7046W        W25900   0.915   0.030  10.550  0.4725 -0.2794 -0.0657
 7047W        W25901   1.298   6.038  12.145 -0.0500 -0.4381  0.0582
 7048W        W25902   5.612   7.668  13.594 -0.0178 -0.3451 -0.0672
 7049W        W25903  12.296   0.809  10.955  0.0559  0.0529 -0.1354
 7050W        W25904   8.465  15.857   3.053 -0.1532 -0.0642  0.2625
 7051W        W25905  17.920   0.088   1.356  0.1092  0.0224  0.4814
 7052W        W25906   8.174  12.435  14.137 -0.0788  0.1803 -0.0971
 7053W        W25907  11.390  18.767   3.626 -0.1976  0.1751 -0.0244
 7054W        W25908   2.399  16.199   1.122 -0.0997 -0.1668 -0.0732
 7055W        W25909  10.894   6.859  11.549 -0.3003  0.3407 -0.0378
 7056W        W25910  16.467  15.815   3.705 -0.5480  0.1130 -0.1259
 7057W        W25911   2.228   8.253  12.679  0.0836 -0.1600  0.1060
 7058W        W25912  18.333  12.683  11.767  0.0238  0.1725 -0.1356
 7059W        W25913  10.779  14.320  12.388  0.0918 -0.0680 -0.1556
 7060W        W25914  11.209  11.302  14.861  0.0097 -0.0370 -0.0896
 7061W        W25915   4.049  10.438   3.157 -0.0159  0.0537  0.1269
 7062W        W25916  14.285   6.892   2.329 -0.0987 -0.2739  0.1336
 7063W        W25917   5.500   0.386   0.434 -0.2072 -0.1652 -0.3821
 7064W        W25918  10.436   3.356  14.524  0.0610 -0.1224  0.0993
 7065W        W25919   1.525  14.569  11.659  0.0861  0.0166 -0.2195
 7066W        W25920   7.810  18.716   1.418 -0.0157  0.2209  0.0748
 7067W        W25921   0.243  13.449   2.426 -0.0120 -0.1540  0.1587
 7068W        W25922  11.837  14.456   2.510 -0.2722  0.2808 -0.0546
 7069W        W25923   8.820   4.563  13.230  0.0623  0.3313  0.1070
 7070W        W25924   4.674  13.575   0.617  0.1402 -0.2959 -0.0006
 7071W        W25925  18.640   1.949   4.729  0.1234 -0.1122  0.1518
 7072W        W25926   5.329   1.434   0.179 -0.0631  0.1131 -0.0271
 7073W        W25927  18.762  15.394   0.640  0.1162 -0.1903 -0.1575
 7074W        W25928   2.123  12.357  10.377  0.0632 -0.2122  0.1430
 7075W        W25929  16.644  13.458  12.585  0.2574 -0.0031 -0.0533
 7076W        W25930   6.986   4.328   3.882  0.3791  0.2396 -0.2190
 7077W        W25931  18.767  10.997  14.528 -0.0072  0.0573  0.2916
 7078W        W25932  15.655   2.895  11.875  0.2409  0.0320 -0.2881
 7079W        W25933   9.945  13.402   0.075  0.0391 -0.1883  0.1106
 7080W        W25934   3.516  14.836   2.141  0.1439  0.0675  0.0764
 7081W        W25935   1.949   4.299   2.544  0.1166  0.0536  0.2341
 7082W        W25936   8.197  18.661  14.433  0.0540  0.0548  0.2715
 7083W        W25937   2.964  14.102  12.281  0.1155  0.4838  0.0410
 7084W        W25938  16.850   4.010  12.757  0.2197 -0.3585 -0.0403
 7085W        W25939   9.186  15.131  12.319  0.1897 -0.3766 -0.0404
 7086W        W25940  14.787  15.839   4.415  0.1323  0.1133  0.1107
 7087W        W25941  16.082   4.377  13.227  0.2301  0.3492  0.0339
 7088W        W25942   6.275   3.524   3.230 -0.0230 -0.2276 -0.2071
 7089W        W25943  15.555  18.282   1.029 -0.0001 -0.0760  0.1060
 7090W        W25944  15.990  15.105  13.304  0.0382 -0.0135 -0.0275
 7091W        W25945  11.932  17.179   0.006  0.1596  0.0923 -0.0962
 7092W        W25946   4.138  11.816  12.248 -0.1363 -0.2381  0.0793
 7093W        W25947   7.306   6.849  12.263 -0.0791  0.1046  0.0967
 7094W        W25948  18.237  11.587  13.227  0.3950  0.2458 -0.1486
 7095W        W25949  14.983   5.556   0.147 -0.1614  0.0112 -0.0051
 7096W        W25950   3.024   0.111  12.001 -0.0937 -0.1704 -0.0250
 7097W        W25951  14.335   6.803  13.343  0.1382  0.1404 -0.1023
 7098W        W25952  18.110   0.251  12.144  0.3709  0.1235  0.2243
 7099W        W25953   8.329  14.860  15.122 -0.1578 -0.0120 -0.3134
 7100W        W25954  16.799  12.822   1.338 -0.1544 -0.0527 -0.0253
 7101W        W25955  16.586   6.742  13.254  0.0623 -0.2343  0.0236
 7102W        W25956   9.126  10.909  12.729 -0.3030  0.3459 -0.0183
 7103W        W25957  14.325   6.118   1.117  0.2193 -0.2549 -0.1484
 7104W        W25958  15.734  15.930   2.742  0.0207  0.1784 -0.2840
 7105W        W25959  16.447   2.971  11.685 -0.1824 -0.0496 -0.0330
 7106W        W25960   1.878  17.279   0.999  0.2404 -0.0064 -0.0769
 7107W        W25961  15.619   3.068   1.950  0.0404 -0.0375  0.2148
 7108W        W25962   8.260  10.473   2.031 -0.1001  0.0546 -0.1066
 7109W        W25963   0.809  14.901   3.691 -0.1350  0.2027  0.0372
 7110W        W25964   4.220  13.438  14.083  0.1132 -0.2115  0.2263
 7111W        W25965   1.410  15.530   4.213 -0.2997 -0.1929  0.0068
 7112W        W25966   4.633  16.424  12.813  0.0912 -0.0631  0.0467
 7113W        W25967  12.770   0.532   0.187  0.1348 -0.1125 -0.1683
 7114W        W25968  17.405  16.659   3.153  0.3656 -0.3647 -0.0175
 7115W        W25969  13.997  13.188   3.723 -0.0218  0.1802  0.2485
 7116W        W25970  12.247  10.214   4.218  0.1271  0.1914  0.4036
 7117W        W25971  16.035  13.063   9.745  0.2198 -0.1958 -0.1887
 7118W        W25972  11.279  10.046   3.464  0.2622 -0.0186 -0.0299
 7119W        W25973  15.173   7.413  11.539  0.0371 -0.1604  0.0920
 7120W        W25974   1.328   8.942   4.249 -0.2657 -0.1207  0.2752
 7121W        W25975   3.675  12.671   1.152 -0.0374  0.0275  0.1636
 7122W        W25976  15.365   7.440   0.525  0.0550 -0.0656 -0.0202
 7123W        W25977  17.057   3.132  10.901  0.1397  0.0739  0.1201
 7124W        W25978   6.987  12.056  12.472  0.1911  0.1211 -0.1673
 7125W        W25979  18.310  15.917   2.429 -0.1715  0.0191 -0.1323
 7126W        W25980  12.033   2.812   1.151 -0.0969  0.0455  0.1232
 7127W        W25981   7.768  16.302  11.245 -0.1086  0.1798 -0.0326
 7128W        W25982   7.448   2.382   1.340  0.1008 -0.0736 -0.1463
 7129W        W25983  17.724   0.555   3.727  0.1625  0.5681 -0.0081
 7130W        W25984   3.022   3.993   5.664  0.1462  0.1504  0.2563
 7131W        W25985  18.019   9.740   3.893 -0.3316 -0.0199 -0.0045
 7132W        W25986  16.478   9.630   2.885 -0.0579  0.1034  0.2546
 7133W        W25987   8.394   9.291  10.983  0.4028  0.0691 -0.0540
 7134W        W25988   4.425  11.598   4.982  0.1150  0.0745 -0.0541
 7135W        W25989  13.231   5.630   3.294 -0.0887 -0.1231  0.0667
 7136W        W25990   1.816   7.588  13.370  0.3325 -0.2346  0.1012
 7137W        W25991   5.704  15.913  11.679  0.0833  0.1579 -0.0214
 7138W        W25992  11.988   9.494  12.958  0.1487 -0.0522  0.1839
 7139W        W25993  10.349   0.850  12.903 -0.1922 -0.1929 -0.1258
 7140W        W25994  13.837  13.464  14.521  0.2098  0.2317 -0.1158
 7141W        W25995   7.802   8.969  14.994 -0.1292  0.1702 -0.0789
 7142W        W25996   2.648  17.802   0.117  0.4008  0.0313 -0.0556
 7143W        W25997   2.732   1.245  10.920  0.1791 -0.2715 -0.0895
 7144W        W25998  13.115  18.136  12.866 -0.1026  0.0704  0.2443
 7145W        W25999  14.098   1.423  14.602 -0.0368  0.0997  0.0951
 7146W        W26000   8.227   2.011  11.346  0.2032 -0.1730 -0.1567
 7147W        W26001   5.198   9.708   0.787  0.1269 -0.2607 -0.0055
 7148W        W26002  12.961  13.464   0.958 -0.0807  0.2315  0.3808
 7149W        W26003   9.294  11.519   4.265  0.2845 -0.4183 -0.3056
 7150W        W26004   6.557   8.125   0.023  0.1824  0.0804 -0.0077
 7151W        W26005  10.426   7.686   3.749  0.0521 -0.1206  0.0807
 7152W        W26006  10.051  14.939   1.777  0.1826 -0.1047  0.0590
 7153W        W26007   9.503   4.335  14.827  0.1591 -0.0226  0.0921
 7154W        W26008  14.123   9.998  11.654  0.3657  0.1017  0.3130
 7155W        W26009  16.187   8.536  14.704  0.0828 -0.0923 -0.2013
 7156W        W26010  14.921  17.409  11.541  0.1920  0.2865  0.1446
 7157W        W26011  12.015  17.004   2.751 -0.0249  0.0245  0.0085
 7158W        W26012   1.171   7.905  14.406  0.0504 -0.1835 -0.2726
 7159W        W26013  16.210   0.991  12.632 -0.1100  0.0865  0.0039
 7160W        W26014  12.877  13.882  10.993 -0.0894  0.0640 -0.1635
 7161W        W26015   4.210   3.676   3.529 -0.2118  0.2700 -0.0190
 7162W        W26016  10.264   0.318  14.195 -0.4266 -0.0921  0.0863
 7163W        W26017   2.731   5.636   2.403 -0.0061 -0.1977 -0.0644
 7164W        W26018  11.475   8.154  12.046 -0.1071 -0.2391 -0.0777
 7165W        W26019   2.545   0.321  14.902  0.0154 -0.2245  0.1045
 7166W        W26020   7.528   5.494   3.674  0.1044  0.0161 -0.0331
 7167W        W26021  12.747   5.615   4.729 -0.2461 -0.1591 -0.2746
 7168W        W26022   9.966   1.975   1.222  0.1646  0.3167 -0.1818
 7169W        W26023   9.705   2.029  13.351 -0.1783  0.0501 -0.0520
 7170W        W26024   2.698   9.204   2.923 -0.1081  0.0993  0.0641
 7171W        W26025   2.369   1.665  12.106  0.3693 -0.1942 -0.0060
 7172W        W26026   3.878   6.814   0.787 -0.0518  0.1516 -0.3157
 7173W        W26027   7.627   8.863  12.229  0.0973 -0.0061  0.2116
 7174W        W26028   7.211  18.012  14.526  0.2085 -0.2908 -0.0280
 7175W        W26029  14.555   4.186  12.921 -0.2109 -0.2653  0.0905
 7176W        W26030   7.139  17.028  11.327 -0.5342 -0.0361  0.0062
 7177W        W26031  16.723   0.063   4.271  0.2715  0.1331  0.0119
 7178W        W26032  15.900  15.263   4.123  0.1255  0.2219 -0.0603
 7179W        W26033   5.479  13.616  13.330  0.0160  0.0409  0.0826
 7180W        W26034  12.201  11.005   1.762  0.2599 -0.2526 -0.0775
 7181W        W26035  18.294   3.971   5.199  0.1172 -0.0663 -0.2101
 7182W        W26036   6.835  13.262   1.051 -0.3340  0.2048  0.0643
 7183W        W26037   7.965   6.765  10.274 -0.1378 -0.3097 -0.3256
 7184W        W26038  12.737  14.035   1.058 -0.2738  0.0436 -0.0129
 7185W        W26039  11.330   1.676  14.891 -0.1833 -0.2157  0.1421
 7186W        W26040   3.170  12.809  14.400 -0.0471  0.2039  0.1264
 7187W        W26041  17.000   7.790   3.210  0.0443  0.1284  0.0022
 7188W        W26042   3.950  12.374   1.548 -0.0937  0.3115 -0.0291
 7189W        W26043   7.423   3.102   4.329 -0.0237  0.2769 -0.0995
 7190W        W26044  18.319  10.747   3.253 -0.0179 -0.0537  0.2749
 7191W        W26045  11.692   1.231   3.478  0.1043  0.2622 -0.1688
 7192W        W26046   3.971   3.019   4.904  0.1948 -0.0906  0.1688
 7193W        W26047  15.265   7.263  14.824  0.0055 -0.2457  0.0331
 7194W        W26048   0.553  11.028  11.123  0.1150 -0.1739 -0.0884
 7195W        W26049   1.543  14.634  13.605  0.1046 -0.0796  0.2237
 7196W        W26050  10.543  11.161  13.323 -0.1627  0.0216  0.1084
 7197W        W26051   0.903   4.798   1.929  0.1035  0.1353  0.0692
 7198W        W26052   9.656  17.000   3.551  0.2216 -0.0721 -0.3806
 7199W        W26053  13.934   9.454   3.039  0.0003 -0.0926  0.2773
 7200W        W26054  17.042   4.191   1.883 -0.1054 -0.1486 -0.1226
 7201W        W26055  11.627   5.397  14.450 -0.2005 -0.4461  0.3069
 7202W        W26056   5.066   1.590   2.936  0.1504  0.1375 -0.0801
 7203W        W26057  13.465  17.191   2.469 -0.3787 -0.2803 -0.1580
 7204W        W26058  10.173   0.646  13.804 -0.0388 -0.1066 -0.0954
 7205W        W26059  14.678  17.656   3.637  0.1241 -0.1908 -0.1718
 7206W        W26060  16.567   7.250  12.606  0.1877  0.2230  0.0910
 7207W        W26061  13.956  12.525  10.527  0.0446 -0.3719  0.0424
 7208W        W26062  13.657  18.357  11.998  0.1638 -0.0665  0.1170
 7209W        W26063  17.356   9.899  12.080 -0.0520  0.1451 -0.0073
 7210W        W26064  16.146   8.867   2.855  0.1734  0.0901  0.1817
 7211W        W26065  11.188   9.136   3.206 -0.1086  0.1094  0.0086
 7212W        W26066  17.971  18.203   4.430  0.1732 -0.3363 -0.0495
 7213W        W26067  15.686   9.673   3.211  0.2411  0.3281 -0.2896
 7214W        W26068   6.080   4.060  14.965  0.0318 -0.0395 -0.3232
 7215W        W26069  14.972  17.287   3.515 -0.1182  0.2125  0.0124
 7216W        W26070  10.656   1.318   1.612  0.0790 -0.1506  0.1972
 7217W        W26071  12.991   9.087   4.422 -0.2253 -0.1929  0.2719
 7218W        W26072  11.710   8.956  11.085 -0.1672 -0.3242  0.0478
 7219W        W26073   8.580  12.879  12.674  0.0016 -0.2710  0.1341
 7220W        W26074  18.160  12.456  10.850  0.0101  0.5010 -0.0018
 7221W        W26075   2.497   3.865   1.206  0.2019 -0.0328  0.3035
 7222W        W26076  16.762  16.201   3.717 -0.1808  0.1750 -0.1728
 7223W        W26077  10.306  18.292  13.317  0.0660 -0.1622  0.0221
 7224W        W26078   6.128  12.940  12.216 -0.1951 -0.0403 -0.0455
 7225W        W26079  13.168   0.528   1.368 -0.0959 -0.3507  0.3438
 7226W        W26080   1.553  10.343   3.485  0.1046 -0.1102 -0.0057
 7227W        W26081   8.685   7.546  10.288  0.3414  0.3661  0.0202
 7228W        W26082   8.280   8.349   2.336 -0.0199  0.0242 -0.1223
 7229W        W26083  18.816  11.918   0.379 -0.0295 -0.2006 -0.2404
 7230W        W26084   2.464  18.691  15.028 -0.2323 -0.0340  0.0129
 7231W        W26085  15.301  17.661   1.857 -0.0181  0.1914  0.1967
 7232W        W26086   1.233  13.317  12.711 -0.0949 -0.0789  0.3025
 7233W        W26087   9.707   1.863  11.091 -0.0239  0.2252  0.1023
 7234W        W26088   1.314  15.712   1.914 -0.4680  0.0689  0.3639
 7235W        W26089  12.816   2.708  12.832  0.0641  0.1619  0.2408
 7236W        W26090   8.524   1.378   3.964  0.1316  0.3365  0.2859
 7237W        W26091  13.133   3.595   1.688 -0.0503  0.1101 -0.2689
 7238W        W26092   2.176  11.858   2.118 -0.0973 -0.0767  0.1740
 7239W        W26093  18.562   0.339   2.024  0.2310  0.0607 -0.0938
 7240W        W26094   1.400   1.772  11.175  0.2158 -0.1779  0.1598
 7241W        W26095   9.118  10.570  13.153  0.0345 -0.1824 -0.1372
 7242W        W26096  17.907   3.826   2.362  0.1080 -0.1585  0.0920
 7243W        W26097  12.550   1.175   1.574 -0.3315 -0.1667 -0.1943
 7244W        W26098   5.011   1.978   2.065 -0.0696 -0.0818  0.2080
 7245W        W26099  13.489   5.937   3.590 -0.0257 -0.0670 -0.2916
 7246W        W26100  11.550  12.105   3.470 -0.0493  0.3354  0.0522
 7247W        W26101  10.752   8.714   1.798 -0.1084  0.0115 -0.1475
 7248W        W26102  16.083   0.291  11.019 -0.0938  0.0424 -0.2801
 7249W        W26103  17.397  14.403   3.717 -0.1888 -0.1054  0.2260
 7250W        W26104  13.939   4.011  11.762  0.0082  0.0143 -0.0598
 7251W        W26105  11.212  16.569   3.119 -0.1498  0.1690  0.2715
 7252W        W26106   3.927   7.478  13.925 -0.3319  0.3156 -0.1409
 7253W        W26107   0.230  13.873  10.865 -0.2390  0.0343 -0.1602
 7254W        W26108   2.295  13.370  10.344 -0.0488 -0.0264  0.3628
 7255W        W26109  15.329  14.406  13.743 -0.1487 -0.0515  0.0729
 7256W        W26110   8.524  17.414   5.390  0.0309 -0.0473  0.0694
 7257W        W26111   0.762  11.843  12.242 -0.1002  0.2781  0.1573
 7258W        W26112  15.732   2.442  12.951  0.1344 -0.2480 -0.1031
 7259W        W26113  10.940   3.776  12.617 -0.0610 -0.1724 -0.1004
 7260W        W26114   8.295   2.875  10.782 -0.0640  0.0945  0.1473
 7261W        W26115   4.196  12.289   3.294  0.1317 -0.0079 -0.0887
 7262W        W26116  14.473  14.000   0.352 -0.1704 -0.1415 -0.1455
 7263W        W26117   8.295  15.474   1.691  0.2716  0.2637  0.2725
 7264W        W26118  14.454   2.757  14.241 -0.3330 -0.2962  0.0069
 7265W        W26119   8.931   5.315   3.731  0.0562 -0.1036 -0.2345
 7266W        W26120   7.603   7.338  12.635  0.0554 -0.0084 -0.1778
 7267W        W26121  17.798  15.044   4.351 -0.2587 -0.1342 -0.0092
 7268W        W26122   7.821   9.223   3.402 -0.3969  0.0613  0.0076
 7269W        W26123  16.317   8.301   2.268  0.2433 -0.0828  0.2423
 7270W        W26124   1.796  13.168  13.469  0.4914 -0.2444  0.0321
 7271W        W26125   4.336   7.897   3.480  0.2784  0.0537  0.2677
 7272W        W26126   1.886   7.066   3.461 -0.1993  0.1670  0.1275
 7273W        W26127  18.656   3.649   3.571  0.3971 -0.3177 -0.0899
 7274W        W26128  15.284  13.516   5.429  0.1357  0.0171 -0.0560
 7275W        W26129   8.410   7.921  14.010  0.1225  0.0150 -0.0778
 7276W        W26130  11.157   1.124   1.051  0.1159 -0.2752 -0.2092
 7277W        W26131  13.002  13.082  13.101 -0.1135  0.3243  0.0818
 7278W        W26132  11.652  10.175   2.575  0.0260 -0.0138  0.0051
 7279W        W26133   8.140   0.605  14.692 -0.1336  0.0236 -0.2742
 7280W        W26134  16.850   8.482   2.238 -0.0677 -0.1836  0.1796
 7281W        W26135   5.415  14.852   2.074 -0.0666 -0.0140 -0.2798
 7282W        W26136  16.245   0.084  12.663  0.0711 -0.2451  0.0658
 7283W        W26137   6.088  16.184  10.958 -0.0642 -0.0650  0.5656
 7284W        W26138  13.351   0.268  11.472  0.0347 -0.2763  0.0627
 7285W        W26139   5.485   9.509  11.739  0.0575 -0.1116 -0.0709
 7286W        W26140  14.706  17.475   2.836 -0.1347  0.2916 -0.3342
 7287W        W26141  15.798  13.294  12.421  0.0451  0.0981 -0.0633
 7288W        W26142   9.006  16.216  14.437  0.2115  0.1595 -0.1723
 7289W        W26143   9.263   8.583  12.149 -0.0692 -0.0401  0.0167
 7290W        W26144  18.131   5.537   1.450  0.1154  0.2724  0.0856
 7291W        W26145   8.024  11.928  14.935 -0.0114 -0.0821 -0.0731
 7292W        W26146   1.122   4.711  13.084  0.0919  0.2136 -0.0725
 7293W        W26147  15.496   0.295   1.204 -0.2210 -0.1004 -0.0015
 7294W        W26148  18.366  12.692   4.115 -0.0818 -0.1100  0.1587
 7295W        W26149   6.645  18.255  13.446 -0.0274  0.1710  0.1372
 7296W        W26150   8.412   0.954   9.776 -0.0054 -0.2381  0.0064
 7297W        W26151   3.560  18.218   4.486 -0.1366 -0.1709 -0.0386
 7298W        W26152   0.036   0.960  13.532  0.2252 -0.0692  0.0892
 7299W        W26153  15.072  14.773  10.935  0.1701 -0.3200 -0.2810
 7300W        W26154  15.154   7.151   2.418  0.0255 -0.1059  0.1439
 7301W        W26155   9.401   8.677  12.623  0.0881  0.1039  0.1679
 7302W        W26156   3.935   1.802  14.957  0.0614  0.1164 -0.1133
 7303W        W26157  13.502   5.625  13.692 -0.1649  0.0425 -0.1354
 7304W        W26158   3.350  12.369   2.383 -0.0386  0.0893 -0.0916
 7305W        W26159   4.790   2.413  11.114  0.1428  0.0027 -0.0296
 7306W        W26160   4.912   7.212   2.488  0.2061 -0.3267 -0.2075
 7307W        W26161   6.129  10.001   3.567  0.2929  0.2292 -0.0297
 7308W        W26162  15.338  17.464   1.208 -0.2068 -0.0529  0.1515
 7309W        W26163   1.161  11.827  11.804 -0.0769  0.3115 -0.0577
 7310W        W26164   8.908   2.585  13.527 -0.2068  0.3008 -0.2854
 7311W        W26165   6.009   7.316  11.037 -0.1211  0.2626  0.3306
 7312W        W26166   8.860   2.921  13.883  0.1805  0.0723 -0.0377
 7313W        W26167   1.291  10.122  11.748  0.1061 -0.1808  0.0786
 7314W        W26168   5.922  14.781  11.148  0.2677 -0.1836 -0.0271
 7315W        W26169   0.852  16.736   1.541  0.1842 -0.1091 -0.0110
 7316W        W26170   2.266   3.058  12.904  0.0042  0.0872 -0.1356
 7317W        W26171  18.585   5.811   3.471  0.1004  0.0709  0.2888
 7318W        W26172   5.824   2.314   1.023  0.0030 -0.3583  0.1784
 7319W        W26173  11.285  17.000   1.312 -0.2743 -0.0499 -0.0520
 7320W        W26174   5.139  12.746   2.582 -0.1714 -0.2592 -0.3041
 7321W        W26175   7.511  14.703   4.007  0.1981 -0.1952 -0.2370
 7322W        W26176  14.250   4.071   2.420  0.1929  0.0820  0.3219
 7323W        W26177   6.549   5.579   3.881 -0.1745  0.2814 -0.1713
 7324W        W26178   3.172  17.989  14.437 -0.3247 -0.4827 -0.0119
 7325W        W26179  18.344   0.889   4.455  0.3067 -0.1744  0.1742
 7326W        W26180   2.061   3.986   3.475  0.2799 -0.0302 -0.0142
 7327W        W26181   9.473  11.660   2.946 -0.1169  0.1361 -0.0985
 7328W        W26182   6.556   2.991   4.624 -0.2189 -0.0479  0.1906
 7329W        W26183   2.052  12.969   1.746 -0.1317 -0.2276 -0.2211
 7330W        W26184  14.340  13.063  11.197  0.2022 -0.0162  0.0092
 7331W        W26185  13.301   5.171  13.524  0.1260 -0.0250 -0.5059
 7332W        W26186   6.450   0.293  11.372 -0.0914  0.1165  0.0015
 7333W        W26187   5.232   2.982  13.614 -0.2428 -0.1725  0.1728
 7334W        W26188   3.637   1.909   0.897 -0.0406  0.0196  0.0995
 7335W        W26189  14.846  18.544   2.893  0.1912 -0.2354 -0.1839
 7336W        W26190   8.320   6.548   0.627 -0.4341  0.2842  0.1613
 7337W        W26191  12.200  10.619   0.789 -0.0761 -0.0401  0.0595
 7338W        W26192  13.499   2.639   0.427  0.0782  0.0763 -0.1284
 7339W        W26193   8.983  17.388  13.945 -0.1163  0.3264 -0.0595
 7340W        W26194   4.295  18.116   3.309 -0.1495 -0.0789 -0.0306
 7341W        W26195   6.036   3.317   0.178  0.0249 -0.0836  0.0838
 7342W        W26196   2.649  12.989   1.136 -0.0157  0.2056  0.0692
 7343W        W26197   1.461   7.251  13.864  0.1352 -0.0345  0.0844
 7344W        W26198   5.329   3.833  14.778 -0.0476  0.0116 -0.0813
 7345W        W26199  12.324   3.910   0.696  0.2042  0.3449 -0.0396
 7346W        W26200   9.054   6.071   0.984  0.1047  0.0915 -0.1451
 7347W        W26201  10.978  12.212  14.441 -0.0270  0.1476 -0.2175
 7348W        W26202   5.292  14.104   3.527 -0.0416 -0.1139  0.1971
 7349W        W26203  12.219   9.437  15.125  0.0947  0.1095  0.0091
 7350W        W26204   9.257  14.565   4.658  0.1914 -0.1577  0.2243
 7351W        W26205   2.630  14.258   2.177  0.1074  0.2196  0.2170
 7352W        W26206   8.729   2.896  11.508 -0.1025 -0.0303  0.0404
 7353W        W26207   5.800  16.160  13.584 -0.0346 -0.1130  0.0962
 7354W        W26208  13.331  18.587   1.911  0.3245 -0.0631 -0.2865
 7355W        W26209  14.266  16.603  14.190  0.1808  0.1026  0.2906
 7356W        W26210  10.554   8.721  10.854  0.2733  0.0075  0.1826
 7357W        W26211   7.020   6.271   2.204  0.1437 -0.1340  0.0691
 7358W        W26212   7.420   6.973  10.940  0.4279  0.0828  0.1296
 7359W        W26213  11.557   8.390   1.409 -0.2738  0.1220 -0.0829
 7360W        W26214  13.143   1.278  11.269  0.2975 -0.1407 -0.1331
 7361W        W26215  18.638   3.908   1.612 -0.2114  0.0652 -0.0985
 7362W        W26216  14.921  15.528   2.286 -0.2254  0.0018 -0.2023
 7363W        W26217   0.144   0.696  13.960  0.0750  0.3392 -0.2351
 7364W        W26218   6.224  13.891  12.145  0.0925  0.2607  0.0676
 7365W        W26219   0.025  16.969  12.650 -0.1369  0.3982 -0.2073
 7366W        W26220  15.059  18.805  15.040  0.2460 -0.1069 -0.0179
 7367W        W26221  12.618   4.715  12.500 -0.0106  0.1515 -0.0289
 7368W        W26222   0.995   0.194  14.037 -0.0827 -0.0179  0.2565
 7369W        W26223   9.716   0.926   1.351 -0.0378 -0.0623 -0.2865
 7370W        W26224   4.951   1.192  13.285 -0.0191 -0.2414  0.0670
 7371W        W26225  10.130   1.054   4.271  0.2309  0.0599  0.0240
 7372W        W26226  10.091  10.630   2.499 -0.0428  0.2768 -0.2162
 7373W        W26227   1.528  16.672  13.125 -0.1427 -0.1256  0.0930
 7374W        W26228   3.477  11.531   0.283 -0.0872  0.0594 -0.0668
 7375W        W26229  14.488   3.489   5.057 -0.0582  0.0743  0.1914
 7376W        W26230  14.042   6.495   3.256  0.1543 -0.0770  0.0966
 7377W        W26231  18.322   7.921  13.103 -0.4075 -0.0090 -0.0093
 7378W        W26232   7.747  14.034  12.260 -0.1329 -0.2962  0.1907
 7379W        W26233   2.745  10.994   3.627 -0.1396  0.1125 -0.0659
 7380W        W26234   5.521   4.766  14.739  0.2936  0.0426 -0.1258
 7381W        W26235   3.313   9.836  12.728 -0.0973  0.1535  0.1013
 7382W        W26236  13.319   2.443   3.509 -0.2452  0.2079  0.1492
 7383W        W26237   3.453  18.149  11.620  0.2433  0.0998 -0.0061
 7384W        W26238   9.061   5.287  12.930 -0.1368 -0.1725 -0.0463
 7385W        W26239  12.076   1.065  15.028  0.5171  0.0235 -0.2314
 7386W        W26240   7.843   8.969   1.879  0.2893 -0.1862 -0.0500
 7387W        W26241  16.594   3.759  15.121  0.1449 -0.2069  0.2120
 7388W        W26242  12.572   3.283   3.025 -0.0575 -0.1684 -0.0404
 7389W        W26243   8.013  12.031  13.547 -0.0731  0.1857  0.3988
 7390W        W26244  17.552   3.395  14.646  0.2240  0.0384 -0.0059
 7391W        W26245   5.756   4.607   3.723 -0.1007  0.0359 -0.0634
 7392W        W26246   3.893   7.734   2.687  0.1583 -0.0940 -0.0370
 7393W        W26247  18.302   3.714  13.035  0.1116  0.2356  0.1626
 7394W        W26248   3.220  18.066   0.095  0.1641 -0.0385 -0.0578
 7395W        W26249   1.746   0.157   0.872  0.0279  0.0927 -0.0271
 7396W        W26250   4.278   1.567  14.083  0.0862 -0.3026 -0.2626
 7397W        W26251  11.888  12.220   2.322 -0.0588  0.0891 -0.2913
 7398W        W26252  15.381   3.679  11.387 -0.1355 -0.0461 -0.1578
 7399W        W26253  17.606   7.015  14.862  0.0623 -0.0151  0.1666
 7400W        W26254   3.998  16.586  12.975  0.0638  0.0506  0.0646
 7401W        W26255   2.345   8.337   0.901 -0.1283 -0.0413 -0.2816
 7402W        W26256   7.328   0.136   1.197  0.0466 -0.1461  0.0384
 7403W        W26257  13.893  14.718   3.252  0.0460  0.1932 -0.1995
 7404W        W26258  17.799  16.852   1.111 -0.2273  0.0891  0.2003
 7405W        W26259   8.489   1.540   3.520  0.0691 -0.0952  0.0017
 7406W        W26260   5.668  16.930  11.011 -0.1088 -0.3116  0.1770
 7407W        W26261  12.855   5.699  11.052  0.2447  0.0494  0.0093
 7408W        W26262   0.362   0.367  10.942 -0.0515 -0.3059 -0.1447
 7409W        W26263  18.300   5.067   1.403  0.2926  0.2853  0.1225
 7410W        W26264   7.560  11.642   3.100  0.0107 -0.0929  0.0481
 7411W        W26265   3.500  13.388  13.138  0.1066  0.1177  0.0957
 7412W        W26266   1.048   5.037  10.663 -0.3166 -0.4458  0.3378
 7413W        W26267   1.593   9.491   0.710 -0.2506 -0.5653 -0.0312
 7414W        W26268  11.221  14.812   1.242  0.2336 -0.1133 -0.2377
 7415W        W26269   5.922  11.788  14.566 -0.0042 -0.0688  0.3424
 7416W        W26270   3.689   2.823   3.277 -0.1099 -0.0362 -0.1294
 7417W        W26271  14.773  12.604   3.354 -0.1662 -0.3003 -0.0090
 7418W        W26272  10.156   1.115   1.646  0.0985  0.0457 -0.0966
 7419W        W26273  11.578   1.543   2.334  0.3515  0.3284  0.0236
 7420W        W26274  11.861   1.404   1.925 -0.2505 -0.2737  0.0469
 7421W        W26275  16.973  14.562   4.475 -0.0389  0.4358 -0.2237
 7422W        W26276  16.268   3.414   0.601  0.1309  0.0840 -0.0948
 7423W        W26277   2.364  10.966  10.874 -0.1448 -0.0602 -0.1116
 7424W        W26278  10.159   0.579  11.128 -0.0430 -0.0936 -0.1346
 7425W        W26279   6.935  11.215   1.339  0.3174  0.0066  0.2259
 7426W        W26280  10.638  14.299   3.025 -0.1205  0.1839  0.0206
 7427W        W26281  10.249  14.794  11.762 -0.1346 -0.0289 -0.0181
 7428W        W26282   2.052   5.850   4.141  0.0493 -0.2426 -0.1186
 7429W        W26283   1.649  11.767   0.168  0.1125 -0.0094 -0.3157
 7430W        W26284   2.022  13.374  14.132 -0.0545 -0.0223  0.1292
 7431W        W26285   9.811  13.652   1.954 -0.0130  0.0161  0.1411
 7432W        W26286   1.627  13.956   9.419  0.0186  0.2128  0.0058
 7433W        W26287   0.426   7.298   3.224  0.3280  0.0823 -0.1908
 7434W        W26288   8.774   4.000   3.415 -0.2903 -0.1603  0.1278
 7435W        W26289  13.562  12.908  13.264  0.2326 -0.1781  0.2008
 7436W        W26290   8.893  14.882   4.166 -0.0773 -0.0546  0.0499
 7437W        W26291   0.742  17.222  10.686  0.0781 -0.0137  0.0885
 7438W        W26292   4.159  10.983  12.854 -0.0065 -0.1463 -0.3140
 7439W        W26293   3.526  16.298   2.715  0.0484 -0.2808 -0.3449
 7440W        W26294   7.238  12.484  12.677 -0.0937  0.1477 -0.0528
 7441W        W26295  11.420  12.816   2.878 -0.2495 -0.1057 -0.1398
 7442W        W26296  18.718   7.141  10.670 -0.1822  0.0723 -0.0177
 7443W        W26297   9.235   0.219  14.073 -0.0345 -0.1397 -0.0370
 7444W        W26298  15.514  13.516   2.687 -0.2554  0.2122  0.3588
 7445W        W26299  15.178   9.503  12.032  0.1377 -0.0712  0.1590
 7446W        W26300   7.412   7.916  13.434  0.0553  0.0284 -0.0513
 7447W        W26301   4.621   7.974  10.936  0.1343 -0.1537  0.5827
 7448W        W26302  12.175  15.388  11.313 -0.0506  0.1315  0.1675
 7449W        W26303   3.036  12.536   1.975  0.1214  0.0017  0.0170
 7450W        W26304  10.370  17.038   4.392 -0.1064  0.0731  0.0796
 7451W        W26305  11.869  17.099   3.757  0.0427 -0.2670 -0.3029
 7452W        W26306  14.846   9.554   0.497 -0.0621  0.0081  0.0959
 7453W        W26307  12.480   9.806  14.286  0.0844  0.1686  0.2017
 7454W        W26308   0.934   0.482  14.591  0.1008 -0.2032  0.2900
 7455W        W26309  11.061  15.414   0.086  0.0679 -0.0497  0.2207
 7456W        W26310   2.358  10.439   0.253  0.2849 -0.2071 -0.0234
 7457W        W26311   6.983   4.145  13.333  0.1181  0.1702 -0.1395
 7458W        W26312   0.782   7.885  14.091 -0.2000 -0.0900  0.0361
 7459W        W26313   4.038   4.362  12.082 -0.4280  0.1895 -0.0043
 7460W        W26314   9.938  12.630   3.015 -0.2386  0.2072 -0.0335
 7461W        W26315   8.999   2.603   2.893  0.0472  0.0249 -0.0775
 7462W        W26316   6.700   4.483  10.788  0.0478 -0.1534 -0.0965
 7463W        W26317   3.774   2.672   1.395  0.2506  0.2505  0.1001
 7464W        W26318  16.861  10.143   4.362  0.0357 -0.1689  0.2002
 7465W        W26319   0.993   5.611  13.948 -0.0459  0.1469 -0.0539
 7466W        W26320  11.343  12.435   2.510 -0.0289  0.1341 -0.0966
 7467W        W26321   8.353  17.264   0.123  0.0080 -0.0830 -0.0299
 7468W        W26322  10.327   6.504  11.054  0.4358 -0.1959  0.1835
 7469W        W26323   1.604   6.340   1.374  0.1159 -0.1332  0.2100
 7470W        W26324   6.621   6.798   4.345  0.0943  0.2371  0.1930
 7471W        W26325  18.814   6.272  11.156  0.3680 -0.0482 -0.1867
 7472W        W26326   7.775   8.052   3.029  0.4615  0.0605  0.2356
 7473W        W26327   7.662  10.790   3.686 -0.0054 -0.2364  0.0759
 7474W        W26328   6.263  18.855  14.991  0.3383  0.0807 -0.2993
 7475W        W26329  11.091  11.300  11.534 -0.2649  0.1896 -0.0574
 7476W        W26330  14.376   3.973  12.498  0.2760  0.1564  0.0181
 7477W        W26331   2.591  11.442   3.386  0.0263  0.1624  0.2081
 7478W        W26332   0.750   4.948  14.298  0.2258  0.1189  0.1097
 7479W        W26333  12.872   7.371  14.628  0.1399  0.1932  0.2577
 7480W        W26334  16.841   1.219  11.196 -0.2324 -0.3532  0.0094
 7481W        W26335  17.146   7.658   3.795  0.1690 -0.2303  0.0813
 7482W        W26336   7.551   7.966   0.235 -0.1984 -0.0033 -0.3009
 7483W        W26337  10.560  17.318  12.994  0.1343 -0.1535 -0.1829
 7484W        W26338  17.935  13.567  12.313 -0.1509 -0.0984 -0.1386
 7485W        W26339  11.270   0.951  12.384 -0.0931 -0.0464 -0.1374
 7486W        W26340   9.176  16.301   1.996  0.0606  0.2428  0.2462
 7487W        W26341   5.170   8.374  12.906 -0.3001  0.0139 -0.0807
 7488W        W26342  15.067   1.088  14.363 -0.0717 -0.3321 -0.1234
 7489W        W26343  10.840   8.829   0.504  0.0254  0.0441  0.0176
 7490W        W26344   5.229   2.304   4.273 -0.5586  0.1835 -0.1441
 7491W        W26345   8.677  16.280  10.644 -0.1240 -0.0217  0.2505
 7492W        W26346   5.963   4.225  12.137  0.0054  0.2198 -0.2649
 7493W        W26347  10.982   1.605   3.723 -0.1893  0.2569  0.3407
 7494W        W26348   9.189  15.554   3.405 -0.2095 -0.3256 -0.0423
 7495W        W26349  12.035   3.591  10.900  0.0467  0.2414  0.2446
 7496W        W26350   3.534   6.002  11.710  0.0886  0.2186  0.2500
 7497W        W26351   1.003  16.976  13.314 -0.1024  0.0078 -0.1788
 7498W        W26352  15.055   9.324   3.755 -0.0392 -0.0549  0.2942
 7499W        W26353   0.712   1.879   0.434 -0.0188 -0.1539 -0.0103
 7500W        W26354  12.510  14.718  12.464  0.2018  0.0108 -0.2674
 7501W        W26355  18.052  15.490   0.974  0.0714  0.2381  0.1967
 7502W        W26356  17.668  18.629  12.594  0.1565 -0.0511  0.0193
 7503W        W26357  13.199   8.145  14.733  0.0342 -0.1193 -0.1781
 7504W        W26358   8.653   8.017  10.208  0.0914  0.1448 -0.2711
 7505W        W26359   5.732  12.781  11.954 -0.2179  0.1742 -0.0090
 7506W        W26360   6.431  13.763  12.574 -0.0675 -0.0522 -0.1975
 7507W        W26361   3.828  14.959   0.568  0.0245 -0.1007  0.1685
 7508W        W26362  13.673  15.122   3.557 -0.0466 -0.1767  0.2662
 7509W        W26363   2.911   4.035   0.278  0.1302 -0.1003 -0.0819
 7510W        W26364   4.971   8.904  13.023  0.5353 -0.1161 -0.1661
 7511W        W26365  13.768   5.316   1.165 -0.2521 -0.2535 -0.1070
 7512W        W26366   8.358   3.675  13.625  0.0071 -0.1659 -0.2497
 7513W        W26367   5.154   6.719  12.702 -0.2451 -0.2388  0.0130
 7514W        W26368   5.184  13.865   2.863  0.0191  0.4266  0.1784
 7515W        W26369   4.945   8.403  10.953  0.2221  0.1621 -0.2770
 7516W        W26370  15.598   6.167   0.873  0.3626  0.2434 -0.1080
 7517W        W26371   4.275  15.530   1.221  0.1222  0.2058 -0.1046
 7518W        W26372  13.045   5.806   1.635 -0.2510 -0.0057  0.0705
 7519W        W26373  13.151  10.418   2.973 -0.1171  0.0682  0.2136
 7520W        W26374   3.483  10.139  11.771 -0.3307 -0.1000 -0.0429
 7521W        W26375  12.952  11.845  14.520 -0.0828 -0.0028 -0.1570
 7522W        W26376   0.146  15.292  11.866 -0.0113 -0.0857 -0.2988
 7523W        W26377  10.661  13.884   0.291 -0.2502 -0.2992 -0.2295
 7524W        W26378  12.722   2.794  13.340  0.2524 -0.3268 -0.1454
 7525W        W26379   9.867  16.482  13.188  0.2653 -0.0489 -0.3894
 7526W        W26380  18.817  17.563  11.375  0.2781  0.1102  0.1650
 7527W        W26381  11.071   1.989  12.058  0.1361 -0.2640 -0.1043
 7528W        W26382   5.835   5.703  14.591  0.2655  0.1464 -0.0223
 7529W        W26383  16.668   1.386   3.523 -0.3881  0.1638  0.2000
 7530W        W26384  14.930  10.350   3.268  0.4526 -0.3214  0.1212
 7531W        W26385   0.316  13.360  12.533  0.3681 -0.3587 -0.0676
 7532W        W26386  16.192  18.792  11.395  0.1519  0.0413 -0.2245
 7533W        W26387   6.581  16.212   0.423 -0.2903  0.1422 -0.2747
 7534W        W26388  17.356  18.624  11.087 -0.0397  0.2095  0.2832
 7535W        W26389   7.813   2.753   1.896  0.0216  0.0912 -0.0919
 7536W        W26390  12.199  17.315   1.179 -0.1551 -0.1807 -0.0343
 7537W        W26391   2.637  17.930  11.462  0.2781  0.1609  0.2114
 7538W        W26392   8.829   1.274  11.080 -0.1414  0.0504 -0.0752
 7539W        W26393   2.386  12.406  10.818 -0.3755  0.2482 -0.1333
 7540W        W26394   5.267   1.142  12.409  0.3423 -0.0620 -0.4143
 7541W        W26395  15.531  16.118   3.323 -0.1269  0.1620 -0.0946
 7542W        W26396   0.476   9.315  10.798  0.1165 -0.1072 -0.0384
 7543W        W26397   0.367   6.681   0.076 -0.1565 -0.2579  0.1104
 7544W        W26398   2.581  11.241  13.818  0.0824  0.2403 -0.4782
 7545W        W26399   1.194   1.241  14.933 -0.0188  0.3322 -0.1491
 7546W        W26400   3.411  10.299  11.257  0.1244 -0.0491 -0.0933
 7547W        W26401  17.681   5.032  13.893 -0.0305 -0.1030  0.1716
 7548W        W26402   8.260   8.165   3.709  0.0921 -0.1629  0.0889
 7549W        W26403  18.316   9.654  10.621 -0.0279  0.3259  0.1165
 7550W        W26404   7.761  15.715  14.506 -0.1497  0.1299 -0.1958
 7551W        W26405   1.747  13.106   3.787  0.0575  0.0294  0.0492
 7552W        W26406   1.362  16.460   0.174  0.1546 -0.0093 -0.2540
 7553W        W26407   6.437   6.152   2.842  0.0804 -0.1117 -0.0910
 7554W        W26408   7.437  18.070   1.324 -0.0140  0.2904 -0.1684
 7555W        W26409  15.836   3.116   2.421 -0.0565  0.0252 -0.1867
 7556W        W26410  10.667  18.696   2.220 -0.1162 -0.0523  0.0035
 7557W        W26411   9.152   2.765  10.920 -0.2304 -0.0916 -0.1121
 7558W        W26412  15.319   9.400   0.869 -0.4054 -0.2149  0.1606
 7559W        W26413  16.847  16.446   2.879  0.1167 -0.0983 -0.1480
 7560W        W26414  13.376   2.216   2.575 -0.2627 -0.1457 -0.0318
 7561W        W26415   3.504  13.629   1.156  0.3226 -0.1960 -0.1788
 7562W        W26416   4.619   7.939  11.882 -0.0333  0.0817 -0.0733
 7563W        W26417  15.544  16.404   1.931  0.0283 -0.1038 -0.4981
 7564W        W26418   7.161  15.968  11.213  0.0652 -0.1602  0.0632
 7565W        W26419   5.141   8.234   3.099 -0.0588  0.2733 -0.0795
 7566W        W26420  16.043  11.086  14.639  0.2042 -0.0534  0.0609
 7567W        W26421   1.455  14.618   2.596  0.6600  0.2128  0.1063
 7568W        W26422   4.052  13.851   1.238 -0.0386  0.3666 -0.0930
 7569W        W26423  12.596  18.166   1.251  0.0091 -0.0213 -0.0930
 7570W        W26424  18.786  18.214  13.771  0.1252  0.1949 -0.1597
 7571W        W26425  17.973   6.537   1.567  0.0639 -0.2149  0.0219
 7572W        W26426   3.503   3.672   2.205 -0.0926 -0.4108 -0.2330
 7573W        W26427  11.661   0.612   2.577 -0.1230 -0.2615 -0.3511
 7574W        W26428  15.494  15.264   2.918  0.5500 -0.4132  0.0087
 7575W        W26429   1.551  10.753   2.119 -0.1608 -0.1705 -0.0628
 7576W        W26430  18.286   6.115  11.234  0.0202  0.2564 -0.0697
 7577W        W26431   3.643   7.553   1.658 -0.2023  0.1929 -0.1650
 7578W        W26432  11.407   1.827   4.594 -0.1717  0.1199 -0.0795
 7579W        W26433   5.677  17.344  11.710 -0.0229  0.4250 -0.2895
 7580W        W26434  13.319   0.983   1.009 -0.4292 -0.0590  0.0428
 7581W        W26435   7.040  10.039   1.323  0.1262 -0.0061 -0.1055
 7582W        W26436  10.815  18.096  13.294  0.1427  0.1339 -0.1084
 7583W        W26437  13.272  15.915  10.610  0.0475 -0.0020  0.1028
 7584W        W26438  17.927  11.702   0.180 -0.0499  0.1197  0.2004
 7585W        W26439  15.276   3.627   1.884  0.0707 -0.1082 -0.0547
 7586W        W26440   2.380   2.810   2.736  0.1658  0.0529  0.0148
 7587W        W26441  11.376   9.449  11.692 -0.0224  0.1051 -0.0472
 7588W        W26442  18.668   4.647   2.944 -0.0734 -0.4447  0.0756
 7589W        W26443   6.880  14.703   1.224  0.0465 -0.3870  0.0363
 7590W        W26444   1.887  15.140  12.335 -0.0829  0.2076 -0.0896
 7591W        W26445  13.112  10.721  10.450 -0.1984  0.0349  0.1935
 7592W        W26446   4.852   7.689   2.877 -0.2273 -0.0134 -0.1236
 7593W        W26447   4.028  13.412   4.175 -0.1205  0.0471 -0.1410
 7594W        W26448  12.299  16.812   1.118  0.1269 -0.0448  0.0642
 7595W        W26449   4.309   9.713  12.562 -0.2166 -0.0052 -0.3419
 7596W        W26450  16.237  10.809   1.140  0.0258  0.2123  0.2750
 7597W        W26451  11.768  17.183  12.096 -0.0303  0.0864  0.1338
 7598W        W26452  10.809  17.438   4.387 -0.0359  0.3042  0.0359
 7599W        W26453  14.368  15.207   2.131 -0.0132 -0.3384 -0.0281
 7600W        W26454  15.976   2.535   1.157  0.1602  0.0850  0.3096
 7601W        W26455  10.897  16.137   1.806 -0.0664  0.0121  0.2112
 7602W        W26456  10.529   3.134   0.185  0.0285 -0.0536 -0.4179
 7603W        W26457   2.093  17.428   4.947  0.0804  0.2222  0.1475
 7604W        W26458  11.398   4.390   1.934  0.2920 -0.3403 -0.2757
 7605W        W26459   5.673   1.854  11.777 -0.1823 -0.1183  0.1457
 7606W        W26460   9.153  15.929  10.779 -0.0437 -0.1207  0.0206
 7607W        W26461  14.384  17.800  12.434 -0.0253 -0.0873  0.1974
 7608W        W26462  15.362  18.290  12.869  0.3995 -0.0355 -0.1572
 7609W        W26463   8.462   1.415  14.853  0.2739  0.0760 -0.3261
 7610W        W26464  11.274  13.172   5.404  0.1826  0.1324 -0.1184
 7611W        W26465  16.737   7.946   3.593 -0.0915 -0.0567 -0.0025
 7612W        W26466   4.732   2.461   2.359 -0.1574 -0.0035  0.1304
 7613W        W26467  17.989   8.842  14.901 -0.2005  0.2317  0.1433
 7614W        W26468   9.722   0.739   0.512 -0.1970  0.1393  0.0189
 7615W        W26469   7.872  16.146   1.658 -0.1188 -0.3193 -0.0379
 7616W        W26470   4.079  16.109  11.013  0.1182  0.1382  0.1138
 7617W        W26471  17.737  15.508   0.632 -0.0034 -0.0547  0.2476
 7618W        W26472   0.517  17.218  13.882 -0.0657  0.0006  0.1777
 7619W        W26473   4.344  17.139   3.732  0.1268 -0.0118  0.0024
 7620W        W26474   9.471   3.264   2.454  0.0565  0.0231  0.2720
 7621W        W26475   5.051  17.905  14.636  0.0005  0.0372 -0.2452
 7622W        W26476   3.245   1.866  12.761  0.0841  0.2394 -0.0340
 7623W        W26477   1.488   0.080  14.014  0.3701  0.1851  0.3147
 7624W        W26478   5.838   2.731   2.033  0.3243 -0.0313 -0.2891
 7625W        W26479   8.573  11.037  11.980  0.0178 -0.0163 -0.2635
 7626W        W26480  14.986  18.615  11.930  0.2205 -0.2386  0.0063
 7627W        W26481   2.007  10.128  11.212  0.0260  0.0691 -0.0489
 7628W        W26482  16.478  11.532   3.906  0.1060  0.3851  0.1129
 7629W        W26483   1.495  13.884  11.923  0.1128 -0.0750 -0.1305
 7630W        W26484  12.202  18.367  10.996 -0.2670  0.1827  0.0403
 7631W        W26485  13.643   1.355  10.645 -0.2532 -0.2338 -0.0554
 7632W        W26486   9.426   6.971   2.424  0.0944  0.2665  0.1551
 7633W        W26487  15.825   4.051   1.191 -0.0554 -0.6047 -0.3364
 7634W        W26488  17.191  18.818   0.984  0.2038 -0.0499  0.3726
 7635W        W26489  16.683   1.819   2.954 -0.0057  0.2352 -0.0453
 7636W        W26490  12.814   4.123   1.063 -0.2387 -0.2464 -0.1493
 7637W        W26491  12.147   6.466   4.033  0.1222 -0.3046  0.1723
 7638W        W26492   8.471   7.569  11.157  0.0049  0.0021  0.0080
 7639W        W26493   4.900   8.059   5.175 -0.1793 -0.1884  0.2413
 7640W        W26494   2.530   8.150   3.974  0.1311  0.4392 -0.0922
 7641W        W26495   1.316   6.199  11.669 -0.2340  0.1798 -0.1835
 7642W        W26496  16.129   5.621  13.259  0.3869  0.1925 -0.0955
 7643W        W26497   4.988  10.267   2.746 -0.2507  0.1934 -0.0018
 7644W        W26498   7.117  16.171   2.822  0.0362  0.0614 -0.2060
 7645W        W26499   1.086  14.171   0.424  0.2968 -0.1853 -0.1040
 7646W        W26500   5.008  16.486  14.680  0.2517  0.1844 -0.0268
 7647W        W26501   1.818   7.050   0.980  0.0421 -0.1558 -0.0427
 7648W        W26502  13.852  10.520   1.873 -0.0239  0.0700 -0.2464
 7649W        W26503   9.831   5.153   1.194 -0.2643 -0.2226 -0.1486
 7650W        W26504   3.609  15.783  11.783  0.2828 -0.3446  0.1077
 7651W        W26505   2.893   0.245   0.202  0.1395 -0.1522 -0.0476
 7652W        W26506   8.293   8.209  11.089 -0.1928  0.0118 -0.4097
 7653W        W26507  13.484  14.358   3.027  0.0397 -0.3158  0.1323
 7654W        W26508  13.920   1.978  11.215 -0.1735 -0.1714  0.0050
 7655W        W26509  15.421   8.382  13.712 -0.1124  0.1794  0.0449
 7656W        W26510  10.943  11.144  11.050  0.0283 -0.0056 -0.1085
 7657W        W26511  14.817  16.000   2.668  0.1239 -0.0918  0.2138
 7658W        W26512   2.045   7.770  14.744 -0.1906  0.0147 -0.0579
 7659W        W26513   7.362  18.829   4.315  0.2037 -0.0790 -0.2238
 7660W        W26514  14.254  13.644  13.298  0.1619 -0.1131  0.0569
 7661W        W26515  13.187   4.655   4.835  0.0843  0.0392  0.0215
 7662W        W26516  10.217  16.851  12.122  0.1961 -0.1633  0.0341
 7663W        W26517   2.048   5.466  10.912 -0.0284 -0.0929 -0.0935
 7664W        W26518  13.838   0.138  11.107  0.1024  0.0902 -0.0644
 7665W        W26519  17.477   0.198  11.465  0.0111  0.1276  0.0950
 7666W        W26520  13.364   9.793   3.873  0.0647  0.0045 -0.1493
 7667W        W26521   2.856  15.765   3.099  0.0457 -0.4508 -0.1194
 7668W        W26522   6.995   3.973   2.064  0.1677  0.1937 -0.0564
 7669W        W26523  15.194  13.249  13.573 -0.1540 -0.1500  0.0117
 7670W        W26524   0.913   3.463  14.290  0.0280 -0.2126  0.0501
 7671W        W26525  14.874  10.805   3.523 -0.0018 -0.0859 -0.2376
 7672W        W26526  14.455  10.510  15.001 -0.2558 -0.0102  0.2883
 7673W        W26527   6.171   5.188  12.884  0.1780  0.0847  0.1142
 7674W        W26528  16.342   4.850  14.416 -0.2064  0.1267 -0.3342
 7675W        W26529  12.281   2.344  11.964  0.1168 -0.1464  0.0703
 7676W        W26530   6.922  12.281   0.086 -0.3418 -0.0227 -0.1114
 7677W        W26531  11.071  12.160  13.439  0.0670  0.1170 -0.0503
 7678W        W26532   3.701  18.253   3.078  0.0312 -0.0169  0.1397
 7679W        W26533   4.248   3.940  14.586 -0.0362  0.0946  0.1898
 7680W        W26534  17.591   4.479   1.067  0.0091  0.1107  0.0715
 7681W        W26535   1.684  11.309  13.812  0.2712  0.1710 -0.2030
 7682W        W26536  10.911   9.380  11.129 -0.1653  0.1087 -0.0663
 7683W        W26537   4.529   9.242   3.363  0.0523 -0.0521 -0.0606
 7684W        W26538  14.627   5.820  12.133 -0.2336 -0.1458  0.1029
 7685W        W26539  17.729  18.821  13.040 -0.2861 -0.2814  0.2463
 7686W        W26540   0.626   0.556   2.573  0.0407 -0.1393  0.1087
 7687W        W26541   8.928  17.255  12.487  0.0968 -0.4416  0.1376
 7688W        W26542   9.118   0.713   2.450  0.0283  0.3624  0.2965
 7689W        W26543  10.642  13.080   3.694  0.1355  0.0236 -0.0649
 7690W        W26544   7.763  14.356  13.552  0.1840 -0.4822  0.1276
 7691W        W26545   5.320  10.116  13.058  0.0533  0.1009  0.2278
 7692W        W26546  10.794   7.266   1.373 -0.1121  0.2406 -0.2879
 7693W        W26547   7.572  10.592  10.676 -0.1943  0.0540 -0.2200
 7694W        W26548  15.325  16.018  11.258 -0.0256  0.0677  0.1968
 7695W        W26549  13.176  17.052  11.171  0.1711  0.1892 -0.1629
 7696W        W26550   3.032  14.067  11.201 -0.0794 -0.0841  0.1002
 7697W        W26551   9.395  10.417   3.182 -0.3373 -0.2235  0.2541
 7698W        W26552   1.147   7.664  11.254  0.1899 -0.1381  0.0187
 7699W        W26553   3.580   4.360   3.510  0.0650 -0.1070  0.1056
 7700W        W26554   7.317  12.779   3.168  0.0576  0.2373 -0.3871
 7701W        W26555   2.757  14.745  14.260 -0.1230  0.2446  0.0723
 7702W        W26556  17.495  13.759   1.429  0.2376  0.1056 -0.2889
 7703W        W26557   1.232   1.315  12.210 -0.1546  0.2102 -0.1351
 7704W        W26558  17.964   7.904   3.124  0.1653  0.0211 -0.0877
 7705W        W26559   6.526  13.629  14.054 -0.0372 -0.3732 -0.0880
 7706W        W26560   4.081  16.043   1.341  0.0866  0.1125 -0.2150
 7707W        W26561  11.383   8.536   2.321 -0.0715  0.1563 -0.0078
 7708W        W26562  17.377   0.853   3.823  0.0921 -0.0853 -0.0458
 7709W        W26563  18.043   6.705   0.638 -0.2618 -0.0633  0.4329
 7710W        W26564  18.430   4.626   3.919 -0.0198 -0.0479 -0.0356
 7711W        W26565  10.135   4.280   3.630  0.1787 -0.0831  0.1209
 7712W        W26566   9.449   9.071   0.072  0.0823  0.2298  0.1762
 7713W        W26567   5.152   6.335   2.639  0.0770  0.3419 -0.0680
 7714W        W26568  11.177   2.536   4.202 -0.2533  0.1081  0.0391
 7715W        W26569   0.006   1.457  13.662 -0.2932  0.1975 -0.2108
 7716W        W26570   4.092  13.682   3.666  0.0980 -0.3150  0.1822
 7717W        W26571  15.566   0.189   0.718 -0.0822  0.0263 -0.2660
 7718W        W26572  13.479   5.416   4.116  0.1421 -0.0116  0.2930
 7719W        W26573  14.360   3.451   9.847  0.0351 -0.0855  0.3951
 7720W        W26574   5.666  11.515  10.763  0.2396  0.0523  0.2634
 7721W        W26575  13.686   6.486   4.575 -0.0305  0.0943 -0.1968
 7722W        W26576  11.705   7.076  11.418 -0.2532 -0.0894  0.2746
 7723W        W26577   6.457   5.138   4.098  0.1903  0.1927  0.1647
 7724W        W26578   9.751  16.368   2.803 -0.3008 -0.2729 -0.0685
 7725W        W26579   9.330   7.950  14.345  0.4711  0.0394 -0.1010
 7726W        W26580  17.711   1.380  11.864  0.0343  0.2656 -0.4300
 7727W        W26581  13.457  10.208  12.485  0.0066  0.1001 -0.0398
 7728W        W26582  15.391   3.471   2.316 -0.0522  0.0360 -0.2462
 7729W        W26583  16.108  18.164   1.976 -0.3111 -0.1490  0.0342
 7730W        W26584   8.289  12.274   2.879  0.2003 -0.1591  0.0554
 7731W        W26585  13.536   3.184   0.463  0.2238 -0.1916  0.0498
 7732W        W26586  10.173  14.703  10.829  0.0569  0.0820 -0.2493
 7733W        W26587  13.828  16.048   4.818  0.3581 -0.1312  0.2924
 7734W        W26588  13.933  17.881   4.645 -0.1725  0.3273  0.1766
 7735W        W26589   3.548   9.590   1.041 -0.3200 -0.0776 -0.0285
 7736W        W26590   7.855   6.227   2.576  0.2916  0.1616 -0.0745
 7737W        W26591   1.565  10.004   2.617  0.3275  0.0083  0.0430
 7738W        W26592  15.909  14.470   3.729 -0.4048 -0.2515 -0.1788
 7739W        W26593   7.143  13.979   3.797 -0.0132 -0.0406  0.2466
 7740W        W26594   2.183   9.525   0.039 -0.2933  0.2784 -0.1700
 7741W        W26595   4.973  12.103   9.898 -0.0321 -0.2081 -0.1503
 7742W        W26596  17.351   0.400   1.226 -0.2990  0.2663 -0.0264
 7743W        W26597  12.858   9.732   0.768  0.0228 -0.1679 -0.1316
 7744W        W26598  17.627  13.338  11.828  0.0800  0.0623  0.3420
 7745W        W26599  11.945   3.587  15.002 -0.3428 -0.3092  0.0398
 7746W        W26600  13.698   9.499  13.496  0.3586 -0.1698 -0.0975
 7747W        W26601  14.471   4.174   0.075 -0.1255 -0.1355  0.0236
 7748W        W26602  12.284   6.214   1.415 -0.3150  0.0362 -0.1725
 7749W        W26603  17.224  12.746   4.427 -0.1439 -0.0277 -0.1488
 7750W        W26604  11.510  15.851  13.725 -0.2055 -0.1461  0.2203
 7751W        W26605   4.977   5.074  14.483  0.2001  0.3706  0.4729
 7752W        W26606  17.724   0.278   0.933 -0.0316 -0.0785  0.0135
 7753W        W26607  13.858   5.681   4.423  0.1252  0.0672 -0.0473
 7754W        W26608  18.398  11.563   1.132 -0.0789  0.0735 -0.1598
 7755W        W26609   9.017  10.808  14.546  0.0008 -0.1064 -0.0593
 7756W        W26610  11.347   8.133   0.697  0.0946 -0.0715  0.0867
 7757W        W26611   5.337  13.815   1.638 -0.2965 -0.0540 -0.2096
 7758W        W26612   9.004  16.785  13.761  0.2631 -0.1126 -0.1219
 7759W        W26613   4.585   4.326   0.555  0.1606 -0.0185  0.0314
 7760W        W26614   1.794   5.260   0.450  0.1527  0.0239 -0.1466
 7761W        W26615   4.349   7.524   9.592 -0.0293  0.0491  0.1603
 7762W        W26616  16.385   1.799  12.093 -0.0753  0.0914 -0.0652
 7763W        W26617  14.073  10.842  11.400  0.0885  0.0513  0.2116
 7764W        W26618   6.432   4.877  13.624 -0.0955 -0.1242 -0.1755
 7765W        W26619   0.276  12.889  13.447 -0.2335 -0.0189 -0.0377
 7766W        W26620  13.212   1.432  12.767 -0.0132 -0.0509  0.1232
 7767W        W26621   4.652  18.543   3.826 -0.0424  0.0078 -0.0285
 7768W        W26622  10.224  10.800  11.224  0.0679 -0.2719  0.1694
 7769W        W26623   3.430   2.916   1.088  0.1429 -0.1609  0.2275
 7770W        W26624  18.176   4.481  12.404 -0.1590  0.2223 -0.3746
 7771W        W26625  10.189   0.860  14.273  0.0985 -0.3615  0.0072
 7772W        W26626   2.757  17.587  14.479  0.3269  0.0418  0.1826
 7773W        W26627   4.465   8.289   4.204  0.1284 -0.0095 -0.2361
 7774W        W26628   2.512  18.033  13.892 -0.0167 -0.1253 -0.1341
 7775W        W26629   1.527   0.923  12.748 -0.1346 -0.1575 -0.2168
 7776W        W26630   4.814   8.394  13.550 -0.3351 -0.0451  0.1418
 7777W        W26631   1.936   0.867   1.030  0.0457  0.0445 -0.0852
 7778W        W26632   5.046  15.667  12.380 -0.0724 -0.2537  0.0773
 7779W        W26633   3.766  16.519   3.934  0.1060 -0.2418  0.0898
 7780W        W26634  14.733   1.262  11.879  0.1819 -0.2351 -0.0910
 7781W        W26635  12.781   6.715  11.414  0.1332  0.2017 -0.1200
 7782W        W26636  11.447  18.562   2.653  0.0148 -0.0824 -0.0414
 7783W        W26637   2.715  16.462   2.251  0.0893 -0.3536  0.0792
 7784W        W26638  12.353  13.317   2.876  0.3434 -0.0943  0.1031
 7785W        W26639  10.136   7.112   3.625 -0.4081 -0.2864  0.1449
 7786W        W26640   3.386  18.498   1.561  0.2892 -0.0343  0.2382
 7787W        W26641   1.307   8.053  10.401  0.2130 -0.3373  0.3909
 7788W        W26642  18.145   0.278   2.687 -0.1956 -0.2470 -0.0695
 7789W        W26643  15.177   6.443   1.736  0.1496 -0.0172 -0.0390
 7790W        W26644   6.592  15.334  11.656  0.0203 -0.1200  0.6202
 7791W        W26645  16.307  10.702   2.162 -0.1259  0.0442 -0.0942
 7792W        W26646  11.962  14.956  11.764 -0.1679  0.2987 -0.0694
 7793W        W26647   1.606  10.168   2.084 -0.1853 -0.1965  0.0948
 7794W        W26648  11.223  14.019   1.617  0.0206 -0.0754 -0.1368
 7795W        W26649   2.037   8.245  14.105  0.1277 -0.1577 -0.2412
 7796W        W26650  12.684  15.343   0.161  0.1633 -0.2788 -0.1302
 7797W        W26651  17.491   8.847  14.544 -0.1028 -0.1537 -0.3584
 7798W        W26652  14.217  10.966   2.229  0.0703 -0.0854  0.1384
 7799W        W26653  15.696   6.856   3.839  0.1138  0.1510 -0.0185
 7800W        W26654  14.680  12.482  14.703  0.1592 -0.2077  0.3062
 7801W        W26655   1.413   9.966  10.531 -0.0037  0.1809  0.0337
 7802W        W26656  15.200  10.692   2.518 -0.0500  0.0689 -0.1096
 7803W        W26657   5.739  16.487  14.014  0.0810 -0.3679  0.0351
 7804W        W26658   3.908  14.462  11.218 -0.1591  0.0751  0.1244
 7805W        W26659  15.368   1.124  13.986  0.3812  0.1593 -0.0083
 7806W        W26660  17.254   5.932   3.845 -0.2735  0.0667 -0.0654
 7807W        W26661  18.076   2.891   4.067  0.2314  0.4495  0.1408
 7808W        W26662   4.228   8.816   3.644  0.2588  0.2517 -0.3783
 7809W        W26663  14.624  18.650  10.965 -0.3181  0.0951 -0.1490
 7810W        W26664  16.156   4.436   4.419 -0.0032 -0.0956 -0.2843
 7811W        W26665   3.292  14.491  13.028  0.1473 -0.0507 -0.0966
 7812W        W26666   7.570  18.694  13.006 -0.2395  0.2095 -0.5601
 7813W        W26667  12.254  10.516   3.233  0.2165  0.0461  0.2678
 7814W        W26668   2.158   6.168  11.672 -0.0071  0.0638 -0.5873
 7815W        W26669   4.422  10.508   0.728 -0.1887  0.0778 -0.0483
 7816W        W26670   5.649  16.440  11.700 -0.1066 -0.0739  0.1192
 7817W        W26671   6.144   1.026   3.694  0.2005 -0.1196 -0.0201
 7818W        W26672   1.098   3.123   3.983  0.2492 -0.1360  0.0132
 7819W        W26673  17.026   3.813  14.791 -0.2208 -0.0264  0.1560
 7820W        W26674  14.642  16.316  12.473  0.0732 -0.1585  0.0005
 7821W        W26675   0.739   7.986   2.690  0.0269 -0.1756  0.0843
 7822W        W26676  18.349   3.898  13.541 -0.3952  0.1775 -0.2525
 7823W        W26677   3.630   2.672  12.996 -0.3432  0.1690 -0.0319
 7824W        W26678   3.041  14.547  13.829 -0.1692  0.0645  0.1072
 7825W        W26679  10.039  14.562  10.366  0.1668 -0.1776 -0.2407
 7826W        W26680   6.531  15.848  13.884 -0.0046  0.0960 -0.3855
 7827W        W26681  11.231   8.981  13.596  0.2539 -0.1843 -0.1529
 7828W        W26682  11.364   0.049   0.509 -0.2989  0.2774 -0.3547
 7829W        W26683  15.549  10.921  13.868  0.0776 -0.0641  0.1990
 7830W        W26684   0.516   6.865   3.514 -0.2947  0.0170 -0.0974
 7831W        W26685   6.148   9.869  12.824 -0.1057 -0.2997 -0.2659
 7832W        W26686   4.209   8.851  10.866 -0.2439 -0.1122 -0.0874
 7833W        W26687  15.773   0.059  12.363 -0.1912  0.0913 -0.1709
 7834W        W26688  13.784   7.067   2.496 -0.0869 -0.3767 -0.1548
 7835W        W26689  18.021   8.525  13.837  0.0975 -0.2366 -0.0898
 7836W        W26690  11.623  13.558   1.346 -0.1548  0.0387  0.0996
 7837W        W26691  16.133   3.761   3.861  0.1155  0.0747 -0.0803
 7838W        W26692   9.791   4.636   2.917 -0.2079 -0.0416  0.1717
 7839W        W26693   9.048  12.185  14.811  0.3484 -0.0452  0.1043
 7840W        W26694   2.544  14.995   0.312  0.0145  0.4881 -0.0029
 7841W        W26695  17.724   9.977   0.945 -0.2642  0.0982 -0.0285
 7842W        W26696  18.618   7.364   0.706  0.0595  0.0866 -0.1344
 7843W        W26697   3.478   9.100   2.089 -0.4642  0.1005  0.0542
 7844W        W26698   2.723  16.247   3.220  0.1572  0.1811  0.1718
 7845W        W26699  15.582   2.538  11.406  0.4555  0.2729 -0.2226
 7846W        W26700  18.493   2.905   2.254 -0.2065  0.0944 -0.0244
 7847W        W26701  12.036   8.584  13.107 -0.0001 -0.0657  0.0702
 7848W        W26702   2.726  14.816   2.790  0.2807  0.0869  0.1684
 7849W        W26703  12.171   9.962   2.593 -0.2689  0.1790 -0.0156
 7850W        W26704   9.556  17.775   2.462 -0.3451  0.2026  0.3189
 7851W        W26705  17.518  11.582   4.186 -0.0698  0.1609  0.0650
 7852W        W26706   8.751   9.382  14.133  0.0126 -0.1258 -0.0922
 7853W        W26707   8.711   1.702   2.558 -0.1422  0.1305  0.0763
 7854W        W26708  17.462  13.355  13.949 -0.1389  0.0503 -0.2789
 7855W        W26709  14.470  16.729  13.350 -0.1601 -0.1798 -0.1622
 7856W        W26710  10.031  16.723  11.213  0.2173 -0.1280 -0.3286
 7857W        W26711  16.198  16.341   2.617 -0.1872 -0.3732 -0.0645
 7858W        W26712  18.293  17.218   3.310 -0.2342  0.0553  0.2203
 7859W        W26713   0.663  14.612  11.060 -0.3465 -0.1920  0.0707
 7860W        W26714   7.715  13.651  12.532  0.0502  0.1863  0.0157
 7861W        W26715  10.898  17.270  11.572 -0.1399  0.1063  0.0651
 7862W        W26716  13.252  14.251   0.938 -0.0316 -0.0720  0.1428
 7863W        W26717  11.537   6.275   0.243  0.5331 -0.1644 -0.1127
 7864W        W26718   9.460   1.932  14.559 -0.1631  0.2872 -0.1272
 7865W        W26719   9.603   9.886  10.818 -0.4091  0.0615  0.1053
 7866W        W26720   8.435  13.489   4.565 -0.1380 -0.2010 -0.3738
 7867W        W26721   7.912   5.533  12.520  0.4344 -0.0808  0.0545
 7868W        W26722   1.646   6.746  15.077 -0.0264 -0.2954 -0.0370
 7869W        W26723   5.208   5.302  13.317 -0.0565  0.2875 -0.0877
 7870W        W26724   3.753   3.330  13.009  0.4473  0.2032 -0.1166
 7871W        W26725   9.467  10.688   0.741 -0.0531  0.1265  0.0457
 7872W        W26726   2.841   9.851   0.525  0.0397 -0.0447 -0.1505
 7873W        W26727   4.972   8.336   1.840 -0.2231 -0.1272  0.0572
 7874W        W26728  16.142   5.072  15.054  0.1918  0.0669  0.2569
 7875W        W26729  17.064   7.576   4.296 -0.3839 -0.1257 -0.0315
 7876W        W26730  13.813   2.445  11.354  0.1132  0.1705  0.3194
 7877W        W26731   8.158   4.354   1.934  0.2352  0.1018 -0.0148
 7878W        W26732  14.640   9.709   2.848  0.0117 -0.1945 -0.0427
 7879W        W26733   7.886  17.653  10.827 -0.0001 -0.0699 -0.0415
 7880W        W26734   8.555  10.484  10.969 -0.0274 -0.0496  0.1222
 7881W        W26735  12.622   9.409   4.247 -0.2910 -0.1438 -0.1316
 7882W        W26736   4.308  17.489  13.734 -0.3639 -0.0940  0.0546
 7883W        W26737   0.628   3.030   5.480  0.0703 -0.0966  0.2020
 7884W        W26738   2.103  13.771  12.918 -0.1212 -0.2761  0.0056
 7885W        W26739  14.611  12.674  12.550  0.2061  0.1215 -0.0211
 7886W        W26740  16.650  17.260  13.744  0.0846 -0.0094 -0.2572
 7887W        W26741  13.994   3.414  13.256 -0.0299  0.4915 -0.1794
 7888W        W26742  14.741  11.301   3.724  0.3332 -0.1822  0.1967
 7889W        W26743  13.047   5.578   2.627  0.1203 -0.1536  0.1340
 7890W        W26744   5.871   7.967   1.601  0.0468 -0.3183  0.0113
 7891W        W26745   9.239  14.327   0.926  0.1253 -0.2038  0.1012
 7892W        W26746   3.001   2.634  13.222  0.3130 -0.1057 -0.0138
 7893W        W26747   4.979  18.752  14.824  0.0963  0.1117 -0.2422
 7894W        W26748   0.742   2.666  10.994  0.1417 -0.2272  0.0145
 7895W        W26749  14.698   5.929   0.120  0.1593  0.0884 -0.2512
 7896W        W26750  12.246   3.615   3.868  0.2055  0.0002  0.0331
 7897W        W26751  17.500   3.340   4.885 -0.3285 -0.2574  0.3121
 7898W        W26752  10.795  14.139  12.988 -0.1079 -0.1232  0.1741
 7899W        W26753   0.713  10.622  13.584 -0.2168 -0.1936  0.0345
 7900W        W26754   7.362   1.427   1.612 -0.0941  0.2358 -0.1730
 7901W        W26755  14.097   1.748  12.288 -0.0681 -0.0041  0.0649
 7902W        W26756  11.652  12.645  11.977 -0.0983  0.0881  0.0140
 7903W        W26757  15.858   6.926  13.325 -0.4896 -0.2495 -0.1544
 7904W        W26758   3.205   4.337  11.050 -0.0642  0.1277  0.3301
 7905W        W26759  12.801  17.890  12.500  0.2406 -0.0871  0.1645
 7906W        W26760  17.507  12.380   1.474 -0.3410  0.2909 -0.1804
 7907W        W26761   7.490  15.029  11.676 -0.1281  0.2743  0.0873
 7908W        W26762  16.887  12.881  10.842 -0.1965  0.0543 -0.2139
 7909W        W26763   5.489  18.732  14.470 -0.0636 -0.1453 -0.0362
 7910W        W26764  10.301  14.541  12.260 -0.1653  0.1517 -0.1949
 7911W        W26765   5.524  18.648   1.630  0.0973 -0.0241  0.2477
 7912W        W26766   7.657   3.662  14.666  0.3278 -0.3371 -0.2234
 7913W        W26767   1.055   6.513   3.705 -0.2964  0.0023  0.1769
 7914W        W26768  16.529  11.493  12.343 -0.1815  0.0045  0.1854
 7915W        W26769  18.654  10.809  13.999 -0.1251 -0.3799 -0.0190
 7916W        W26770   9.059  17.605   0.509 -0.0196 -0.1253  0.1148
 7917W        W26771  14.188  18.016   9.905  0.1435 -0.1062 -0.0639
 7918W        W26772   8.478  10.761  13.878 -0.1130  0.3964  0.1936
 7919W        W26773   8.499   5.097   5.475  0.0111 -0.1194 -0.0679
 7920W        W26774  16.064  13.858   4.496  0.0969 -0.1674  0.0051
 7921W        W26775  12.461  15.814  11.078 -0.1731  0.1001  0.1630
 7922W        W26776   6.178   0.378  12.716  0.0291 -0.2600  0.0000
 7923W        W26777  11.099   1.986  14.398 -0.0281 -0.1910 -0.2097
 7924W        W26778   6.981  11.086   4.237 -0.1679  0.3121  0.2309
 7925W        W26779   1.232   6.970  13.121 -0.1253 -0.2363 -0.1045
 7926W        W26780   4.819  17.048   0.812  0.3072  0.2654  0.0060
 7927W        W26781   9.732  10.057  14.422  0.1816 -0.0511  0.2470
 7928W        W26782   1.047  16.746  14.954 -0.3513 -0.1245  0.1895
 7929W        W26783   6.116   9.404  14.383 -0.0043 -0.0894  0.0659
 7930W        W26784  14.195   6.899   0.807  0.0127 -0.1537 -0.2721
 7931W        W26785   8.417  17.323  10.900 -0.0541 -0.1746 -0.1372
 7932W        W26786  11.183   8.025   3.141  0.0778 -0.1780 -0.0789
 7933W        W26787   5.215  13.840  11.896 -0.1888  0.1518  0.0151
 7934W        W26788   4.662  13.454  13.085  0.0381  0.2725 -0.0271
 7935W        W26789  18.479   3.198  13.829  0.0096 -0.1532  0.1538
 7936W        W26790  18.371  18.056  12.139 -0.0078  0.2459  0.0768
 7937W        W26791  17.123  11.139   2.152  0.0468 -0.2829  0.0419
 7938W        W26792   0.923  16.138  11.029 -0.0214  0.0763  0.3275
 7939W        W26793  13.141  17.945  13.540  0.2297  0.0618 -0.1241
 7940W        W26794  17.280   0.104  13.306 -0.0570 -0.4678 -0.1817
 7941W        W26795  17.104   0.166  14.370 -0.0584 -0.0493  0.0870
 7942W        W26796   5.367   2.119  13.281 -0.1402 -0.1587  0.0226
 7943W        W26797   5.412   4.281   1.082  0.1727 -0.0735 -0.0058
 7944W        W26798   0.599  18.765  12.345  0.0658  0.1240  0.0791
 7945W        W26799   4.237   2.908  14.624  0.1904  0.3086  0.2642
 7946W        W26800   1.017  15.178   4.896 -0.3219 -0.2796  0.0796
 7947W        W26801   2.121  10.567  13.592 -0.4349 -0.0337 -0.2810
 7948W        W26802   5.912   6.054   0.621  0.0285 -0.2851 -0.1900
 7949W        W26803   6.015  18.404   4.245  0.0879 -0.2888 -0.0522
 7950W        W26804   4.223   7.869   3.973  0.2560 -0.1936  0.0077
 7951W        W26805   8.910  13.492  11.906  0.1474 -0.0876  0.2700
 7952W        W26806  17.875  17.215  11.685  0.1074  0.2643  0.3378
 7953W        W26807   1.690  13.572  12.660 -0.0012 -0.1069 -0.1487
 7954W        W26808  12.415  17.209   2.991 -0.1097  0.1965  0.1315
 7955W        W26809   3.964  15.365  11.802 -0.3069 -0.0791  0.0275
 7956W        W26810   4.833  13.980  14.329 -0.2477 -0.0284 -0.4140
 7957W        W26811  14.565   2.142   0.896 -0.2225  0.1053 -0.1644
 7958W        W26812   5.488  17.523  13.328 -0.2527  0.4240 -0.0689
 7959W        W26813  14.612   0.876  14.453  0.3106  0.1489 -0.0684
 7960W        W26814   8.915   2.175  13.860 -0.1319 -0.0474  0.0260
 7961W        W26815   8.870  12.874   1.174 -0.0106  0.2137 -0.1091
 7962W        W26816   8.650  10.618   2.558 -0.1232 -0.0067  0.2426
 7963W        W26817  11.694   8.104   2.480 -0.1603  0.1238 -0.0798
 7964W        W26818  18.247   2.102   3.498  0.4013 -0.0676 -0.1404
 7965W        W26819   9.176  11.740  14.609 -0.3994 -0.0553  0.0719
 7966W        W26820   5.753   3.197   5.515  0.1925 -0.2715  0.2070
 7967W        W26821   0.032  18.564   2.773 -0.4429  0.0768 -0.1020
 7968W        W26822   9.917   9.272   1.424 -0.0824 -0.0749 -0.2225
 7969W        W26823   0.771   8.852   0.036 -0.0679  0.1103 -0.0398
 7970W        W26824   6.038   3.525   4.229  0.2089 -0.1053 -0.1718
 7971W        W26825   9.143  16.734   4.028  0.2669  0.0753 -0.2987
 7972W        W26826  18.033   2.607  14.597 -0.2055  0.2926  0.2555
 7973W        W26827   4.756  14.425   2.118 -0.2459 -0.1907  0.1509
 7974W        W26828   1.857   0.087  13.175 -0.1112  0.0202 -0.1472
 7975W        W26829  13.398   7.805   2.177 -0.0799 -0.0111  0.3230
 7976W        W26830   6.281  16.628  14.184 -0.2222 -0.2031  0.1600
 7977W        W26831   0.999   4.633   2.852  0.0626  0.0686  0.2705
 7978W        W26832   6.087   1.060   1.479  0.0102 -0.2255 -0.0793
 7979W        W26833  16.917  11.481  14.057  0.1800  0.2490 -0.0017
 7980W        W26834  11.941   3.605   4.277 -0.2841 -0.0341  0.0680
 7981W        W26835  11.137   7.383   0.990  0.2913 -0.3227  0.2409
 7982W        W26836   3.610  12.360   1.928 -0.0115  0.1921 -0.0848
 7983W        W26837   6.154   1.329   4.487  0.3103  0.3324  0.0927
 7984W        W26838   2.992   5.458   2.828 -0.1109  0.0409 -0.0169
 7985W        W26839   6.035   1.797   4.409  0.1445 -0.2403  0.1521
 7986W        W26840   8.775  10.806   1.996 -0.0064 -0.0540 -0.0166
 7987W        W26841  14.405   9.079   3.260  0.2345 -0.0319  0.1334
 7988W        W26842  13.475   9.661   2.995 -0.4663 -0.5418  0.1130
 7989W        W26843  15.675  11.834  12.491 -0.1833  0.1030 -0.0104
 7990W        W26844   7.425  17.346  12.979 -0.1618  0.0376  0.0136
 7991W        W26845   0.204   3.231  13.586  0.3889  0.0411 -0.2146
 7992W        W26846   2.261   8.630  11.475 -0.0437  0.1035 -0.0848
 7993W        W26847   6.007  16.058   3.217  0.1908  0.1951  0.0015
 7994W        W26848   5.806   3.741  11.477  0.1835 -0.1353 -0.2713
 7995W        W26849  14.088   4.795  11.520 -0.1683 -0.2487  0.3026
 7996W        W26850   0.948   1.514   3.598  0.0597 -0.3489 -0.1059
 7997W        W26851   7.197  15.755   0.133 -0.1272  0.1295 -0.3447
 7998W        W26852  17.870  15.421  13.606 -0.0310 -0.1830 -0.0663
 7999W        W26853  10.385  17.391  11.648  0.0596  0.2317 -0.1528
 8000W        W26854  17.033  15.990   0.816  0.1416  0.2241  0.1098
 8001W        W26855   8.362   9.260   3.326 -0.0322  0.0090  0.0805
 8002W        W26856  16.227   6.064  13.624  0.0148 -0.1513  0.2858
 8003W        W26857  15.806   7.632   0.602 -0.2851 -0.0825  0.2251
 8004W        W26858  14.604  17.601   4.114 -0.1276  0.0369 -0.0985
 8005W        W26859   0.044   6.901  13.644 -0.5067  0.0441  0.1277
 8006W        W26860   0.546   2.875  10.200  0.0556  0.0100  0.1859
 8007W        W26861   5.814   6.623  10.556 -0.2569  0.3189 -0.0346
 8008W        W26862  11.763   5.968   3.960  0.0607  0.2736 -0.2062
 8009W        W26863  12.085   2.622  14.027  0.1374 -0.1267  0.0862
 8010W        W26864   8.558  13.694   5.116  0.2346  0.2270  0.1711
 8011W        W26865  11.560  12.285   4.067 -0.2573 -0.1099 -0.0268
 8012W        W26866   1.753  17.904  11.860 -0.0784 -0.2334  0.0195
 8013W        W26867   2.883  11.300  11.943 -0.1013 -0.3578 -0.3113
 8014W        W26868  14.995  11.146   4.107  0.1723  0.0243 -0.0600
 8015W        W26869   0.807  17.854  10.819 -0.0493 -0.1404  0.1613
 8016W        W26870  15.430  13.682   2.167  0.0862 -0.2033 -0.2531
 8017W        W26871  17.389   0.718   3.307  0.0194  0.2025 -0.2706
 8018W        W26872  17.110   4.001  13.227  0.1663  0.1425  0.1905
 8019W        W26873   3.176  13.739   3.115  0.1335 -0.1108  0.1128
 8020W        W26874  11.154  17.509   1.401  0.2152  0.2064 -0.1380
 8021W        W26875  14.327   0.739  13.203 -0.2542 -0.0811  0.1168
 8022W        W26876   3.924  18.379   0.957 -0.0071  0.1016  0.0107
 8023W        W26877   2.798   2.052  12.705  0.1676 -0.1470  0.0020
 8024W        W26878  13.100  15.565   0.024 -0.0046 -0.0779  0.1129
 8025W        W26879   4.632   5.376   1.356  0.2123  0.0380  0.1497
 8026W        W26880   9.962  12.026   5.326 -0.0092 -0.2204  0.0424
 8027W        W26881  10.730   1.712  10.927  0.0134 -0.0987 -0.1208
 8028W        W26882   2.422  13.715  14.249  0.3653 -0.0579  0.2211
 8029W        W26883  13.019   1.464   2.816  0.1540 -0.1227 -0.1806
 8030W        W26884   7.165   4.633  10.744 -0.0861 -0.0447  0.0105
 8031W        W26885   3.768   9.442  13.145  0.2539 -0.1067  0.0830
 8032W        W26886  10.383   7.566   3.259 -0.4087 -0.0042  0.0570
 8033W        W26887  17.479  16.945   0.215  0.2971 -0.2681 -0.1500
 8034W        W26888   7.508  13.367   4.402 -0.0846 -0.1579 -0.3239
 8035W        W26889   3.568  14.986  11.750 -0.3535  0.0406  0.1465
 8036W        W26890   2.608  11.514   2.877 -0.0989 -0.0497  0.0242
 8037W        W26891   4.756   3.554   4.436  0.0270  0.2339  0.0016
 8038W        W26892  14.018  18.113  14.722 -0.0011 -0.0597 -0.1523
 8039W        W26893  10.947   1.445   2.075 -0.0386 -0.2502  0.4454
 8040W        W26894   9.384   5.495  12.526 -0.2634  0.0795  0.0293
 8041W        W26895   2.449   9.928   0.177  0.0282  0.1342 -0.1559
 8042W        W26896  18.764   8.210   9.315 -0.0846  0.1304 -0.0264
 8043W        W26897  17.666   3.424  13.029 -0.0695  0.1107 -0.1544
 8044W        W26898   5.380  11.866   0.237  0.0197 -0.1289 -0.1462
 8045W        W26899  14.913   6.152   2.898 -0.0158 -0.1517  0.0989
 8046W        W26900  17.837  18.444   3.967  0.1454 -0.0332 -0.2546
 8047W        W26901  10.398   4.228   2.069 -0.1436  0.1794 -0.0065
 8048W        W26902  12.694   9.848   3.453 -0.0581 -0.0527 -0.4249
 8049W        W26903   0.339  14.431   0.131  0.0764  0.2405  0.1363
 8050W        W26904  15.052  16.882  11.382  0.1298  0.0653  0.0834
 8051W        W26905  13.771  11.148  12.203  0.0354  0.2028 -0.0740
 8052W        W26906   1.441  14.523  14.858  0.2802  0.0320  0.2074
 8053W        W26907   2.192   2.072  12.487  0.3826  0.0987 -0.1200
 8054W        W26908   8.487  13.665  12.516  0.0944 -0.1326  0.1483
 8055W        W26909  16.330   7.397  13.884 -0.0119  0.1478 -0.1558
 8056W        W26910  13.600   7.868  13.502 -0.2524  0.3248  0.1193
 8057W        W26911   9.251   9.735   1.222 -0.0365 -0.0736  0.2106
 8058W        W26912   0.819  12.986  13.529 -0.1433 -0.0885 -0.0084
 8059W        W26913   5.597   1.907   1.209 -0.0083  0.3679  0.0534
 8060W        W26914   2.841  13.332  10.302  0.0885 -0.2088 -0.2991
 8061W        W26915  16.006   2.184   3.587 -0.1284  0.2399  0.2067
 8062W        W26916  13.209  14.287   5.526 -0.1361  0.0349 -0.0353
 8063W        W26917  15.118   0.567  14.567  0.1442  0.0285  0.1753
 8064W        W26918  14.436   5.868  12.944  0.2022 -0.0030  0.1609
 8065W        W26919   9.170  14.829  13.081 -0.0976 -0.2806  0.2258
 8066W        W26920  11.168   7.652  10.765  0.3042  0.2785  0.6081
 8067W        W26921   5.138   5.150  15.036  0.0916 -0.2819  0.1266
 8068W        W26922   3.516   5.291  11.151 -0.0799 -0.3367 -0.0271
 8069W        W26923   0.604   1.171   1.575  0.2767  0.2488  0.3560
 8070W        W26924  12.612   3.747  13.761 -0.0343 -0.0988 -0.0594
 8071W        W26925   3.488   5.227  12.232 -0.1314  0.1025  0.0170
 8072W        W26926  18.633   2.052   0.388  0.2076  0.1628 -0.2144
 8073W        W26927  17.507   9.303  14.286  0.1197  0.1779 -0.1972
 8074W        W26928  10.754   5.473   2.364  0.0415  0.1711 -0.0411
 8075W        W26929  17.694  10.971  12.633 -0.2788  0.0587 -0.0435
 8076W        W26930   5.343   8.332   0.853  0.0487 -0.0149  0.2609
 8077W        W26931   9.642   2.769   0.285 -0.0091  0.0729 -0.1784
 8078W        W26932   3.655   2.338  13.817  0.0879 -0.1431 -0.1378
 8079W        W26933   7.364   9.369   3.599 -0.0243 -0.2202  0.3366
 8080W        W26934  11.211   7.362   4.203 -0.0365 -0.1505 -0.0944
 8081W        W26935  18.533   4.699   3.474  0.0591 -0.0179  0.0003
 8082W        W26936  10.493   0.271  12.145  0.0133 -0.4107 -0.0316
 8083W        W26937  16.286  12.336   4.658  0.0642 -0.0464 -0.1003
 8084W        W26938  13.884   8.653   4.294  0.1069 -0.2968 -0.2061
 8085W        W26939  13.024   6.826  13.212 -0.0321  0.0337  0.0113
 8086W        W26940  11.409  16.756  10.815  0.1895  0.0990  0.1406
 8087W        W26941  15.239  16.358  13.739 -0.0266 -0.0393  0.2415
 8088W        W26942   3.570  15.695   2.712  0.0993 -0.1734  0.0264
 8089W        W26943  13.527  15.770  13.751  0.1926  0.0993 -0.0492
 8090W        W26944   7.822  10.113  12.603  0.3225 -0.3357  0.0258
 8091W        W26945   0.419  11.770   3.914 -0.2563  0.0809 -0.1364
 8092W        W26946   1.937   0.742   1.544  0.4019  0.0095 -0.2941
 8093W        W26947  12.034   4.366  13.172  0.1840 -0.2003  0.1506
 8094W        W26948   3.546   6.832   4.331 -0.1239 -0.2109 -0.0636
 8095W        W26949   9.272  11.868   3.869  0.1605  0.3073  0.0815
 8096W        W26950   1.945   3.479  12.130  0.3588 -0.1191  0.0298
 8097W        W26951   2.563   6.670   3.252 -0.0930  0.1275 -0.1693
 8098W        W26952   0.447  11.922  11.105  0.2233  0.0618  0.1356
 8099W        W26953   4.746  17.515  11.738  0.3287  0.4007 -0.0606
 8100W        W26954  10.526  17.083  12.507  0.3332  0.3789 -0.0963
 8101W        W26955  13.541   6.542   3.458  0.3684 -0.1794 -0.0137
 8102W        W26956   5.925   5.191   4.325  0.2439 -0.1259 -0.1762
 8103W        W26957   3.098  18.098  11.304 -0.0279  0.0961 -0.2038
 8104W        W26958  17.424  15.725  15.083 -0.0831  0.0540 -0.0800
 8105W        W26959  16.524  11.856   0.667 -0.3451  0.2557 -0.0628
 8106W        W26960  16.185   1.163   3.736 -0.1569 -0.0958 -0.1155
 8107W        W26961   7.571  14.124   0.945  0.1570 -0.1350 -0.0795
 8108W        W26962   0.309  14.296  12.161  0.2579  0.0180 -0.3876
 8109W        W26963   7.334  15.241   0.163 -0.1613 -0.1430 -0.1326
 8110W        W26964  11.169  17.477   2.487  0.1738  0.1909 -0.4469
 8111W        W26965   0.781   5.041   2.637  0.3304 -0.2958  0.2257
 8112W        W26966  10.548   0.791   4.296 -0.0356 -0.0472  0.2421
 8113W        W26967  12.118   3.966  12.174  0.2048  0.2006 -0.0586
 8114W        W26968   9.598   8.923  13.555  0.0515  0.2052  0.1646
 8115W        W26969   1.489   0.633   0.749  0.2278  0.0378  0.1984
 8116W        W26970   1.929  10.599   4.517 -0.2150  0.2217  0.0560
 8117W        W26971   6.737   4.093  12.564  0.2477  0.1931 -0.1522
 8118W        W26972   6.202  16.633  11.683 -0.0544 -0.1072 -0.0872
 8119W        W26973   5.565  17.659   3.077 -0.0908  0.2312  0.0353
 8120W        W26974   9.430   7.504   2.313 -0.0665  0.1290  0.3518
 8121W        W26975  13.192  16.116  11.837  0.0632 -0.1134  0.0001
 8122W        W26976   9.027   4.903  10.817 -0.2263 -0.0297  0.2562
 8123W        W26977  11.436   5.538  13.901  0.0885 -0.0400 -0.1807
 8124W        W26978   8.122  17.887   2.369 -0.0300  0.2397 -0.1801
 8125W        W26979  15.343   9.951   4.498 -0.0774 -0.3385  0.2812
 8126W        W26980  12.706   8.994  10.368  0.2925 -0.0309 -0.0111
 8127W        W26981   5.804  18.766  10.899 -0.0276 -0.1341  0.2011
 8128W        W26982   2.862   1.200   0.952  0.2174 -0.1188 -0.2459
 8129W        W26983  12.914   2.574   2.242  0.2076  0.0770  0.1263
 8130W        W26984  17.768   6.991  11.355 -0.2359 -0.1538  0.1212
 8131W        W26985  15.393   2.241   2.055  0.0848 -0.1665  0.0216
 8132W        W26986   6.475   3.107  13.529 -0.3378  0.2376  0.2024
 8133W        W26987  11.172   4.636  14.566 -0.1162 -0.0602 -0.1374
 8134W        W26988   5.082  17.764  13.530  0.0915 -0.1106 -0.4507
 8135W        W26989   0.816   6.569  14.398 -0.1079 -0.1641 -0.1982
 8136W        W26990   1.429   4.199   0.773  0.2118 -0.1900 -0.1298
 8137W        W26991  10.395   8.005   2.312  0.0828 -0.2547 -0.0111
 8138W        W26992   8.027  11.023   0.133  0.0192  0.3871 -0.1881
 8139W        W26993   7.981   7.530  13.901  0.1408  0.0895 -0.0081
 8140W        W26994   2.927  10.029  13.445 -0.2786  0.0751  0.0014
 8141W        W26995   2.037  10.083   2.801 -0.1600  0.2376 -0.0325
 8142W        W26996   4.850   9.376   3.697 -0.1898 -0.2600 -0.3189
 8143W        W26997   2.241  13.870   3.093 -0.1482  0.0582  0.1072
 8144W        W26998  11.508  10.285  14.414 -0.3619 -0.1302  0.1129
 8145W        W26999  14.086   5.227  10.119  0.0038 -0.2427  0.1136
 8146W        W27000  12.703   8.909   0.603 -0.2876 -0.1672 -0.1910
 8147W        W27001  11.350  15.402  14.404 -0.3519  0.0190  0.0676
 8148W        W27002  11.938   1.532  11.980 -0.1494  0.2602  0.0875
 8149W        W27003   7.536  12.253   3.923 -0.1221  0.1862  0.1025
 8150W        W27004   4.054  14.131  13.396  0.1167 -0.0967  0.0140
 8151W        W27005  16.874  10.457   2.917  0.0064  0.2252  0.0790
 8152W        W27006  16.994  11.325  11.769 -0.2304 -0.1720 -0.0219
 8153W        W27007  16.354   0.456  12.966 -0.1019 -0.0610  0.0434
 8154W        W27008   2.475  11.477   1.264 -0.1402 -0.0148 -0.0818
 8155W        W27009  15.155   7.626  12.386 -0.0530  0.0236 -0.1822
 8156W        W27010   7.594   5.133   4.176 -0.2973  0.0245  0.1847
 8157W        W27011   0.239  13.988   3.228  0.1274 -0.0288 -0.1300
 8158W        W27012  13.853   0.498   2.094 -0.1769 -0.1309 -0.4030
 8159W        W27013   7.786  16.387   0.524  0.0948  0.3432 -0.1126
 8160W        W27014  16.977   7.505   2.106  0.0744  0.3114 -0.1082
 8161W        W27015   8.254  11.511   0.792  0.4227 -0.2415  0.1701
 8162W        W27016  15.144   1.392  10.597 -0.0798 -0.2229 -0.0513
 8163W        W27017  18.497  14.357   0.459 -0.0900  0.4750 -0.0280
 8164W        W27018   2.694  15.706   3.638  0.2728  0.1649 -0.1982
 8165W        W27019   4.739  18.515  12.919  0.1165 -0.3560  0.0129
 8166W        W27020   4.197   2.562   5.002 -0.1982  0.1728 -0.1978
 8167W        W27021   9.974   8.636  11.513  0.1145  0.0464 -0.1819
 8168W        W27022   6.385   8.041   1.725  0.3340  0.1635  0.0376
 8169W        W27023   6.206  17.370   9.859 -0.5378  0.1162  0.0912
 8170W        W27024   3.084  11.921   9.779 -0.2327  0.2050 -0.2580
 8171W        W27025  12.470   1.900   0.276 -0.2377  0.1876  0.0383
 8172W        W27026  14.535  14.639   4.551  0.0954  0.0419 -0.1251
 8173W        W27027   6.933  12.739   2.294  0.0286 -0.0506  0.0933
 8174W        W27028   0.572  14.710  12.757 -0.1751  0.2103  0.0528
 8175W        W27029   2.428   9.562   2.693 -0.3077  0.5168 -0.1930
 8176W        W27030   7.397   4.622  12.029 -0.0966  0.1552 -0.0387
 8177W        W27031  16.367  10.203   1.271  0.0690  0.0305 -0.1461
 8178W        W27032   7.479  13.691   1.968 -0.0016  0.1198 -0.0685
 8179W        W27033   8.166   9.570   0.530  0.3452  0.0388 -0.1923
 8180W        W27034  13.745   4.675   4.777 -0.1234 -0.0457  0.0434
 8181W        W27035  14.836  10.371   1.707 -0.0011 -0.2501 -0.1238
 8182W        W27036   0.375   8.888   3.811  0.1853  0.1936  0.2583
 8183W        W27037   8.271   1.987   2.502  0.1001 -0.0429  0.0281
 8184W        W27038   4.233  10.291   0.336  0.1582 -0.0001 -0.1278
 8185W        W27039   5.761   0.517   2.821  0.0305 -0.2725 -0.0699
 8186W        W27040   1.655  18.112   1.898 -0.2481 -0.2014 -0.1411
 8187W        W27041   6.986  14.545  10.019  0.3299 -0.3263  0.2489
 8188W        W27042  13.192   6.310  14.136  0.1115  0.0803  0.3872
 8189W        W27043  15.885   8.019  11.757 -0.1012  0.1331 -0.1147
 8190W        W27044   9.833  10.472   1.322  0.2430 -0.0374 -0.0720
 8191W        W27045  17.090  13.701  15.015 -0.0714 -0.3306 -0.0208
 8192W        W27046   4.387  18.425  12.020 -0.2125  0.0157 -0.4594
 8193W        W27047  14.356   7.573  11.965 -0.3761  0.2508  0.0500
 8194W        W27048   3.796  10.897  13.782 -0.0072 -0.0848  0.3284
 8195W        W27049  16.013   2.571  13.349  0.3215 -0.0021  0.0994
 8196W        W27050  15.297   6.729  12.831 -0.0872 -0.2738  0.2056
 8197W        W27051   9.192   8.248  11.770  0.1867  0.1713 -0.1691
 8198W        W27052   8.591   5.266   2.700  0.1330 -0.1507  0.0704
 8199W        W27053  15.859   4.374  10.572 -0.0247  0.1059 -0.0490
 8200W        W27054   6.629   0.537  14.951  0.0216  0.0080  0.0235
 8201W        W27055   0.200   5.799  12.306  0.2269  0.1983 -0.3305
 8202W        W27056  13.728  11.482  12.603 -0.1392  0.0219  0.0654
 8203W        W27057   4.230  18.375   2.387  0.0732  0.2797 -0.0183
 8204W        W27058   4.036   3.796   0.979 -0.0980 -0.1535  0.3273
 8205W        W27059  12.584   9.849  13.271  0.2011  0.1112  0.2005
 8206W        W27060   1.581   9.325  11.364 -0.1318  0.1537  0.0231
 8207W        W27061   1.287  16.210  13.844 -0.1134  0.1093  0.0197
 8208W        W27062   1.296  16.615   0.658  0.0294  0.0789  0.3676
 8209W        W27063   4.181   8.502  13.504  0.0988  0.0774 -0.1769
 8210W        W27064  15.783   8.344   3.245  0.0305  0.0404 -0.0474
 8211W        W27065   2.559   5.208   2.186  0.0468  0.0060 -0.3051
 8212W        W27066  13.211   7.150   4.195  0.2438 -0.0467  0.1867
 8213W        W27067   7.165  10.757  13.151  0.2729  0.1270  0.0229
 8214W        W27068  17.048  17.148   3.144  0.0609 -0.0331  0.0252
 8215W        W27069  17.141   7.124  12.643 -0.2617 -0.0226 -0.3528
 8216W        W27070   4.896   0.796  12.726 -0.5043 -0.3916  0.0965
 8217W        W27071   4.773   0.104   0.093  0.1229 -0.1318  0.0717
 8218W        W27072   5.853  17.218   0.671  0.0077 -0.2368 -0.0553
 8219W        W27073   3.835  10.406  12.003  0.0705 -0.0461  0.0298
 8220W        W27074   0.360   5.022   1.731 -0.1112  0.0390 -0.0911
 8221W        W27075  15.440  18.679  13.241 -0.1912 -0.0197  0.1399
 8222W        W27076   1.654  11.223   2.243  0.1982  0.0741 -0.2473
 8223W        W27077  16.850   2.904  13.469  0.1501  0.1557 -0.1403
 8224W        W27078   5.326   2.314  11.120 -0.1733 -0.0968  0.1643
 8225W        W27079   5.564  12.701  14.034  0.0203 -0.0493 -0.1078
 8226W        W27080  17.520   3.908  14.720 -0.3027 -0.2131  0.0709
 8227W        W27081  12.599   5.881   3.898  0.0387  0.1351  0.0124
 8228W        W27082   4.517  18.524   1.906 -0.0986 -0.0300 -0.1413
 8229W        W27083  15.712   2.489   0.660 -0.2220 -0.4519 -0.2645
 8230W        W27084   3.305   4.827   3.410  0.0403 -0.1574 -0.2674
 8231W        W27085   6.651   2.216   2.971  0.0725 -0.3103  0.0336
 8232W        W27086  15.147  12.136   1.258 -0.0508 -0.0979 -0.1119
 8233W        W27087  15.489  17.225   3.378 -0.1501  0.0368  0.1334
 8234W        W27088   0.444   0.091   5.122  0.1533  0.1636 -0.0187
 8235W        W27089  12.739   7.480   3.485  0.4875 -0.1495 -0.2655
 8236W        W27090  12.657  18.017  14.591  0.0067 -0.0239 -0.1601
 8237W        W27091  15.162  13.293   2.017 -0.1087  0.0466 -0.0725
 8238W        W27092  17.745   8.181  12.547 -0.1122 -0.0079 -0.5155
 8239W        W27093   1.253  12.124   4.093 -0.5323  0.0970 -0.0982
 8240W        W27094   1.940   4.606  11.335  0.4299  0.0617 -0.1072
 8241W        W27095  15.341  15.548   3.395  0.2854 -0.2508  0.0770
 8242W        W27096   8.673  15.018  12.983  0.0349  0.0502 -0.0164
 8243W        W27097  17.165  11.911   2.553  0.0887 -0.1715 -0.1577
 8244W        W27098  14.827  18.164   4.053 -0.1242  0.0502  0.1815
 8245W        W27099   4.906   1.791  14.152 -0.0423  0.2485  0.0781
 8246W        W27100  12.326   5.702  15.017 -0.1763  0.0621 -0.1121
 8247W        W27101   5.098  18.728  13.386 -0.0143  0.2383  0.1915
 8248W        W27102   7.312   4.546  13.629  0.1393 -0.3568 -0.0534
 8249W        W27103  13.737   3.473  11.840  0.0897 -0.1002  0.1057
 8250W        W27104  18.695  10.710  11.247  0.0066 -0.0616 -0.0637
 8251W        W27105   4.770   4.071   4.472 -0.1371 -0.5016 -0.3333
 8252W        W27106  12.254   2.681  13.039 -0.0539 -0.0049 -0.0106
 8253W        W27107   1.038  13.225   1.592  0.0979 -0.1722  0.0666
 8254W        W27108   7.304   6.957  13.315  0.0925  0.4503 -0.1024
 8255W        W27109   4.812  16.855  13.116  0.1248  0.1225  0.3422
 8256W        W27110   9.688   2.404  12.970  0.3187 -0.3807  0.0589
 8257W        W27111   6.504   6.684   3.495 -0.0303  0.2188  0.4103
 8258W        W27112   0.607  16.373  10.297  0.1255 -0.0119  0.0761
 8259W        W27113   9.442   1.976  12.916  0.2107 -0.1409  0.0020
 8260W        W27114  17.279  14.991  12.962 -0.0704 -0.3050 -0.0564
 8261W        W27115  15.231  10.832  11.035  0.0248  0.0261 -0.4077
 8262W        W27116  17.740  15.496   1.444  0.2492  0.0472 -0.0389
 8263W        W27117  16.143   7.738  12.438  0.0620  0.0390  0.0371
 8264W        W27118  16.122  16.285  10.884  0.0094 -0.1272  0.1318
 8265W        W27119   2.139   7.299  11.463 -0.0634 -0.1639 -0.2879
 8266W        W27120   9.415   9.173   0.573  0.1907 -0.3150  0.3318
 8267W        W27121   0.908  15.851   3.671 -0.0318 -0.3271  0.1245
 8268W        W27122  10.679  11.871   1.489 -0.0237 -0.5117 -0.0079
 8269W        W27123   7.694   4.276  12.602 -0.0220  0.1445  0.2732
 8270W        W27124   1.402   6.094   2.766 -0.2753  0.1263 -0.2444
 8271W        W27125   6.688  12.784  15.070 -0.0412  0.2082  0.1545
 8272W        W27126  18.780  11.293   3.906 -0.1976 -0.0328  0.0100
 8273W        W27127  11.028  14.907   2.686  0.1457 -0.1066  0.0510
 8274W        W27128   6.677   1.296   4.615 -0.0487 -0.0987  0.1632
 8275W        W27129  12.199   5.752   4.143  0.0751  0.0116  0.2580
 8276W        W27130  14.931   6.313   0.475 -0.0045  0.0510 -0.0605
 8277W        W27131  18.132   1.846   2.468 -0.1781  0.2617  0.1914
 8278W        W27132   0.381  17.126  12.302 -0.3177 -0.1868 -0.2443
 8279W        W27133   2.272   8.589   4.065 -0.3941  0.2261 -0.0471
 8280W        W27134   6.731  17.776  10.900 -0.2163 -0.1780  0.0103
 8281W        W27135  11.718   1.466  13.466 -0.0029 -0.0820  0.0743
 8282W        W27136   3.264   5.908   0.833 -0.1884  0.0899 -0.2550
 8283W        W27137  16.750  14.111   1.876  0.2656  0.0576 -0.1794
 8284W        W27138   5.017  12.516   0.156 -0.0951  0.2912 -0.0990
 8285W        W27139  10.177  15.556   1.130 -0.0771 -0.2893 -0.0656
 8286W        W27140   6.529  11.091  11.528  0.0089 -0.4914 -0.0124
 8287W        W27141   9.219   4.883  12.513  0.0849  0.0967  0.0364
 8288W        W27142   9.899   1.505  12.095  0.5166  0.1415  0.1027
 8289W        W27143   6.713   0.420  14.435  0.0296 -0.1720 -0.1173
 8290W        W27144  10.401   4.740  14.829 -0.2026  0.1156 -0.0152
 8291W        W27145   5.902   4.542  12.587 -0.1948  0.1960 -0.4083
 8292W        W27146   1.954   9.672   4.312  0.1228  0.1677 -0.4139
 8293W        W27147   3.924  18.633   0.515  0.0431 -0.0256  0.0227
 8294W        W27148   0.560   1.465   3.228  0.1381 -0.1714  0.2251
 8295W        W27149   2.032  17.408  13.114  0.3272 -0.2310 -0.0573
 8296W        W27150  15.800   6.000   1.393  0.0475  0.0977  0.0852
 8297W        W27151   4.131  14.679  10.835  0.2247 -0.0594  0.0729
 8298W        W27152  17.151  18.699   4.541  0.0503 -0.2384  0.0467
 8299W        W27153   4.483  18.732   1.450 -0.1583  0.2119  0.0534
 8300W        W27154  11.495   3.428  11.552  0.0698 -0.0079  0.1885
 8301W        W27155   3.935   4.013   4.411  0.2310  0.0035  0.0109
 8302W        W27156  10.502  14.058   4.106  0.0448  0.1605  0.0113
 8303W        W27157   4.802  11.135  12.826  0.1949  0.0640  0.2435
 8304W        W27158  17.831   0.597  14.033  0.2767 -0.1342 -0.2316
 8305W        W27159   2.870   3.301  12.700 -0.1694 -0.0568  0.0325
 8306W        W27160  11.865  17.394  12.940  0.0177  0.1318 -0.1488
 8307W        W27161   6.515   4.607  15.050 -0.0764  0.0762 -0.1496
 8308W        W27162   5.439   0.731  14.207 -0.0705  0.1883 -0.0089
 8309W        W27163  12.571   2.044   2.222 -0.0855  0.1251  0.0359
 8310W        W27164   1.540  12.279   0.057 -0.0123  0.2201  0.1923
 8311W        W27165   3.411   7.044  12.355 -0.0308  0.0430  0.0554
 8312W        W27166  16.062  11.521   4.266 -0.2746 -0.0340  0.1519
 8313W        W27167  16.677   3.328  12.632  0.1894  0.0949  0.1210
 8314W        W27168  17.061   4.933   4.313  0.0014 -0.0523 -0.0801
 8315W        W27169  15.428  15.368   2.444  0.2228  0.1082  0.1533
 8316W        W27170   6.829  10.048  13.509  0.1214 -0.0547  0.1277
 8317W        W27171  17.106   0.185  11.143  0.0310 -0.2152 -0.0989
 8318W        W27172  17.458   4.375   0.126  0.4320  0.1024  0.2000
 8319W        W27173   8.333   7.279  13.641 -0.0105 -0.0590  0.1254
 8320W        W27174  14.079  15.123   3.958  0.2551  0.1180  0.1006
 8321W        W27175   5.139  13.169   2.889  0.2939  0.0421 -0.1003
 8322W        W27176  12.483  13.274  13.345 -0.5749 -0.2391  0.1064
 8323W        W27177  14.525  14.550  10.858 -0.0798 -0.1614  0.0779
 8324W        W27178  18.542   4.370  14.450 -0.0798  0.2167  0.1424
 8325W        W27179   3.914  15.440   0.435  0.2257  0.2384  0.2804
 8326W        W27180   5.891   2.572   0.587  0.0078 -0.1081  0.0232
 8327W        W27181   5.311  12.321  11.693  0.1829  0.0092 -0.2346
 8328W        W27182  16.243   6.052  10.786  0.0159  0.3353  0.0518
 8329W        W27183  10.124   0.870   2.218  0.0344 -0.1794  0.1791
 8330W        W27184  10.201  18.096  14.183  0.1866  0.4679 -0.1138
 8331W        W27185   5.816  16.818  11.973  0.1131 -0.2773 -0.1284
 8332W        W27186  10.213  18.609  15.079 -0.1095  0.0593  0.4172
 8333W        W27187  15.381   3.218   4.174 -0.1288  0.2354  0.1307
 8334W        W27188   6.382  13.309   0.797 -0.0130 -0.5121  0.3847
 8335W        W27189   5.275   5.050   0.648  0.2510 -0.1236 -0.0765
 8336W        W27190  17.106   9.463   1.538 -0.1536  0.2939  0.1852
 8337W        W27191   5.615   6.155   2.538 -0.3898  0.3239 -0.3758
 8338W        W27192   5.057  16.381  13.231  0.0173  0.2571  0.0501
 8339W        W27193   8.649  12.166   1.792  0.2735 -0.0534 -0.1469
 8340W        W27194   4.878   2.204   1.096  0.0998 -0.0484  0.1901
 8341W        W27195  13.260   1.961  14.347 -0.0660  0.0297  0.4254
 8342W        W27196   4.728   7.791   1.879 -0.2304 -0.1909 -0.1023
 8343W        W27197  17.828  18.707   2.042 -0.2661  0.1485  0.0061
 8344W        W27198   2.691  12.821   2.426  0.2381 -0.3660 -0.0673
 8345W        W27199  14.322  14.652  13.972 -0.0849 -0.2146 -0.0673
 8346W        W27200   2.220   9.800  11.571 -0.0618  0.0304  0.1955
 8347W        W27201   9.352  15.608   5.255  0.0682 -0.3487 -0.1455
 8348W        W27202   1.337   3.268  14.637 -0.1292  0.0848  0.0212
 8349W        W27203  10.298   1.915   4.103  0.2043  0.1176 -0.0522
 8350W        W27204  16.215  17.208   1.064 -0.1417 -0.2357  0.0982
 8351W        W27205  17.986  12.981   9.503  0.0330 -0.1285  0.0047
 8352W        W27206   0.503   3.908  14.824 -0.0731 -0.3600 -0.2671
 8353W        W27207  18.026   3.979  12.261 -0.0507 -0.0691  0.1380
 8354W        W27208  11.538   3.363  13.040 -0.4539  0.1969 -0.4762
 8355W        W27209  14.961   5.530   3.578 -0.0571  0.1076  0.0514
 8356W        W27210   4.216   0.946  10.231  0.0169  0.4075  0.3056
 8357W        W27211  13.930   7.058   2.014  0.0687 -0.1968  0.3558
 8358W        W27212  16.509  14.725   5.401 -0.0464  0.1187  0.0328
 8359W        W27213   6.511   4.777   0.404  0.1772  0.0711 -0.1665
 8360W        W27214  14.209   6.633  15.064  0.0970 -0.3317 -0.0768
 8361W        W27215  10.719   5.023   1.580 -0.1341  0.0270  0.1094
 8362W        W27216  17.030   8.193  11.620 -0.0597  0.0767  0.1034
 8363W        W27217   4.719   2.680   3.135  0.0405 -0.0857 -0.2356
 8364W        W27218   8.859   2.189  12.717  0.0804  0.3666  0.0723
 8365W        W27219   1.707  17.489  12.240 -0.3919  0.0966  0.0065
 8366W        W27220   3.814  15.409   3.211  0.1281  0.0157 -0.3407
 8367W        W27221   0.140   1.504  11.539 -0.0535  0.0094  0.2554
 8368W        W27222  13.987   3.623   4.843  0.3287  0.3358 -0.0827
 8369W        W27223   4.860  14.640  14.656 -0.1541  0.3237 -0.3292
 8370W        W27224   9.505   1.466  13.692 -0.1385 -0.1193 -0.1128
 8371W        W27225  15.734  13.040   1.737  0.1174 -0.0424 -0.2364
 8372W        W27226   8.599   1.682   1.305  0.1582  0.1573 -0.1552
 8373W        W27227  12.807   6.245  13.662  0.0347 -0.0600  0.0429
 8374W        W27228  17.076   0.768  13.608 -0.4448 -0.0867 -0.2252
 8375W        W27229  15.242   6.014   1.984 -0.1176 -0.1567 -0.0060
 8376W        W27230   5.595  17.342  12.228  0.1827  0.0355 -0.0500
 8377W        W27231  14.578  16.240  10.863 -0.2827  0.1372 -0.1402
 8378W        W27232  13.635  15.467   1.572  0.1455  0.0844  0.0008
 8379W        W27233   6.737   7.180   3.824  0.0503 -0.0282  0.1045
 8380W        W27234  16.308   2.995  13.366  0.1054 -0.0367  0.1048
 8381W        W27235  12.497  15.065  11.695 -0.4246 -0.1860 -0.0023
 8382W        W27236  14.784   7.093   0.791 -0.1331  0.3742  0.2364
 8383W        W27237  11.873   1.999  11.808  0.0198  0.1788 -0.2196
 8384W        W27238  11.765   7.633  14.297 -0.0563 -0.0272  0.1273
 8385W        W27239   3.066   6.236   3.711 -0.0563  0.0711  0.0802
 8386W        W27240  15.071   7.404  13.281 -0.0219 -0.4550  0.1532
 8387W        W27241   7.192  16.560  13.805 -0.1069 -0.1182 -0.0943
 8388W        W27242   6.662   4.113  11.242 -0.1888  0.3341  0.1333
 8389W        W27243   3.121  11.450  11.217  0.1157  0.3143  0.1546
 8390W        W27244   7.115   4.999  14.268 -0.1823  0.2371 -0.1749
 8391W        W27245  17.282   0.588  13.164  0.2074  0.2115  0.0182
 8392W        W27246  14.728   4.253  12.433  0.0533 -0.2957  0.1818
 8393W        W27247  14.050   0.632  14.750  0.3597 -0.2162  0.0345
 8394W        W27248   2.102   5.680  14.871  0.4457  0.0368  0.0380
 8395W        W27249   5.931   8.951  10.934 -0.4316 -0.5391 -0.0750
 8396W        W27250   6.060  17.864  11.086 -0.1872 -0.1466 -0.2413
 8397W        W27251  18.589   3.678   0.808  0.1242 -0.0840 -0.1750
 8398W        W27252   3.148  15.535  13.528 -0.3304 -0.1432  0.2511
 8399W        W27253  11.938   2.716   4.608  0.3175 -0.0517 -0.2120
 8400W        W27254   0.077   4.477   2.472  0.0544  0.1925 -0.0859
 8401W        W27255  12.752  14.001  12.109  0.1397 -0.1005 -0.1381
 8402W        W27256   8.146  13.199  14.726 -0.2157 -0.0343  0.1295
 8403W        W27257   3.539  16.304  12.101  0.0509 -0.3052 -0.0255
 8404W        W27258  10.676  17.249   0.353 -0.2190  0.1436 -0.3035
 8405W        W27259   3.701  13.707   1.640  0.0495 -0.1093 -0.2546
 8406W        W27260   1.874   8.589  12.498  0.2543  0.0137 -0.1562
 8407W        W27261   2.564   3.314  12.123 -0.0585  0.1262  0.1826
 8408W        W27262   6.561  17.303  13.627  0.1595 -0.2182  0.3326
 8409W        W27263   7.489  11.975   1.294  0.2377 -0.3197 -0.1860
 8410W        W27264  11.649   3.972  13.741 -0.0629  0.1731  0.1215
 8411W        W27265   5.530  18.663  12.445 -0.0901  0.0086 -0.2455
 8412W        W27266   0.563   1.255  11.344  0.1036 -0.2711  0.1198
 8413W        W27267  18.644   8.513  10.878 -0.0540  0.0087  0.0965
 8414W        W27268  11.734  12.146  13.956 -0.1113 -0.1709  0.0078
 8415W        W27269  11.688   5.618  11.609 -0.5014 -0.0131 -0.2177
 8416W        W27270   2.833  16.729  14.760 -0.1140 -0.5003 -0.0522
 8417W        W27271   4.766  15.459  13.523  0.0358  0.1061 -0.3603
 8418W        W27272   3.752  10.158   0.887  0.2123 -0.0284 -0.0274
 8419W        W27273  11.354   9.698   1.067  0.0529 -0.0474 -0.0970
 8420W        W27274  12.913   7.222   1.997 -0.0667  0.2610 -0.1351
 8421W        W27275  11.974  15.691   5.526  0.0474  0.0793 -0.0348
 8422W        W27276  10.496  15.353   3.356 -0.0040 -0.4315  0.0388
 8423W        W27277  16.243   9.537   1.698 -0.0856  0.3209  0.0309
 8424W        W27278  14.341  14.838   9.578  0.1234 -0.2386  0.1149
 8425W        W27279  10.179   8.938   4.329 -0.2009 -0.0122  0.0508
 8426W        W27280   7.522  11.314  14.444 -0.0230  0.1074  0.0937
 8427W        W27281   8.900   3.553   2.008  0.1725 -0.3909 -0.2177
 8428W        W27282  13.669  12.439  13.395 -0.0904 -0.0569 -0.0009
 8429W        W27283  13.507   6.888  13.473 -0.1364  0.0413  0.3669
 8430W        W27284  10.275  12.396  13.093 -0.2977 -0.1105 -0.1267
 8431W        W27285   0.776  15.520  14.515 -0.4063 -0.0770 -0.0124
 8432W        W27286  13.438  17.619  10.469 -0.2003 -0.2747 -0.0014
 8433W        W27287   4.093  15.258   2.164 -0.0216 -0.0028 -0.4046
 8434W        W27288   5.236  12.237   3.752  0.1024 -0.1646 -0.2884
 8435W        W27289   4.660   4.744  14.172  0.0951 -0.2502  0.2332
 8436W        W27290   4.445  14.965   4.165 -0.3723  0.1664  0.2527
 8437W        W27291   4.706   7.082   3.595 -0.0029 -0.2015  0.4729
 8438W        W27292  15.372  12.231   2.172 -0.2426 -0.0760 -0.0081
 8439W        W27293  14.086  17.482  12.790  0.0922  0.3347  0.0111
 8440W        W27294  14.618   3.527   3.722 -0.0059  0.0839  0.0696
 8441W        W27295   6.074   4.327   4.030  0.0719  0.2200 -0.0053
 8442W        W27296  14.372  12.572   1.095 -0.1974 -0.0553  0.1694
 8443W        W27297   3.919  16.588   1.290 -0.0477 -0.1376  0.3017
 8444W        W27298   5.042  11.230   2.742 -0.3483  0.2015  0.2567
 8445W        W27299   0.238  11.345   1.739 -0.1452  0.2569  0.1125
 8446W        W27300   6.769  13.745  12.975  0.1033 -0.1427  0.0270
 8447W        W27301   2.228  10.815   3.767 -0.2523  0.0151 -0.1936
 8448W        W27302  12.813  12.578  13.942  0.1831  0.2030  0.0176
 8449W        W27303  12.824   3.976  12.293  0.0078  0.1315  0.3456
 8450W        W27304  11.958   9.419  14.230  0.0585 -0.1000  0.0874
 8451W        W27305  14.858  17.438   1.099  0.1323  0.0555 -0.1165
 8452W        W27306   0.903   4.151   0.756 -0.1331 -0.0183 -0.0408
 8453W        W27307   7.052   4.325  11.707 -0.1442 -0.2425 -0.1392
 8454W        W27308  17.697   1.842   2.719 -0.2752  0.0667  0.1919
 8455W        W27309   3.967  14.013  12.883 -0.0643  0.0343  0.3462
 8456W        W27310   6.539   9.218  12.073 -0.4820 -0.2862  0.0235
 8457W        W27311  10.446  15.012  14.207  0.1316  0.0859  0.2027
 8458W        W27312   9.822   1.510   2.986 -0.0088 -0.0896  0.1443
 8459W        W27313  17.583   8.482   3.885  0.3602 -0.1633  0.0069
 8460W        W27314   5.349   0.307  13.693  0.0097 -0.0408 -0.3026
 8461W        W27315   7.890   6.148  11.661 -0.1458  0.1128 -0.3485
 8462W        W27316  15.717   7.580   4.452 -0.2176  0.0815  0.2804
 8463W        W27317   4.354   3.475   1.182 -0.2366  0.1758  0.4374
 8464W        W27318  17.271   1.444  14.179 -0.3483  0.3263  0.1093
 8465W        W27319  13.572   1.425   3.588 -0.0978 -0.2805  0.2817
 8466W        W27320  14.991   0.705   4.062 -0.0276  0.2452 -0.0203
 8467W        W27321   7.176  16.601  12.420  0.0554 -0.2765  0.4061
 8468W        W27322  13.612   8.546  13.451  0.0154  0.0287  0.1471
 8469W        W27323   7.890  11.216   1.636 -0.3262 -0.0019  0.4181
 8470W        W27324   2.874   9.114  14.317  0.0956  0.0439 -0.0559
 8471W        W27325  18.614   2.623   0.484  0.3235  0.1712 -0.1822
 8472W        W27326  18.261   4.897  13.163 -0.3712  0.2724  0.1493
 8473W        W27327   9.138  11.155  11.827  0.0272  0.0115  0.0065
 8474W        W27328   9.677  11.231  11.851 -0.0399  0.4953  0.3485
 8475W        W27329  12.081  16.209  12.590 -0.0719 -0.0709  0.2555
 8476W        W27330   6.982   3.448  11.615  0.3565  0.1035 -0.1171
 8477W        W27331  17.780  17.382  14.272  0.2513 -0.1726  0.3418
 8478W        W27332  18.362   9.611  11.175  0.4097  0.0524 -0.0220
 8479W        W27333  16.568   1.804  11.065  0.0358 -0.0531 -0.3818
 8480W        W27334  15.585  13.519  13.357  0.1060  0.1305 -0.0106
 8481W        W27335  16.157  14.240  13.159  0.2226  0.2387 -0.0393
 8482W        W27336   2.889  15.304   4.510 -0.0937  0.2439  0.0394
 8483W        W27337   9.385  13.854   1.705 -0.0950 -0.0942  0.0987
 8484W        W27338  10.378   8.058   3.211 -0.2178  0.3153  0.0585
 8485W        W27339   1.411   0.791   2.588  0.3029 -0.2066 -0.2120
 8486W        W27340  14.159  10.892  15.110 -0.1073 -0.2623 -0.0247
 8487W        W27341   7.289   8.346   2.728  0.1244  0.2477  0.1485
 8488W        W27342  12.598  15.083  13.183 -0.1189 -0.0668 -0.1194
 8489W        W27343  12.571   2.369   0.442  0.2737 -0.1638  0.2406
 8490W        W27344   2.818   4.619   3.359 -0.1882 -0.0386 -0.1402
 8491W        W27345  13.493  18.564   0.841  0.1165 -0.0027  0.1137
 8492W        W27346  11.740  16.019  10.518 -0.1704 -0.0036  0.0151
 8493W        W27347  10.108  10.042   1.162  0.1906 -0.0133  0.0447
 8494W        W27348   6.387   6.753   1.125 -0.0667  0.0741 -0.1383
 8495W        W27349  15.086  16.237  12.746  0.1312 -0.0946 -0.2710
 8496W        W27350   1.616   6.803  12.175  0.0652  0.2840  0.1607
 8497W        W27351   4.280   8.601   0.694  0.1233 -0.0946 -0.0634
 8498W        W27352   1.147  11.400  10.814  0.0060  0.0538 -0.1448
 8499W        W27353  13.283  12.689  14.848  0.0905  0.1162  0.1413
 8500W        W27354  12.567  15.865   3.178 -0.0209 -0.2195  0.1190
 8501W        W27355  11.439   4.333  14.030 -0.1904 -0.0246 -0.1521
 8502W        W27356   8.197  13.591   3.401  0.3073 -0.0956  0.0432
 8503W        W27357   1.870   3.221  12.573 -0.0199  0.0361 -0.2070
 8504W        W27358   1.998   1.613  14.449 -0.3046  0.1046  0.2326
 8505W        W27359   9.263   4.970   3.730  0.0950  0.1280 -0.2948
 8506W        W27360   6.404  14.664   4.867  0.1895  0.1020 -0.0124
 8507W        W27361   5.047  17.143   5.464  0.1736 -0.1853  0.0288
 8508W        W27362  16.014   8.064   1.559 -0.0666  0.1739  0.1625
 8509W        W27363   6.687  18.840  14.232 -0.1886  0.0108 -0.1077
 8510W        W27364   5.440  18.664  13.757 -0.1926 -0.3611  0.3420
 8511W        W27365   3.114  13.180   3.228 -0.0641  0.0548 -0.1097
 8512W        W27366   3.979   7.964  13.579  0.3138  0.0263 -0.4920
 8513W        W27367   5.545  12.096   0.938  0.0226 -0.0739  0.0228
 8514W        W27368  10.945   7.551  13.819  0.1000  0.2745 -0.0678
 8515W        W27369  12.717  10.571   0.950  0.0189 -0.0888 -0.3232
 8516W        W27370   9.823  18.099  11.769  0.1367 -0.4384  0.0230
 8517W        W27371  10.524  13.862   0.768  0.1329  0.3282  0.1332
 8518W        W27372  12.297   2.181  12.448  0.1049 -0.1442  0.0227
 8519W        W27373  14.839  11.321  14.906  0.2544 -0.0935 -0.1580
 8520W        W27374  10.638   8.224  14.250 -0.2543 -0.1006  0.0616
 8521W        W27375   5.273  13.973  13.621  0.1479 -0.2045 -0.0167
 8522W        W27376   2.960  13.641   2.213 -0.1844 -0.0107  0.1761
 8523W        W27377   5.260  15.377  11.467 -0.1375 -0.2493  0.0055
 8524W        W27378   8.556   3.877   0.991  0.0851  0.3313  0.2177
 8525W        W27379   8.073   9.018   4.248 -0.2335 -0.1554  0.2800
 8526W        W27380  12.000   0.532  14.981 -0.1644 -0.2243  0.2930
 8527W        W27381   3.772   8.050  14.578 -0.2278 -0.0771  0.5944
 8528W        W27382  10.912   1.237   4.111  0.2179  0.2377  0.1077
 8529W        W27383  12.869  18.846  14.134 -0.1223 -0.2778 -0.2050
 8530W        W27384  12.339   6.092   3.120  0.0636  0.1655  0.3260
 8531W        W27385  17.953  10.802  14.170 -0.1044  0.1268 -0.0176
 8532W        W27386   3.927   1.164  13.462 -0.0497  0.4781 -0.1128
 8533W        W27387   3.328   7.137  11.534  0.0461 -0.1438 -0.1783
 8534W        W27388   7.634  14.577  11.268  0.0997 -0.0424  0.0865
 8535W        W27389   1.103   9.201   3.420  0.0632  0.2321 -0.0289
 8536W        W27390   7.462   9.004  14.593 -0.2349 -0.1659  0.1312
 8537W        W27391   3.172  14.576  12.539  0.1538 -0.1010 -0.1399
 8538W        W27392   0.400  15.133  14.246  0.0129 -0.3158 -0.1345
 8539W        W27393   4.504  15.006  13.010 -0.1782  0.1591 -0.0150
 8540W        W27394  11.811  10.103  14.776 -0.0806 -0.2541  0.0186
 8541W        W27395  12.352  12.792   2.875 -0.1275 -0.2763 -0.2825
 8542W        W27396   9.771  11.195  15.086  0.1621 -0.1838  0.0503
 8543W        W27397   7.405   3.970  14.984  0.0899 -0.2153 -0.2891
 8544W        W27398   5.480  10.643   2.330  0.1005  0.2819  0.0721
 8545W        W27399   1.589   9.935  11.017 -0.0645 -0.2145  0.1136
 8546W        W27400  11.524  12.018   1.138 -0.0745 -0.4202 -0.0836
 8547W        W27401   7.971   0.353   2.553 -0.2284 -0.0391  0.0171
 8548W        W27402  18.171  17.482  15.049 -0.2012 -0.0664  0.0922
 8549W        W27403  16.275   1.744  14.559 -0.2829  0.3896  0.2645
 8550W        W27404  13.061  15.759   3.637 -0.0323 -0.0918 -0.3676
 8551W        W27405  13.922   7.802   4.348  0.3687 -0.1308  0.1084
 8552W        W27406   0.535   0.158   4.172  0.0100 -0.0397  0.0762
 8553W        W27407  14.924  14.854  11.904 -0.0019  0.1490  0.1894
 8554W        W27408   9.765   1.669   0.829  0.0912  0.0409  0.0409
 8555W        W27409   9.972   2.933   1.809  0.0276  0.1913  0.0404
 8556W        W27410   8.391  12.509   1.121 -0.1139 -0.2057 -0.1297
 8557W        W27411   2.228  14.530   1.471  0.1305 -0.2520  0.2409
 8558W        W27412  17.092  18.616  11.520  0.0215 -0.0801  0.0810
 8559W        W27413   1.706  18.111  13.598 -0.0244  0.0462  0.0296
 8560W        W27414   7.834  15.985  13.709  0.1056 -0.0674  0.0979
 8561W        W27415  13.097  12.096  14.052  0.3346 -0.2164 -0.3307
 8562W        W27416  12.957   6.786   0.203 -0.0396 -0.0033  0.0509
 8563W        W27417   1.768   9.056   3.327  0.2310 -0.1323  0.2300
 8564W        W27418   2.901   3.395   0.316  0.1802  0.0846 -0.2128
 8565W        W27419  13.106  10.736   0.618 -0.0602  0.0196  0.0477
 8566W        W27420   5.017   9.349  11.757  0.1093  0.0869 -0.0131
 8567W        W27421   4.604  14.545   3.279  0.0400  0.0330  0.0350
 8568W        W27422   4.879   2.439  14.505 -0.0547  0.2829  0.0052
 8569W        W27423   3.270  12.119  15.120 -0.2481  0.1452 -0.1870
 8570W        W27424   8.692  18.023  13.337  0.1397 -0.0218  0.3282
 8571W        W27425  15.636   4.938   2.237 -0.2782 -0.1160  0.2359
 8572W        W27426  10.842  12.078  10.887 -0.1602 -0.1082 -0.1925
 8573W        W27427  11.711   5.728  13.485 -0.0156  0.0765 -0.1124
 8574W        W27428  12.495  12.902  13.003  0.0626 -0.1058  0.1553
 8575W        W27429   5.384  15.123  12.846  0.2645  0.3094  0.1970
 8576W        W27430  12.176  18.325   0.131 -0.0715 -0.0370 -0.0216
 8577W        W27431  14.765   4.541  11.968  0.2812 -0.2283 -0.1839
 8578W        W27432   3.331  17.234  12.343 -0.1682  0.3674 -0.1178
 8579W        W27433   0.950  11.293   2.650  0.1624  0.1026  0.1985
 8580W        W27434   8.729  10.588  14.928 -0.2202 -0.1360 -0.1927
 8581W        W27435   9.855   7.469  13.366 -0.1616 -0.1885 -0.3520
 8582W        W27436  12.322   3.524  13.044 -0.0825 -0.0968  0.0383
 8583W        W27437  11.918   0.606   0.713  0.1064  0.3506 -0.1430
 8584W        W27438  10.414  15.152  10.767  0.0089  0.0558  0.2466
 8585W        W27439  18.010   9.925   4.775  0.0947 -0.0014  0.2426
 8586W        W27440   7.332   3.587   2.128  0.1499  0.1556 -0.1083
 8587W        W27441   6.667  15.982   2.688 -0.1034  0.0403 -0.1962
 8588W        W27442  17.828   2.496  13.715 -0.0703  0.4091  0.0255
 8589W        W27443   3.287  11.142  11.580  0.0577 -0.3086  0.0030
 8590W        W27444  15.110   4.321  13.204 -0.0020  0.0301  0.0806
 8591W        W27445  17.164   5.298  11.609  0.2944 -0.0586 -0.5136
 8592W        W27446   2.888   6.272   4.300  0.0976 -0.0575  0.0211
 8593W        W27447  18.316   8.210   3.411  0.2458 -0.2071 -0.3191
 8594W        W27448  15.574  15.759   1.928  0.1804  0.0204 -0.1198
 8595W        W27449  15.233   4.156   1.999  0.3349 -0.0741 -0.1034
 8596W        W27450   9.129  15.654   0.373 -0.2151  0.0355  0.1602
 8597W        W27451   0.870   8.315  11.736  0.4976  0.0927 -0.3232
 8598W        W27452   5.765  10.458   9.923 -0.2349 -0.0110  0.0749
 8599W        W27453   6.136   1.315  12.279  0.2112 -0.1563 -0.0352
 8600W        W27454   3.986  15.032   2.630  0.0250 -0.0939 -0.1196
 8601W        W27455  12.752   4.430  13.865  0.1243  0.0894  0.3638
 8602W        W27456  18.343  16.865   0.417 -0.2200 -0.3768  0.2113
 8603W        W27457   7.491  12.222   0.333  0.1724 -0.2389  0.2033
 8604W        W27458  13.341   4.901   3.213 -0.1117  0.0518 -0.1288
 8605W        W27459   2.482   9.522  14.373  0.1106  0.1061  0.1131
 8606W        W27460   3.293   9.864  14.776 -0.3393  0.3468 -0.0717
 8607W        W27461  17.024   1.014   3.311 -0.2007  0.1135  0.0396
 8608W        W27462  10.748  11.430  14.166  0.1597  0.0731 -0.0234
 8609W        W27463  17.075  18.135  10.126  0.1213  0.0338 -0.2669
 8610W        W27464  11.517  15.430   0.226 -0.0747 -0.1070  0.3094
 8611W        W27465   9.262   9.231  11.067 -0.2026 -0.1115 -0.2350
 8612W        W27466   1.546  13.468   0.155  0.0618  0.2463  0.0044
 8613W        W27467  17.851  17.900  11.296 -0.1766 -0.0944 -0.2678
 8614W        W27468   8.150  10.430   1.528 -0.0145  0.1072 -0.0047
 8615W        W27469   1.955  12.162   3.369 -0.2511 -0.1268  0.0000
 8616W        W27470  17.718   9.202   0.150 -0.2182 -0.0047  0.1842
 8617W        W27471  14.710  12.124   0.474  0.0992 -0.1468  0.0481
 8618W        W27472  16.227   2.879   0.330 -0.1381 -0.1697  0.0586
 8619W        W27473  14.237   8.389  14.234 -0.1206 -0.2099 -0.3052
 8620W        W27474  17.149   5.163   1.439  0.1181 -0.4752 -0.3748
 8621W        W27475   9.232  18.075   1.407 -0.0048 -0.2608  0.2958
 8622W        W27476  15.027   6.201   0.946 -0.0012 -0.2573 -0.1875
 8623W        W27477   5.588   7.140   2.580 -0.3783  0.3440 -0.1022
 8624W        W27478  10.516  12.299   9.886 -0.1491  0.3523  0.1548
 8625W        W27479  18.605   0.061   3.553 -0.2506 -0.1980  0.0539
 8626W        W27480   6.736  18.379  15.056 -0.2766 -0.2434 -0.0372
 8627W        W27481  11.369   1.551  11.137  0.0135 -0.1071 -0.3476
 8628W        W27482   6.197   4.294   1.731 -0.3360  0.1046  0.1014
 8629W        W27483  10.970   7.598   5.086 -0.0039  0.0675 -0.1401
 8630W        W27484  18.682  10.583   0.696  0.1312  0.3055  0.0635
 8631W        W27485   8.113   8.007  12.012 -0.1327 -0.0658 -0.1934
 8632W        W27486   6.400  17.063   9.458  0.2123  0.1644 -0.1798
 8633W        W27487   1.746  16.108  10.706 -0.2448 -0.1167 -0.0105
 8634W        W27488   1.512  13.358   1.638  0.2231 -0.0498 -0.2336
 8635W        W27489  17.503   3.355   0.345  0.1260 -0.1061 -0.1606
 8636W        W27490  13.982  11.143   3.719 -0.0091  0.1539 -0.0851
 8637W        W27491   7.876  10.182   0.911  0.0768  0.0715 -0.0783
 8638W        W27492  11.219  10.782   4.509  0.0819  0.1658 -0.0550
 8639W        W27493   8.311   0.651   3.395 -0.0314 -0.2633  0.1045
 8640W        W27494   2.839  13.838  10.463  0.0401 -0.2571 -0.0974
 8641W        W27495   9.234   1.427   1.832 -0.1469  0.1076 -0.1156
 8642W        W27496  14.014   9.013   1.046 -0.1128  0.0444  0.0426
 8643W        W27497   9.536   3.190  11.840 -0.1968 -0.0437  0.3421
 8644W        W27498  14.960   6.245   5.565 -0.0513 -0.1096 -0.0428
 8645W        W27499  10.913   1.913   1.769  0.0635  0.0833 -0.1909
 8646W        W27500  18.762  15.869  15.007  0.1430 -0.0913 -0.0329
 8647W        W27501  18.524   1.247   3.342  0.0091 -0.3680 -0.2377
 8648W        W27502  16.528  16.155   0.939  0.1390 -0.1245  0.2267
 8649W        W27503  17.205  11.812  13.650  0.1143  0.1697  0.3423
 8650W        W27504   3.185  11.576   1.970 -0.1715 -0.1074 -0.1491
 8651W        W27505  12.466  15.887  12.712 -0.2979  0.0394 -0.0728
 8652W        W27506   3.399  16.497   1.032  0.2076  0.0282 -0.1686
 8653W        W27507  11.203  13.662  13.526  0.0236 -0.0037  0.1650
 8654W        W27508   9.375  17.354  12.257  0.1129  0.0767 -0.0298
 8655W        W27509  14.543   5.267  10.880  0.1244 -0.3519 -0.0602
 8656W        W27510  16.803   7.190  13.097 -0.0534  0.0341  0.0036
 8657W        W27511  13.824   1.189  13.856 -0.1989  0.0273  0.0025
 8658W        W27512   2.885   2.395   3.453 -0.0268 -0.1507  0.2785
 8659W        W27513   7.147  18.304  13.699 -0.0751 -0.0613  0.1461
 8660W        W27514   8.968   6.338  11.458  0.4031  0.0772 -0.2655
 8661W        W27515  15.547  16.279   1.139  0.2629 -0.1682 -0.1336
 8662W        W27516   4.908  11.369  14.977 -0.3335  0.1829 -0.0835
 8663W        W27517  11.522  13.364   0.812  0.0731 -0.0020 -0.2681
 8664W        W27518   8.960  16.518   3.623  0.0105  0.1809 -0.1145
 8665W        W27519   2.521   0.143   1.809 -0.2376  0.1960  0.2189
 8666W        W27520  10.422   2.742  13.051 -0.2535  0.2887 -0.0354
 8667W        W27521   9.798  16.137   3.896  0.0244  0.0537  0.2525
 8668W        W27522  12.349  10.757  14.092  0.4482  0.1543  0.0932
 8669W        W27523  11.360   6.711   2.845  0.3696  0.5130  0.1061
 8670W        W27524  12.030  15.694  12.311 -0.3292 -0.1793 -0.1541
 8671W        W27525   7.936   7.985  13.708  0.2959 -0.0000 -0.0267
 8672W        W27526   4.363   4.822  12.531  0.0463 -0.0243  0.0946
 8673W        W27527  17.294  17.882  11.970 -0.1994  0.0790  0.4498
 8674W        W27528   0.373   1.480   0.479  0.2918  0.1878 -0.0430
 8675W        W27529  17.509  13.105   1.117 -0.0944  0.1170  0.1720
 8676W        W27530   6.020   7.734   0.214 -0.1529  0.0915  0.2114
 8677W        W27531  17.677  15.977   1.686 -0.1407  0.1656 -0.4279
 8678W        W27532  18.642   8.880  14.891  0.3464 -0.1644 -0.0745
 8679W        W27533  18.655   2.672  10.760 -0.1146 -0.0824  0.2862
 8680W        W27534   7.315   2.855   0.594  0.1334 -0.0835  0.2635
 8681W        W27535   6.823  16.129   0.856  0.1812  0.1941 -0.1025
 8682W        W27536   0.278  11.013  12.730  0.1061  0.2292  0.1476
 8683W        W27537   8.823   8.281   0.316 -0.0255 -0.0383 -0.0394
 8684W        W27538   9.954   2.615   0.650 -0.0872  0.1428 -0.3985
 8685W        W27539  14.376  11.475  14.702  0.2522 -0.0354  0.1095
 8686W        W27540   6.430   6.099  11.745  0.1779 -0.0619 -0.0472
 8687W        W27541   3.566   7.084   3.743 -0.0484 -0.2766  0.1443
 8688W        W27542   8.294   6.461   2.407  0.3811 -0.0690 -0.0160
 8689W        W27543  14.171   4.882   5.044  0.0395 -0.5181  0.0362
 8690W        W27544  11.533  17.384   2.888 -0.2097 -0.4194 -0.2377
 8691W        W27545  15.126   1.988   2.968 -0.0795 -0.0886 -0.0303
 8692W        W27546   0.257   5.894   3.701 -0.0078  0.1171  0.1940
 8693W        W27547   7.867   8.307   1.272 -0.2571 -0.2063  0.1533
 8694W        W27548  14.728  10.132  14.707 -0.1546 -0.0229 -0.1069
 8695W        W27549   0.398   3.292  11.602 -0.2583 -0.0452 -0.1271
 8696W        W27550   0.732   2.973  11.895 -0.0302 -0.1476  0.0639
 8697W        W27551   6.771   9.327   1.832  0.0144 -0.2040  0.3778
 8698W        W27552   7.409   1.899   3.289  0.1812  0.1101 -0.0319
 8699W        W27553  18.286   9.999  10.183 -0.5980  0.0310  0.2314
 8700W        W27554  18.603   9.653   9.921  0.2333  0.2760 -0.0149
 8701W        W27555  12.576  12.949  10.161  0.0545  0.0716 -0.1516
 8702W        W27556   6.121  12.299  13.034 -0.0691  0.2056  0.1077
 8703W        W27557  18.386   8.725   1.695  0.1688  0.1278 -0.1545
 8704W        W27558  11.113  10.083   1.817  0.2495  0.0020 -0.0519
 8705W        W27559   2.273  15.875   3.012  0.1145  0.1326 -0.2399
 8706W        W27560   8.824  16.757   3.050 -0.2523  0.0758  0.0766
 8707W        W27561   0.618  11.089   2.196 -0.0153  0.3537  0.0759
 8708W        W27562   9.266  18.282  12.398 -0.1215 -0.0968  0.0093
 8709W        W27563  14.348  11.575  11.497  0.0600  0.1142 -0.0961
 8710W        W27564   3.190   3.761  12.741 -0.0912 -0.0917 -0.2693
 8711W        W27565  14.569   5.907  14.343  0.2079 -0.0513  0.0121
 8712W        W27566   7.549   2.778  11.380 -0.1033  0.0162  0.0358
 8713W        W27567   4.081  17.902   1.041 -0.2229  0.2582 -0.1501
 8714W        W27568   9.694  12.234  13.922 -0.3299 -0.0688 -0.1577
 8715W        W27569  12.795   8.201  12.841  0.0898 -0.0619 -0.1680
 8716W        W27570   9.979  17.146  10.149  0.0563  0.3038 -0.0681
 8717W        W27571  11.423  13.646   3.082 -0.0429 -0.0044  0.1159
 8718W        W27572   1.961  12.206   2.325  0.2171 -0.1426 -0.2984
 8719W        W27573   5.022   3.357   4.998 -0.4415  0.0967  0.1761
 8720W        W27574  10.150   8.418  10.766 -0.2565 -0.0943  0.0283
 8721W        W27575   7.370  12.201   0.858  0.0987 -0.0199  0.0618
 8722W        W27576   9.769  11.564   2.463  0.1353  0.1608  0.0619
 8723W        W27577   3.389   2.733   4.706 -0.2104  0.2472 -0.1659
 8724W        W27578  18.182  18.616  11.554  0.2479  0.0251  0.1038
 8725W        W27579   4.143  14.160  10.819 -0.1223 -0.1765  0.1987
 8726W        W27580   7.964   6.439  13.494 -0.0213 -0.2090  0.2585
 8727W        W27581   5.888   7.173  14.575 -0.1382 -0.0866 -0.1938
 8728W        W27582  17.025   5.089   0.063  0.3433  0.0192 -0.0490
 8729W        W27583   0.663   1.195  12.376  0.2058  0.0400 -0.0989
 8730W        W27584  16.749  10.198  14.541  0.0073  0.1935 -0.0233
 8731W        W27585   3.328   1.204   1.210  0.2659  0.1060 -0.1471
 8732W        W27586   9.095   5.129   2.846  0.0291 -0.1296 -0.0819
 8733W        W27587  13.511  12.270   1.391  0.3734  0.3556 -0.0534
 8734W        W27588   0.637   9.164  11.705  0.1453  0.0787 -0.0415
 8735W        W27589   3.090   7.297   0.872 -0.3806 -0.4433  0.1128
 8736W        W27590  16.125   4.319   2.618 -0.1648 -0.1200 -0.4153
 8737W        W27591   3.772  18.416   4.055 -0.3342 -0.0445 -0.3692
 8738W        W27592  10.493  13.475  11.662  0.0946 -0.0818  0.0151
 8739W        W27593   1.508  14.199  13.324  0.1719  0.1082 -0.4032
 8740W        W27594   7.961   8.294  14.216 -0.2523 -0.1331  0.0377
 8741W        W27595  15.339   7.826   4.584  0.1820  0.2090  0.1043
 8742W        W27596   1.381   9.358   2.531  0.0036  0.1260 -0.0677
 8743W        W27597  12.896   7.683  13.625  0.0126  0.3061  0.0644
 8744W        W27598   5.570  12.962   2.707  0.1262  0.0298  0.0263
 8745W        W27599  17.081   9.074  10.624  0.1275 -0.1145  0.0662
 8746W        W27600  18.499   4.862  14.359  0.1905  0.0106 -0.0242
 8747W        W27601  16.121  15.048  12.071 -0.2827 -0.0868 -0.1958
 8748W        W27602   2.013  17.885  12.273 -0.2816  0.0755 -0.3667
 8749W        W27603   1.227   5.973  10.761  0.2276 -0.1757 -0.3624
 8750W        W27604   9.415   3.113  14.831 -0.1387  0.5027  0.1101
 8751W        W27605  18.552   6.372   2.187 -0.1430 -0.0797 -0.1357
 8752W        W27606  17.294   5.340  14.891  0.2054 -0.0527 -0.0091
 8753W        W27607   3.492  11.359  13.564 -0.1290 -0.0454 -0.1719
 8754W        W27608  14.575   3.321   0.388 -0.0848  0.2515 -0.0432
 8755W        W27609  10.651   0.189   1.877 -0.4078  0.0164  0.0089
 8756W        W27610  10.315  13.872   3.661  0.0613 -0.0716  0.1329
 8757W        W27611   8.880  12.204  13.772  0.1464  0.1433 -0.0375
 8758W        W27612   6.783  16.654  14.332  0.0509  0.2550  0.3861
 8759W        W27613   7.345  11.440  10.908 -0.2082  0.0726  0.0006
 8760W        W27614   3.398  12.510  14.872 -0.1149  0.1256  0.1168
 8761W        W27615   3.760   3.847   2.746 -0.2525 -0.1611  0.1917
 8762W        W27616  11.002   0.162   0.196  0.0235 -0.0528  0.0162
 8763W        W27617  10.953   5.651   2.886 -0.1182 -0.0548  0.1808
 8764W        W27618  14.402   8.308   2.371 -0.1409 -0.0184 -0.1671
 8765W        W27619   5.414   6.197   0.725  0.3030 -0.1030 -0.0069
 8766W        W27620   3.927  11.369  12.184  0.2178 -0.0719  0.1923
 8767W        W27621  18.343  12.628   0.169 -0.0075  0.0302 -0.2367
 8768W        W27622   0.936   4.690  11.111  0.0623 -0.0422  0.0263
 8769W        W27623  10.202   9.456   0.367  0.4700  0.1400 -0.0040
 8770W        W27624   6.392  16.673   0.345 -0.0801 -0.0836 -0.0992
 8771W        W27625   4.213   0.535   0.509 -0.1546 -0.2596  0.0136
 8772W        W27626  16.493   7.622   3.164 -0.2246 -0.0829 -0.1589
 8773W        W27627  12.768   7.888  14.563 -0.0200  0.0482  0.1841
 8774W        W27628  11.438  16.483   2.668  0.0997  0.3427  0.2759
 8775W        W27629   5.051   3.473   1.853  0.0040  0.3156  0.0854
 8776W        W27630   1.364  12.651  12.706 -0.0424  0.2316  0.0537
 8777W        W27631   2.253   7.119  13.395  0.1348  0.2700  0.0772
 8778W        W27632   2.083   1.640   4.168  0.0075 -0.0736  0.2276
 8779W        W27633  15.252   7.106   0.994 -0.2976  0.0480 -0.0620
 8780W        W27634  16.078  14.621   3.042  0.2661  0.0190 -0.1981
 8781W        W27635   1.307   3.426   3.148  0.0444  0.1261  0.1315
 8782W        W27636  16.317   7.961  14.701 -0.2007  0.4443 -0.0311
 8783W        W27637  17.595  18.252  14.979 -0.0490 -0.0217  0.0312
 8784W        W27638   8.560  10.238  13.965 -0.0386 -0.1623  0.1378
 8785W        W27639   1.851   2.126  11.981 -0.0633 -0.0292  0.0041
 8786W        W27640  13.544  16.714  12.462 -0.1897 -0.1573  0.0094
 8787W        W27641   0.311  12.894   2.449 -0.0420 -0.2376 -0.0230
 8788W        W27642   4.933   4.030  10.975  0.1213 -0.1233 -0.0090
 8789W        W27643  17.690   7.036   0.471 -0.1047  0.0585 -0.0220
 8790W        W27644   8.893   4.704   2.580  0.4191  0.0739  0.0575
 8791W        W27645   7.311  17.701  11.844 -0.2283  0.0039 -0.2983
 8792W        W27646   8.381  15.596   4.472 -0.0687 -0.0685 -0.3436
 8793W        W27647   9.360   1.383   0.817  0.0001  0.1620 -0.2852
 8794W        W27648  14.921  18.209  14.212 -0.1704 -0.0330  0.0978
 8795W        W27649  13.482   7.325  14.828  0.0317 -0.0490 -0.0490
 8796W        W27650  16.220  15.801   2.439 -0.0999  0.0884  0.0712
 8797W        W27651  11.941   2.877   2.384 -0.1368 -0.0214  0.1856
 8798W        W27652  15.638  12.311  12.428 -0.0538  0.1365  0.0249
 8799W        W27653  16.334  15.167   4.381 -0.1278 -0.0594 -0.2239
 8800W        W27654   3.169   7.333   0.254  0.2022 -0.0798 -0.1649
 8801W        W27655   7.675  18.373   0.015 -0.2475 -0.1226  0.0032
 8802W        W27656  17.091   5.605   1.330  0.1866  0.0090  0.2564
 8803W        W27657  13.132   8.361   3.038  0.0835  0.0851 -0.0979
 8804W        W27658   6.857   0.979  14.233  0.0052 -0.0012  0.2126
 8805W        W27659   7.785   6.158  12.945 -0.0851 -0.0733 -0.1695
 8806W        W27660   0.889  14.018  13.755 -0.0338  0.0510  0.3518
 8807W        W27661  11.838  12.617   1.175 -0.0343 -0.1729 -0.0101
 8808W        W27662   8.846   7.924  11.144 -0.0364 -0.0900 -0.0992
 8809W        W27663  16.727   1.069  12.497  0.0520 -0.0992 -0.1119
 8810W        W27664   3.684  16.773   0.315  0.2042 -0.0544 -0.0545
 8811W        W27665   0.612  13.587   3.175 -0.1886 -0.0665  0.2626
 8812W        W27666   4.250  16.490  13.855 -0.1743  0.2149  0.1938
 8813W        W27667   6.840   6.653  13.477  0.0812  0.0644 -0.0587
 8814W        W27668   5.945  12.308  10.940  0.0709 -0.1409 -0.1115
 8815W        W27669  13.628  17.864  11.760  0.2315 -0.0266 -0.0874
 8816W        W27670  16.048  16.918   2.644 -0.0992 -0.0793 -0.2853
 8817W        W27671  12.038  10.147   0.716  0.0165  0.3160 -0.3027
 8818W        W27672   4.162  13.402   0.669 -0.2445  0.1991 -0.1332
 8819W        W27673   5.603  14.727   2.592 -0.2161 -0.0217  0.0708
 8820W        W27674  11.368   3.989  14.531  0.2383  0.0637  0.0908
 8821W        W27675  17.137  12.819   2.241 -0.0819 -0.0106 -0.0445
 8822W        W27676  17.412  16.186   2.463 -0.2220  0.0579  0.0346
 8823W        W27677  15.448  10.361   0.944 -0.0914 -0.1017  0.3764
 8824W        W27678   3.373  13.788  10.950  0.1318  0.3523  0.1556
 8825W        W27679   5.884  11.934  11.505 -0.3357  0.3680  0.0246
 8826W        W27680   0.138  16.594  11.203 -0.0593  0.1684  0.0395
 8827W        W27681  13.178  18.438  13.807 -0.1230 -0.2724 -0.2600
 8828W        W27682  12.218  15.220  12.179  0.1952 -0.1848 -0.0417
 8829W        W27683   6.563   6.725   2.959 -0.0267 -0.0365 -0.3867
 8830W        W27684   9.960  13.216  11.649 -0.0420  0.1494  0.2422
 8831W        W27685   6.305   8.365  13.606 -0.3149 -0.1944 -0.1544
 8832W        W27686   9.319   0.448  12.013 -0.0480  0.1444  0.2338
 8833W        W27687   0.062   3.036  11.010  0.4413  0.0485 -0.1763
 8834W        W27688  14.406   7.150  14.911 -0.1942  0.0982  0.0449
 8835W        W27689  14.669  15.776   0.012 -0.2414  0.1569 -0.2659
 8836W        W27690  11.372   9.278  11.238 -0.0223  0.0301  0.1716
 8837W        W27691   6.575  16.935   0.914  0.2556 -0.1525 -0.3254
 8838W        W27692  13.583  13.722  12.608  0.0664 -0.2923  0.1710
 8839W        W27693   5.555  18.155  13.316  0.0575  0.1896  0.0631
 8840W        W27694   0.038   3.984   2.536 -0.0221  0.3459  0.2090
 8841W        W27695  10.376   1.425   3.994 -0.3059 -0.0568  0.0611
 8842W        W27696  13.717   4.579   0.027  0.0227  0.1946  0.0129
 8843W        W27697  12.336   2.850  14.872  0.1554 -0.0396 -0.2625
 8844W        W27698   7.069   8.332   2.181 -0.2789  0.1260  0.2329
 8845W        W27699  17.068  17.947   4.116 -0.2160 -0.1234 -0.1263
 8846W        W27700   9.933   7.960   1.109 -0.2235 -0.0686 -0.0443
 8847W        W27701   0.871  13.013  15.106 -0.0497  0.1772 -0.0462
 8848W        W27702  16.853   1.352  11.645 -0.3221  0.0920 -0.1895
 8849W        W27703  17.865   3.614   2.917 -0.0335 -0.0701 -0.1256
 8850W        W27704   5.700   5.099   3.778 -0.1244 -0.0795 -0.0229
 8851W        W27705  15.320   5.383  11.497  0.1967  0.0865  0.3481
 8852W        W27706   2.617   6.035  12.019  0.1488 -0.1894 -0.1974
 8853W        W27707  10.064  17.416  10.593  0.0376  0.1561 -0.0422
 8854W        W27708  11.169  14.528  13.223 -0.2379  0.0526 -0.0130
 8855W        W27709   8.514   5.392   4.694 -0.3480  0.4131 -0.3219
 8856W        W27710  11.329   6.579   3.328 -0.0196 -0.2002 -0.1306
 8857W        W27711   5.603  10.241   0.732  0.2477 -0.1067 -0.0102
 8858W        W27712  17.517   1.359   2.595 -0.1841 -0.1124 -0.1614
 8859W        W27713  14.713   9.171  11.856 -0.0907  0.1200  0.1036
 8860W        W27714   5.557  16.012   2.998  0.1045  0.0502  0.0907
 8861W        W27715   0.858   2.185  13.101  0.3392  0.1595  0.0356
 8862W        W27716  11.486  13.080   1.278  0.1479 -0.0631  0.2659
 8863W        W27717  14.991   5.031  13.310 -0.2235  0.4042 -0.1409
 8864W        W27718  14.329   4.142   1.947  0.1610 -0.0837  0.0142
 8865W        W27719   3.873  17.847  11.989 -0.3174 -0.0356  0.0198
 8866W        W27720   7.507  16.389   1.894  0.0729 -0.0279 -0.0247
 8867W        W27721   9.624  11.234   1.674  0.3594 -0.0046 -0.1786
 8868W        W27722   7.650   1.972  14.292  0.1974  0.2111 -0.0271
 8869W        W27723  16.980  16.175   5.706 -0.1136 -0.1763  0.1961
 8870W        W27724  14.400  13.750  13.789 -0.0681 -0.1088  0.0722
 8871W        W27725   9.955   6.593   4.591  0.0382  0.2445 -0.0775
 8872W        W27726   0.400  10.563  11.278 -0.1567 -0.0009 -0.3353
 8873W        W27727   8.864   1.613  11.445 -0.2241  0.1226 -0.1274
 8874W        W27728  18.515  11.138  13.291  0.2043 -0.1805 -0.0581
 8875W        W27729  18.565   7.470   2.071  0.1030  0.1921 -0.1109
 8876W        W27730   7.431  16.301   2.482 -0.1935 -0.2008  0.3100
 8877W        W27731  14.661  15.443  12.265 -0.2119  0.0318  0.1543
 8878W        W27732  11.605  11.123  11.395 -0.1035  0.4342 -0.2269
 8879W        W27733  15.441  14.625   1.872 -0.2975 -0.0023 -0.0104
 8880W        W27734   9.452  11.003   4.052 -0.1310  0.0194 -0.0941
 8881W        W27735   1.412   5.655  14.242  0.2069 -0.2756 -0.0224
 8882W        W27736   8.108   7.627   4.531  0.3422  0.0350  0.2046
 8883W        W27737  16.345  10.632  13.375  0.0342  0.1530  0.1600
 8884W        W27738   4.749  11.374   1.367  0.2024 -0.0763  0.1957
 8885W        W27739   9.316   5.964   3.114 -0.1494  0.2830 -0.0090
 8886W        W27740  11.302   9.439  14.573  0.1555 -0.0774 -0.2785
 8887W        W27741   7.446   4.860  14.589  0.2365  0.1643  0.1449
 8888W        W27742  14.026   8.771   1.729 -0.2815 -0.0807 -0.1968
 8889W        W27743  14.101  18.600  10.946  0.1130  0.0526  0.0081
 8890W        W27744   9.919   7.853   5.403 -0.0431 -0.1251 -0.0402
 8891W        W27745   4.590  13.141   2.804 -0.2571  0.1573  0.0496
 8892W        W27746  15.250  10.630   9.873 -0.1067  0.2709  0.2471
 8893W        W27747   6.583   9.836   1.224  0.1584 -0.0169  0.0338
 8894W        W27748   7.249   1.394  15.119  0.3951 -0.1260 -0.0602
 8895W        W27749  15.516   2.343   1.166 -0.1297  0.0157 -0.1595
 8896W        W27750  14.714   7.127  13.563  0.4119 -0.1686 -0.2045
 8897W        W27751   3.578   0.366  11.132  0.1930  0.0501 -0.0626
 8898W        W27752  16.024   0.806  11.463 -0.1129  0.1184  0.3450
 8899W        W27753   0.007   0.882   2.982 -0.1792  0.0491  0.0005
 8900W        W27754   5.966  10.024   4.043  0.0663  0.1443  0.0083
 8901W        W27755   4.884  16.526   0.956 -0.1125 -0.2396  0.0765
 8902W        W27756   5.379   0.598   4.740 -0.0306 -0.0389 -0.0654
 8903W        W27757  17.495   4.337   4.921 -0.2721 -0.2799  0.3378
 8904W        W27758   5.331  12.263   0.565  0.1099 -0.2261 -0.0205
 8905W        W27759  14.353   1.208  11.603  0.1483 -0.2836  0.4353
 8906W        W27760   8.908   4.784   5.438  0.2988 -0.2028 -0.2473
 8907W        W27761   5.003  18.381  12.128  0.1699 -0.0907  0.1245
 8908W        W27762  10.812  12.630   1.569 -0.1983 -0.2631  0.0618
 8909W        W27763   3.395   5.205   2.866 -0.1115 -0.3919 -0.2600
 8910W        W27764   7.812  16.945  13.066 -0.1150 -0.0780  0.0384
 8911W        W27765   3.767   9.136  10.747  0.0521  0.1359 -0.0697
 8912W        W27766   1.242   8.926  14.919  0.1802 -0.0525 -0.0670
 8913W        W27767  10.351   0.579  14.722  0.1460 -0.1444 -0.2780
 8914W        W27768  15.202   1.129  13.455 -0.0699  0.0295 -0.0710
 8915W        W27769  18.529   9.188   5.025 -0.2782  0.4728  0.0679
 8916W        W27770   4.245  12.431  13.967  0.1919  0.0134 -0.2988
 8917W        W27771  12.314   4.300   1.058 -0.2640  0.0948 -0.0690
 8918W        W27772  13.827  11.593   3.330 -0.0346  0.0481  0.1311
 8919W        W27773   3.496   3.693  14.089  0.1958  0.2252  0.1659
 8920W        W27774   6.450  15.764   4.052  0.0365 -0.0949  0.2569
 8921W        W27775  14.389   0.299  13.485  0.1066 -0.1513  0.2860
 8922W        W27776   1.084  17.532  13.887 -0.0649 -0.0932 -0.2206
 8923W        W27777  15.474   0.133   2.926 -0.0296 -0.1050  0.0916
 8924W        W27778   8.574   3.722  11.950 -0.1972 -0.1247 -0.1532
 8925W        W27779  15.679   1.316  14.391 -0.0002  0.0750  0.3943
 8926W        W27780  14.962   2.061  11.864  0.0999  0.2498  0.1779
 8927W        W27781  14.712   7.108  14.085 -0.0579 -0.0243  0.0519
 8928W        W27782   4.257  14.697  13.395  0.0651 -0.2648 -0.1549
 8929W        W27783   8.984   5.615   2.954 -0.1127 -0.1594 -0.0890
 8930W        W27784   7.857   6.578   2.920  0.0293 -0.1670  0.0202
 8931W        W27785  13.456   6.961   0.109 -0.1203  0.1166 -0.3534
 8932W        W27786   0.719   2.031  14.298  0.3012  0.0817  0.0859
 8933W        W27787   2.628  10.373  14.951 -0.2870  0.0736 -0.2859
 8934W        W27788   8.144  15.963   0.080 -0.1451  0.0928 -0.2227
 8935W        W27789   9.796  16.196   0.398  0.0634 -0.1552  0.2154
 8936W        W27790  14.388  17.890  11.058  0.0750  0.0891  0.0386
 8937W        W27791  14.804   9.133   2.097  0.0724  0.1607 -0.2949
 8938W        W27792   6.128  15.301   3.964  0.0166 -0.0989 -0.0448
 8939W        W27793  12.240   3.616   0.316  0.1205  0.0269 -0.0342
 8940W        W27794   1.431   3.610  13.171 -0.1857 -0.1252 -0.0031
 8941W        W27795   5.711  10.400   0.189  0.0639 -0.3865 -0.1290
 8942W        W27796  18.795   0.682   1.746  0.0442  0.0081 -0.0285
 8943W        W27797  10.008   5.776  11.938 -0.0248  0.0628  0.0317
 8944W        W27798  10.573   7.970  12.552 -0.1936  0.3073  0.0905
 8945W        W27799  12.899   8.319   2.152  0.1711 -0.1398 -0.0062
 8946W        W27800   7.891  15.288  11.979 -0.1264  0.0547  0.1847
 8947W        W27801  13.590   6.944   0.960  0.1509  0.0421 -0.3332
 8948W        W27802   6.528  15.299   3.452  0.2268  0.2981 -0.0528
 8949W        W27803   9.168  11.081   0.885 -0.0455 -0.1302 -0.1868
 8950W        W27804  14.502  18.153   2.652  0.3641 -0.1167 -0.0973
 8951W        W27805  17.663   8.929  13.904 -0.1494  0.1194 -0.0726
 8952W        W27806  17.571   7.331  14.027 -0.2708 -0.2366 -0.1753
 8953W        W27807   0.558   0.925  14.278 -0.0498  0.2266 -0.1644
 8954W        W27808   1.825  11.205  14.625  0.2123  0.1558  0.1366
 8955W        W27809   8.446   1.534   0.799 -0.3367  0.2231 -0.0520
 8956W        W27810  15.225   9.016  15.055  0.1986 -0.2635 -0.0951
 8957W        W27811   3.985  13.411   2.102  0.0601  0.2015 -0.0952
 8958W        W27812   7.141   4.461   2.108  0.4784 -0.0629 -0.1159
 8959W        W27813  13.905  14.096  12.350  0.0939 -0.1213 -0.1031
 8960W        W27814  11.341  14.540   2.507 -0.1913  0.1838  0.3067
 8961W        W27815   0.606  15.563  13.977  0.0991 -0.0786  0.0307
 8962W        W27816  16.346  16.562   1.266 -0.1234 -0.1231  0.0959
 8963W        W27817   8.623   5.690   0.624 -0.1042  0.3344 -0.1682
 8964W        W27818  17.870  17.509   4.126 -0.5342  0.0054  0.1368
 8965W        W27819   4.943   5.860  14.627 -0.4213 -0.2583 -0.1327
 8966W        W27820   1.356   9.411  14.019  0.1534 -0.1549 -0.0683
 8967W        W27821   0.430  15.826   1.470 -0.0961 -0.0404  0.1538
 8968W        W27822   6.241   0.738  13.148 -0.0695 -0.0811 -0.1066
 8969W        W27823  17.296   6.473   2.239 -0.2555 -0.0790 -0.1488
 8970W        W27824   9.634   4.920  11.116 -0.0224 -0.0159  0.3140
 8971W        W27825  13.972   9.388   3.568  0.0851  0.2582  0.0514
 8972W        W27826   5.024   1.159   1.021  0.1862  0.3872 -0.1017
 8973W        W27827  11.311   5.753  14.352 -0.2544 -0.0882  0.1820
 8974W        W27828  17.885  10.977   3.183  0.0327 -0.1854 -0.1803
 8975W        W27829   5.827  15.212  12.262  0.3987  0.3574  0.2108
 8976W        W27830  11.714  16.223   4.102  0.0849 -0.2038  0.0079
 8977W        W27831  14.714   4.349  11.119 -0.0737  0.0175 -0.1179
 8978W        W27832   8.980  17.635  12.112  0.0038  0.1775  0.0765
 8979W        W27833  10.766  12.458   3.805  0.5429 -0.0041  0.2170
 8980W        W27834   8.981  17.051   3.654 -0.2964  0.3839  0.1629
 8981W        W27835  12.175   7.622  10.793  0.0026 -0.0244 -0.2395
 8982W        W27836   1.926  13.639  10.398  0.0771  0.1689  0.0817
 8983W        W27837   2.660  15.881  11.592  0.1613 -0.0765 -0.0653
 8984W        W27838   6.983   7.815  11.432 -0.3067 -0.0448 -0.2890
 8985W        W27839   9.985   9.171  11.405  0.1294 -0.1235 -0.1204
 8986W        W27840  14.121  14.662   1.353 -0.3395  0.3278  0.0457
 8987W        W27841  10.603   5.051   4.555 -0.3089 -0.1354 -0.1775
 8988W        W27842   7.315   2.092  11.262 -0.1852  0.2498 -0.0939
 8989W        W27843   8.857  11.698   1.671  0.0043 -0.3467  0.0428
 8990W        W27844  17.827   6.262   1.024 -0.2187 -0.1466 -0.3205
 8991W        W27845  13.735   2.552  11.891  0.0452 -0.1765 -0.2635
 8992W        W27846   3.829   4.940   2.028 -0.5086  0.0950  0.3002
 8993W        W27847  17.284  10.523   2.520 -0.0407  0.2109  0.0417
 8994W        W27848   8.278   7.896   1.117 -0.0929  0.1290  0.0558
 8995W        W27849   2.500  11.772  10.664  0.1827 -0.0038 -0.0005
 8996W        W27850  10.661   1.088  14.682 -0.2801  0.0765 -0.0293
 8997W        W27851  11.888  14.129  12.254 -0.1081 -0.0196  0.0152
 8998W        W27852  12.938   6.444  11.807  0.1207 -0.0814  0.0679
 8999W        W27853  15.326  16.195   2.847  0.2148 -0.1347 -0.2106
 9000W        W27854  11.561  13.584  10.898 -0.0081  0.0611  0.3334
 9001W        W27855  11.772   4.476  10.416 -0.1206 -0.0784 -0.0437
 9002W        W27856   3.278  16.026   3.091  0.0667  0.1741 -0.2008
 9003W        W27857  11.154   3.653  11.203  0.1252  0.0046 -0.2975
 9004W        W27858  16.202  12.056   0.151 -0.0749 -0.2663 -0.0674
 9005W        W27859  14.531  16.515   1.967 -0.0010 -0.0604 -0.0233
 9006W        W27860  14.411   2.506   3.194  0.0303 -0.2598  0.0095
 9007W        W27861  18.134   7.220   0.849 -0.2197  0.3506  0.1297
 9008W        W27862  11.669   6.426  10.721  0.1332  0.2801  0.1180
 9009W        W27863   5.546  16.972  14.114 -0.0053 -0.0950 -0.2384
 9010W        W27864   4.110  15.543   2.669  0.1493  0.0813  0.1034
 9011W        W27865   5.232   7.294   1.142  0.1175 -0.0500 -0.1898
 9012W        W27866   1.919  15.445   3.751 -0.3303 -0.0175 -0.0098
 9013W        W27867   4.572  13.435  11.106  0.1197 -0.0991 -0.2756
 9014W        W27868   1.585   1.003   4.723 -0.1540  0.1660  0.0095
 9015W        W27869  17.379  17.756   1.166 -0.1053  0.1113 -0.1436
 9016W        W27870   2.154   6.101   1.202 -0.1634 -0.0990 -0.2858
 9017W        W27871   9.182   2.809  11.854  0.0398 -0.0025 -0.0498
 9018W        W27872   0.711  15.330   0.467  0.3941  0.1103  0.0313
 9019W        W27873   5.063   7.340  12.509  0.0878  0.2476  0.0322
 9020W        W27874  15.186  15.339  13.286 -0.2182 -0.0438 -0.1926
 9021W        W27875   9.155  14.888  14.417 -0.2145 -0.5764  0.2287
 9022W        W27876  12.323   4.900   4.795 -0.0057  0.0623  0.2920
 9023W        W27877  14.550  13.049   0.260 -0.1557 -0.0784 -0.0311
 9024W        W27878   4.417  18.110   1.685  0.1351 -0.1079  0.1090
 9025W        W27879  13.850   2.036   4.320  0.0581 -0.1153 -0.1673
 9026W        W27880   0.390  14.857   3.115  0.1096 -0.0761  0.1088
 9027W        W27881   2.545  11.014   1.076  0.1071  0.0013  0.0268
 9028W        W27882   6.569  11.190  11.055  0.1885 -0.3390  0.1016
 9029W        W27883  15.557  11.781   0.051 -0.2914 -0.1060 -0.1548
 9030W        W27884   5.328   5.892  10.975  0.2715  0.0109 -0.1610
 9031W        W27885   3.907   5.031   0.749  0.0857 -0.0993 -0.1828
 9032W        W27886  16.464  12.170  12.758 -0.1075 -0.1390  0.0505
 9033W        W27887  17.740  18.710  11.829 -0.0011  0.0411 -0.2283
 9034W        W27888   8.882  17.662   3.469 -0.0467  0.1330  0.1171
 9035W        W27889   6.802  16.151  12.308  0.0384  0.1678  0.0269
 9036W        W27890  14.297  18.223  14.052 -0.0846 -0.2404  0.2029
 9037W        W27891   2.280  15.677   1.068 -0.3039 -0.1267 -0.0598
 9038W        W27892  16.536   2.164   0.238  0.1039 -0.0693 -0.2730
 9039W        W27893   2.782  16.926   4.074  0.3773 -0.1529 -0.1437
 9040W        W27894  10.396   7.433  12.764  0.0472  0.0922 -0.2196
 9041W        W27895  11.441   5.990   1.753 -0.0116 -0.0106  0.0679
 9042W        W27896  12.255   9.015  12.998 -0.0670 -0.0062  0.0203
 9043W        W27897   2.350   3.705  11.782 -0.0180 -0.1885 -0.2339
 9044W        W27898  16.471   3.590  12.202  0.1823 -0.0562  0.3251
 9045W        W27899  13.678  15.920   1.723  0.0807  0.3977  0.0936
 9046W        W27900   1.044   9.258  14.551  0.2974 -0.0360  0.0145
 9047W        W27901  16.189   6.583  11.517  0.0529 -0.0830 -0.1800
 9048W        W27902  15.678  13.835   9.845 -0.1194  0.2930 -0.2554
 9049W        W27903  17.025   5.674  13.583  0.1202 -0.0222 -0.2026
 9050W        W27904   2.813  18.143  14.923 -0.0874 -0.0745 -0.0818
 9051W        W27905   0.573   5.659   1.085  0.1106  0.1929  0.0046
 9052W        W27906   8.033  18.100  11.916  0.4375 -0.1562  0.1924
 9053W        W27907  10.830  16.870   2.250  0.2614  0.3739 -0.0630
 9054W        W27908  15.142   8.261   2.234 -0.0105 -0.1046  0.2159
 9055W        W27909  14.312   4.735  12.141 -0.0207 -0.0022 -0.2551
 9056W        W27910   5.119  18.619  11.668 -0.1694 -0.0423 -0.0406
 9057W        W27911   1.857  15.355  11.529  0.0102  0.0722 -0.0214
 9058W        W27912   1.860   2.402   2.993 -0.0290 -0.0817  0.1692
 9059W        W27913  13.821   7.745  12.656  0.1751 -0.1512 -0.0334
 9060W        W27914   6.028   8.150   2.129  0.1550 -0.1553  0.0384
 9061W        W27915  11.785  17.665  14.216  0.2371  0.0460 -0.1143
 9062W        W27916  14.726  17.113  11.891  0.0089 -0.0201 -0.2821
 9063W        W27917  17.140   5.429  14.022  0.0625 -0.0229  0.0561
 9064W        W27918   2.982  18.058  11.777 -0.3025  0.0096 -0.1438
 9065W        W27919   1.486   4.398  14.536  0.0251 -0.3252  0.1431
 9066W        W27920   8.982   5.142  11.695  0.2193 -0.1774  0.3283
 9067W        W27921   1.090  13.041  11.588 -0.1733  0.0677  0.0849
 9068W        W27922  12.901  15.339   0.897 -0.0389  0.0078  0.2165
 9069W        W27923   1.199  16.694  14.115 -0.2694  0.1370 -0.1675
 9070W        W27924   6.507  18.037   0.272 -0.0787 -0.0846 -0.0294
 9071W        W27925   4.326  14.846   2.318 -0.1548  0.2703  0.2176
 9072W        W27926   2.641   2.868   3.207 -0.1398  0.2820 -0.2818
 9073W        W27927  14.377  17.774  14.915  0.1354 -0.2825  0.0029
 9074W        W27928   6.873  16.822  14.777 -0.1943  0.2348 -0.2238
 9075W        W27929   0.667   7.297   0.715 -0.0250 -0.2537  0.0127
 9076W        W27930   1.690   2.965   4.574 -0.1015  0.2632 -0.0134
 9077W        W27931  12.790  15.504  10.757  0.1656 -0.1717  0.2737
 9078W        W27932  18.375  17.897   2.348  0.0135  0.0206  0.1056
 9079W        W27933   7.970  14.147  15.074  0.1265 -0.3797  0.3421
 9080W        W27934  16.837   9.486   0.035 -0.3110  0.0663 -0.3289
 9081W        W27935   0.126   5.675   0.856 -0.4147 -0.2185  0.0180
 9082W        W27936   1.615   0.777  13.261  0.0094  0.3579  0.4909
 9083W        W27937   0.023   7.416   3.584 -0.1588  0.0096  0.1437
 9084W        W27938   3.383   3.732   1.122  0.1585  0.2673  0.0219
 9085W        W27939  13.284  18.052   2.408 -0.1771 -0.1687 -0.0564
 9086W        W27940   3.366  13.929  11.569 -0.3724  0.0191  0.4157
 9087W        W27941   5.827   5.034  11.128 -0.1080  0.0194  0.0990
 9088W        W27942   6.448  14.403   2.563 -0.4268 -0.1535 -0.0476
 9089W        W27943  12.207  15.170   5.218  0.0228  0.1059  0.1440
 9090W        W27944   9.634   2.833   1.452  0.2107  0.1908 -0.1129
 9091W        W27945   0.519   5.425  12.363 -0.1624 -0.0579  0.0776
 9092W        W27946   0.273   3.894  10.981  0.0349  0.0667 -0.1196
 9093W        W27947  12.522  11.721  13.411  0.0788  0.0778 -0.4080
 9094W        W27948   2.274   3.055   0.612 -0.1233 -0.0634 -0.1500
 9095W        W27949   4.642   2.986  12.167  0.1952 -0.3625 -0.0006
 9096W        W27950  17.286   0.481   0.733  0.3133  0.1735 -0.1242
 9097W        W27951   7.389   0.728   5.843 -0.3193 -0.0959 -0.1990
 9098W        W27952   9.756   0.432   2.247 -0.1986  0.0766  0.4378
 9099W        W27953  17.784   0.936   5.142 -0.1589 -0.0805  0.0436
 9100W        W27954  14.656   7.442   1.670 -0.0279 -0.2717 -0.3229
 9101W        W27955   4.263  15.669  10.755  0.1268  0.0260  0.5651
 9102W        W27956   5.554   2.640  12.453 -0.5411 -0.0185  0.1634
 9103W        W27957  13.791   8.479   0.153 -0.0994 -0.1555  0.0019
 9104W        W27958   5.663  10.019  11.731 -0.1041 -0.1288  0.1632
 9105W        W27959   8.660   8.166   2.611  0.0088  0.1320  0.0270
 9106W        W27960   8.774   0.251   2.588  0.0109 -0.1784 -0.4912
 9107W        W27961   2.557  14.295   3.645 -0.2951 -0.0420  0.0340
 9108W        W27962  15.216  10.868  12.165 -0.0731 -0.2778  0.0220
 9109W        W27963  13.415   2.245   1.454 -0.0272  0.0897 -0.1443
 9110W        W27964   1.058  16.895   4.087  0.2091  0.1991  0.0361
 9111W        W27965   4.024   5.272  14.168 -0.0188  0.1087  0.0293
 9112W        W27966   9.386   2.962   5.236 -0.2936 -0.0448  0.2972
 9113W        W27967  17.474  13.436  12.985 -0.2122 -0.0100 -0.3534
 9114W        W27968  15.229   9.543   1.400 -0.1012 -0.1237 -0.1822
 9115W        W27969  16.096   2.564  15.110 -0.1046  0.0986  0.0978
 9116W        W27970  15.627  11.591  12.882 -0.1687  0.2892 -0.2612
 9117W        W27971  10.584   6.386  11.511 -0.1277 -0.3466  0.2547
 9118W        W27972   9.346   8.165   2.586 -0.2227 -0.0317 -0.0253
 9119W        W27973   6.700   2.804   2.265  0.0188  0.3581 -0.0187
 9120W        W27974  10.513   2.195   1.976 -0.2655 -0.0365  0.0711
 9121W        W27975   6.670   8.839  14.788 -0.0810  0.1747  0.1014
 9122W        W27976   2.957  18.450  14.586 -0.0527  0.2002 -0.1191
 9123W        W27977   3.662  14.059   2.931 -0.0603 -0.2312 -0.0303
 9124W        W27978  11.156   0.867  14.523 -0.1036  0.0128  0.3644
 9125W        W27979  18.311  16.231  10.725  0.0816  0.2241 -0.2061
 9126W        W27980  18.154   8.109  14.022 -0.1156  0.1824  0.2304
 9127W        W27981   3.887  14.854  14.247  0.1847  0.1698 -0.1096
 9128W        W27982  16.525  11.445  14.793 -0.2120  0.1628  0.2089
 9129W        W27983  14.802  14.576  13.770 -0.0067 -0.0888  0.1614
 9130W        W27984   3.605   6.468  13.746  0.0994  0.0755 -0.1885
 9131W        W27985   8.796   6.187   1.466 -0.3867  0.2481  0.0300
 9132W        W27986   5.011  12.114  12.265  0.2193  0.0143 -0.4212
 9133W        W27987   3.745  17.293  14.442 -0.2318 -0.1201 -0.1575
 9134W        W27988   7.237   6.120  12.895  0.0176  0.2138 -0.1205
 9135W        W27989   5.294  16.463  11.349 -0.2718 -0.0739  0.3075
 9136W        W27990  18.070   5.781  13.511  0.0377  0.2065 -0.0663
 9137W        W27991   7.430   0.350  12.007  0.1619 -0.1492  0.0110
 9138W        W27992   3.252   6.644   3.967  0.0212  0.0431 -0.2411
 9139W        W27993  14.686   0.935  12.303 -0.1057 -0.1546 -0.1856
 9140W        W27994   8.224  12.937  13.445  0.2130  0.1153 -0.1078
 9141W        W27995   2.814   4.644  11.069  0.2343  0.1858 -0.0385
 9142W        W27996  18.212  16.622  14.487  0.2859  0.1679 -0.0393
 9143W        W27997   6.549  17.303  12.044  0.4480  0.1228  0.2525
 9144W        W27998   2.226   8.434   2.893  0.0518  0.0619 -0.1420
 9145W        W27999  18.749  17.661   2.573  0.3116  0.1003 -0.0200
 9146W        W28000   1.322  17.286  13.523  0.1281  0.0200  0.1372
 9147W        W28001   7.279   7.531  12.229  0.1962 -0.3448 -0.1837
 9148W        W28002   7.083   4.859   0.315  0.1977  0.0177 -0.3250
 9149W        W28003  15.229   0.633   2.654 -0.0745  0.2940 -0.0248
 9150W        W28004   6.637   7.305   2.755 -0.0748  0.3065 -0.1513
 9151W        W28005   0.419  12.204   3.540 -0.1716 -0.1122 -0.2323
 9152W        W28006   4.133  12.237  10.848  0.2896 -0.0905 -0.0163
 9153W        W28007   2.620   6.608   1.553  0.3052  0.1964  0.2107
 9154W        W28008  14.768   8.881   3.725  0.0490 -0.3313  0.0492
 9155W        W28009  18.262   8.343   0.395 -0.1154 -0.4741  0.0105
 9156W        W28010  14.047   8.995  11.486  0.0214  0.2113  0.2550
 9157W        W28011  15.884   4.341  11.061  0.2350 -0.0863  0.1493
 9158W        W28012   2.008   2.098   3.903 -0.0748 -0.0578  0.1348
 9159W        W28013   4.365  14.865   2.916 -0.0164  0.0848  0.2734
 9160W        W28014  17.546   1.492   3.069 -0.0201  0.0027 -0.1632
 9161W        W28015   5.231   0.391  15.050 -0.0279  0.2407  0.3116
 9162W        W28016  14.534  17.596   2.367 -0.2367  0.0869 -0.3719
 9163W        W28017  16.926   9.810  11.362 -0.1983 -0.0606 -0.0790
 9164W        W28018  15.270  10.470  14.090 -0.1341  0.1196  0.1348
 9165W        W28019  14.207   5.654  11.151 -0.0820 -0.0158  0.0044
 9166W        W28020  13.924  11.317  14.981  0.1108  0.0465 -0.2808
 9167W        W28021  18.813   1.105  11.734  0.2513  0.0404  0.0457
 9168W        W28022  12.928  11.936  11.617  0.0072  0.0995  0.0840
 9169W        W28023  11.340  17.180   2.094  0.2053  0.0541 -0.2872
 9170W        W28024   8.328   4.947  11.609 -0.2606 -0.0011 -0.0688
 9171W        W28025  16.290  15.598   1.385 -0.0009 -0.2687  0.0011
 9172W        W28026   3.065  15.059   0.077  0.0076 -0.0322  0.0176
 9173W        W28027   4.911   3.995   2.809  0.2266 -0.4532  0.0600
 9174W        W28028  12.887  16.947  13.953  0.0115  0.0727 -0.5267
 9175W        W28029  17.191  10.421   0.727  0.0285 -0.0077 -0.0763
 9176W        W28030  16.657  15.446  11.102 -0.0287  0.1817  0.3831
 9177W        W28031   3.807  15.884   4.366  0.0929 -0.2897 -0.0003
 9178W        W28032  15.885  13.861  12.333  0.2348  0.0105  0.2383
 9179W        W28033   2.138   7.505   3.274  0.2063  0.0193 -0.1007
 9180W        W28034   1.295   9.353   5.189 -0.3713 -0.1022  0.3423
 9181W        W28035  16.904   9.574   1.044  0.0522 -0.1450 -0.1511
 9182W        W28036   3.359  17.091  11.827  0.4870  0.1592  0.2527
 9183W        W28037   3.881   9.263   1.154 -0.2942  0.1961  0.0860
 9184W        W28038   7.648   1.386  14.857  0.4899  0.0489  0.0947
 9185W        W28039   2.473  10.986   2.693  0.1872 -0.2529 -0.1772
 9186W        W28040  14.947   2.925   4.465 -0.2249  0.0706  0.0796
 9187W        W28041  17.972   9.461   2.040  0.0053  0.0358 -0.2942
 9188W        W28042   9.692   4.827  11.673 -0.0810 -0.0641 -0.1919
 9189W        W28043  17.605  15.040   1.017 -0.4039 -0.4097 -0.2315
 9190W        W28044   1.589  10.864  14.070  0.2899  0.0332  0.3568
 9191W        W28045  17.993  12.366   0.427  0.0494 -0.0997  0.0167
 9192W        W28046  16.286   1.236   2.441  0.3179 -0.0747 -0.2470
 9193W        W28047  17.260  17.639   5.326 -0.0187 -0.0227 -0.0372
 9194W        W28048  11.691  14.611   4.468 -0.1343 -0.1439  0.4823
 9195W        W28049   8.748  11.515  13.161  0.0054  0.2005 -0.1324
 9196W        W28050   1.069   8.205   0.447  0.0748 -0.0464  0.1348
 9197W        W28051   7.802   1.151  10.349 -0.0907 -0.2327 -0.2167
 9198W        W28052   5.837  11.913   2.378  0.2440 -0.1321 -0.0205
 9199W        W28053   7.454  14.043   1.537  0.2011  0.1429 -0.2928
 9200W        W28054   7.776  13.145  14.249  0.2241 -0.1735  0.3299
 9201W        W28055   6.137  13.540   2.637 -0.2663  0.0050 -0.3816
 9202W        W28056  15.919   5.125   5.587 -0.2468  0.3787  0.1529
 9203W        W28057   5.427   3.573   4.129  0.0266  0.0754 -0.0430
 9204W        W28058   0.798  14.850   4.630 -0.0278  0.0171 -0.3981
 9205W        W28059  12.955   8.818  14.889  0.0496  0.0801 -0.2536
 9206W        W28060   0.604   4.499  12.415 -0.1634  0.3758 -0.1517
 9207W        W28061  13.672  18.470  11.118  0.2429  0.1566 -0.2043
 9208W        W28062   2.223   0.276   3.434  0.2082 -0.0089  0.1007
 9209W        W28063   6.704   0.657  12.928  0.1683 -0.0437 -0.2604
 9210W        W28064  17.446  18.671   3.806  0.2218 -0.1189  0.0346
 9211W        W28065  11.169   1.593  14.018 -0.0225 -0.3461 -0.1612
 9212W        W28066   4.718   4.474   2.776  0.4392 -0.4476 -0.2990
 9213W        W28067  10.006   3.707   0.844 -0.3407 -0.1037 -0.2745
 9214W        W28068  15.282  18.015  12.448 -0.0206 -0.1289  0.1898
 9215W        W28069  17.350   4.789  14.931 -0.0265  0.0709 -0.1473
 9216W        W28070   3.006   9.748   2.593 -0.0457 -0.0674 -0.1909
 9217W        W28071   2.118  15.243  13.220 -0.1373  0.2753 -0.0664
 9218W        W28072   4.931  14.110   0.763 -0.0535  0.0315 -0.3144
 9219W        W28073  12.022   1.558   4.267 -0.0571  0.2030 -0.0328
 9220W        W28074   1.964   1.317  14.009  0.2294 -0.1528 -0.1755
 9221W        W28075  13.082  14.485  14.399 -0.0900  0.0053  0.0331
 9222W        W28076   7.986   2.024   3.987  0.2546 -0.0216  0.2451
 9223W        W28077  11.054   0.526   2.071 -0.1124  0.0758  0.2247
 9224W        W28078   1.490  13.944  11.389  0.1200  0.3676 -0.0405
 9225W        W28079   0.344   8.095   2.419  0.1242 -0.0559 -0.1035
 9226W        W28080  17.122   9.293  11.455  0.0900 -0.0625  0.0518
 9227W        W28081  15.839  13.464  14.722 -0.2568 -0.1967  0.3384
 9228W        W28082  16.673  18.234   0.269 -0.2369 -0.0902  0.0215
 9229W        W28083   1.311   2.304  12.022  0.1962  0.6135 -0.1502
 9230W        W28084  10.018   6.440   3.111 -0.2054 -0.0598  0.0358
 9231W        W28085  11.825   9.589  11.901 -0.0453 -0.1718 -0.1195
 9232W        W28086   3.395  11.403  12.984 -0.4526  0.1067 -0.0807
 9233W        W28087   8.674   1.729   4.791 -0.1723  0.2768 -0.0229
 9234W        W28088  16.348   2.055  10.642  0.1200 -0.2416 -0.4657
 9235W        W28089   4.154   0.017   1.821  0.1975 -0.0405  0.1620
 9236W        W28090  16.436  15.851  10.977  0.2054  0.0876  0.2322
 9237W        W28091   3.104   5.054  11.014 -0.0601  0.1254  0.1892
 9238W        W28092  11.024  17.710  14.688  0.0365 -0.1647 -0.3972
 9239W        W28093   6.021   0.208   0.660 -0.0652  0.1146 -0.0819
 9240W        W28094   5.948   1.953  11.111 -0.1462  0.0084 -0.1527
 9241W        W28095  10.712   4.644  13.146 -0.0175  0.1742 -0.1561
 9242W        W28096   0.518   7.152   1.148  0.0012 -0.0085  0.1402
 9243W        W28097   9.479  13.329  10.435  0.0046 -0.0724  0.0664
 9244W        W28098  13.378  11.359  11.841  0.0016 -0.0726 -0.1796
 9245W        W28099  16.950   0.017   1.456 -0.2562  0.1154  0.0580
 9246W        W28100   3.141   8.227   1.857  0.2000  0.0220  0.4063
 9247W        W28101   9.478  14.696  12.428  0.0063 -0.1075  0.2502
 9248W        W28102  12.865  10.372  12.458  0.0362 -0.0957  0.2555
 9249W        W28103   9.969  15.798  11.535  0.1749  0.2411  0.1054
 9250W        W28104   7.163   8.582  11.546  0.0211  0.1624 -0.0545
 9251W        W28105   4.488  14.243  14.679 -0.3597  0.0438 -0.1915
 9252W        W28106   6.857   8.487  12.391  0.0155  0.0628 -0.1269
 9253W        W28107   9.524  16.147   0.877 -0.1409 -0.0825  0.1664
 9254W        W28108  17.546   2.851   0.210 -0.3323 -0.2598 -0.1139
 9255W        W28109   7.320   8.356   0.001  0.0757  0.1065 -0.4021
 9256W        W28110   1.081  14.604   1.161  0.3502 -0.3122 -0.0385
 9257W        W28111  10.790  15.616   0.848  0.2119 -0.1929  0.1707
 9258W        W28112   3.367  15.912  14.746 -0.4210  0.1917 -0.1430
 9259W        W28113  11.803  12.803   1.648  0.0199 -0.2781  0.3063
 9260W        W28114   8.456  17.014   0.759 -0.1479  0.1852 -0.0414
 9261W        W28115  16.183   2.684  10.636  0.1734 -0.1972 -0.2770
 9262W        W28116  14.534   0.931   2.792 -0.0983 -0.2015 -0.0039
 9263W        W28117  11.587  11.286   0.635  0.1253 -0.1487  0.1806
 9264W        W28118  16.198  15.943   2.963 -0.0148 -0.1634  0.1442
 9265W        W28119   9.503  18.740  12.435  0.2260 -0.2277 -0.0536
 9266W        W28120   2.199   1.999   2.905 -0.0305  0.1825  0.0941
 9267W        W28121   9.369  15.603  12.410 -0.2878  0.1686  0.0086
 9268W        W28122  10.829   7.687  11.722  0.0313  0.3317  0.0138
 9269W        W28123  11.337   0.477  14.871 -0.0091  0.1040  0.0045
 9270W        W28124  18.001  14.741   4.910 -0.1993 -0.0450 -0.0463
 9271W        W28125   1.894   9.892  11.930  0.0810 -0.0577 -0.0680
 9272W        W28126  16.128  13.249   3.649 -0.0617 -0.4004  0.0516
 9273W        W28127   9.981   7.768   4.415  0.0090 -0.1826  0.0643
 9274W        W28128  11.383  13.065   3.776  0.4255  0.1421  0.3313
 9275W        W28129   8.425   0.398   0.679  0.1032  0.0768 -0.2614
 9276W        W28130  14.535  15.677   1.972  0.0781  0.0792  0.0010
 9277W        W28131   8.226  11.102  11.623 -0.4551 -0.1326 -0.1955
 9278W        W28132  11.162   2.266  13.402  0.2995  0.1675  0.0603
 9279W        W28133   9.475  16.875  12.391 -0.1374  0.0045  0.1736
 9280W        W28134  13.598   4.607  11.515 -0.0718 -0.3259  0.0761
 9281W        W28135   5.356  18.224   1.480  0.0127 -0.2095 -0.2294
 9282W        W28136   2.481   5.240  11.881  0.0582  0.1778  0.5598
 9283W        W28137  12.423   7.763  13.764  0.3767 -0.2078  0.5178
 9284W        W28138  15.301  18.115   3.127 -0.0578  0.2253 -0.1939
 9285W        W28139   1.283  18.000  14.453  0.0780 -0.0142  0.0608
 9286W        W28140  16.914  13.223   1.837  0.0670  0.1673 -0.2381
 9287W        W28141  17.243   1.562  11.935 -0.1514 -0.4930 -0.2752
 9288W        W28142  17.019  17.500   1.453 -0.0880 -0.1737  0.1083
 9289W        W28143   1.057  18.262  10.022  0.0430  0.2588  0.1103
 9290W        W28144   2.282   9.204  13.627  0.3232 -0.1859 -0.1255
 9291W        W28145  14.295  16.726   3.672 -0.1159 -0.4329 -0.2698
 9292W        W28146  15.892  15.153   3.179 -0.2017  0.0217 -0.1723
 9293W        W28147   1.140   6.942  14.354 -0.2347 -0.0956 -0.0381
 9294W        W28148   5.002   5.568   1.733  0.2707 -0.1239  0.0438
 9295W        W28149   8.996  13.029  12.100  0.2532  0.3736 -0.1482
 9296W        W28150   2.293  15.290  13.776  0.2954  0.3429  0.2056
 9297W        W28151   9.626  16.307  14.742 -0.3646 -0.0208 -0.1385
 9298W        W28152   4.701  15.352   1.043  0.2837  0.0456  0.0310
 9299W        W28153  11.612   8.136   4.051 -0.1896 -0.0678 -0.1388
 9300W        W28154   2.788  14.291   0.824 -0.1834 -0.1469 -0.0585
 9301W        W28155   0.003  14.517   3.905 -0.0640  0.1865  0.0747
 9302W        W28156   6.812   5.077   2.977 -0.1067  0.0312  0.1526
 9303W        W28157  15.788  16.282   3.875 -0.0750 -0.0608 -0.2550
 9304W        W28158   9.613   4.739  14.125 -0.0976 -0.0429  0.1214
 9305W        W28159  16.959   6.550   9.737 -0.2902 -0.1645 -0.1767
 9306W        W28160  13.261   2.104   4.407 -0.1863 -0.0635 -0.0342
 9307W        W28161  10.545   1.790   3.652  0.4418 -0.0880 -0.0397
 9308W        W28162  16.125  16.869   3.969  0.0139 -0.0990  0.2205
 9309W        W28163   5.093   0.436  14.535  0.1571 -0.1895 -0.0851
 9310W        W28164  13.955   1.602   3.135 -0.1369  0.0844  0.0072
 9311W        W28165  14.813  10.184  13.261  0.2264 -0.0217 -0.4028
 9312W        W28166   3.692   0.633   0.593 -0.1063 -0.0156 -0.0406
 9313W        W28167   0.360   9.714   0.868  0.1318  0.3574 -0.0415
 9314W        W28168   8.632   2.328   3.867 -0.2306  0.2114 -0.3605
 9315W        W28169  11.728   0.522   1.355  0.1739  0.0531 -0.2167
 9316W        W28170   6.171   4.486   3.047  0.2419  0.1234 -0.0650
 9317W        W28171  12.440   6.615   3.664 -0.0569  0.0277 -0.0991
 9318W        W28172   1.258  10.182  12.716 -0.0866  0.0687 -0.0262
 9319W        W28173  15.214  15.856   4.093 -0.2068 -0.1936 -0.0267
 9320W        W28174   5.309  10.377  11.728 -0.0055  0.1170 -0.2380
 9321W        W28175  10.906  16.037   3.536  0.2797 -0.1428 -0.5038
 9322W        W28176   1.799   2.801  14.545  0.3060 -0.0178  0.2487
 9323W        W28177   2.294   3.694  13.614 -0.2173 -0.3122 -0.1492
 9324W        W28178   4.268  10.362   9.767 -0.2030 -0.2377 -0.0759
 9325W        W28179  18.559   9.140  10.236  0.0095 -0.0929 -0.0483
 9326W        W28180   2.984   3.810  14.946 -0.0935  0.2701 -0.1922
 9327W        W28181  14.707  16.796   3.372  0.2591  0.1427 -0.1298
 9328W        W28182   4.650   3.194   1.994 -0.2114  0.1044 -0.0273
 9329W        W28183   7.919  13.983   3.166 -0.0293  0.0086  0.4330
 9330W        W28184   1.147   4.792   1.413  0.1217  0.0722 -0.2220
 9331W        W28185   6.893  11.757   9.829  0.0519  0.2994 -0.2167
 9332W        W28186  10.168  18.424   2.469 -0.0388 -0.2592  0.1528
 9333W        W28187   9.433   6.802   1.116 -0.1315  0.0922 -0.2053
 9334W        W28188  12.765  13.434   4.585 -0.1000  0.0666  0.2556
 9335W        W28189   3.825   1.096  14.002  0.1395  0.0362  0.2149
 9336W        W28190   3.461   7.630  13.745 -0.2485 -0.0599 -0.0975
 9337W        W28191  12.805  15.090   3.911 -0.2904 -0.1199 -0.1745
 9338W        W28192  12.741  11.096   1.209  0.3788  0.1230 -0.2793
 9339W        W28193  12.898   6.521  14.904  0.2021  0.2121  0.0688
 9340W        W28194   7.069   6.457  12.541  0.1078 -0.1182  0.1006
 9341W        W28195  10.271  14.893  11.293 -0.2516 -0.1603  0.2039
 9342W        W28196   2.063   6.452   4.413  0.1425 -0.1073  0.1246
 9343W        W28197  14.044   4.220  12.820 -0.3904  0.1195 -0.1109
 9344W        W28198  17.898   0.926   9.861  0.2162 -0.2388 -0.0249
 9345W        W28199  14.366   9.310  14.634  0.1503  0.0525 -0.0829
 9346W        W28200  16.820  13.946   1.211  0.0314 -0.1157 -0.0050
 9347W        W28201  15.106  15.535   0.116 -0.0530 -0.1779 -0.0397
 9348W        W28202   4.415   1.277  13.003  0.1666 -0.0397 -0.0671
 9349W        W28203   5.127   2.254  14.127  0.2151  0.1872  0.0068
 9350W        W28204  17.210   4.850   0.937  0.2270  0.2791  0.0123
 9351W        W28205  10.536  16.430  11.901  0.0271 -0.2104 -0.0449
 9352W        W28206   5.650  15.160   3.034 -0.3150 -0.1136 -0.1673
 9353W        W28207   7.502   9.521  11.716 -0.0949 -0.0706  0.2177
 9354W        W28208  11.014   8.866  15.114 -0.0757 -0.0298 -0.1718
 9355W        W28209   1.630  12.840  13.869  0.1490  0.0060  0.0300
 9356W        W28210  11.049   5.039  11.259 -0.1006 -0.1880  0.0257
 9357W        W28211  18.220   8.467   2.466 -0.4270  0.0353 -0.0149
 9358W        W28212   6.857   8.798  11.964 -0.1700  0.0762 -0.3629
 9359W        W28213   4.125   0.965   1.776 -0.1357 -0.0999  0.2611
 9360W        W28214   6.684  10.167  14.893  0.0451 -0.0001  0.1020
 9361W        W28215   9.516  17.585   0.210 -0.0318  0.1733 -0.3475
 9362W        W28216   2.363   9.674  10.784  0.0367  0.0596  0.2817
 9363W        W28217  14.429  13.529   3.690  0.2250 -0.1684  0.1090
 9364W        W28218   0.639   2.503   3.280  0.0600 -0.1032  0.0609
 9365W        W28219   9.907   7.727  14.040 -0.4168  0.1773  0.0847
 9366W        W28220   7.778  11.621   2.673  0.2904 -0.1821 -0.1633
 9367W        W28221   3.972  12.611  11.580 -0.1133 -0.1902  0.0862
 9368W        W28222   6.923  14.820   2.597 -0.1154 -0.0666 -0.1130
 9369W        W28223   3.966   4.616   3.916 -0.2646 -0.1642  0.4042
 9370W        W28224  13.249   0.174  14.648 -0.0376  0.2528  0.1470
 9371W        W28225   4.261   3.206   2.778  0.2342 -0.2308  0.1571
 9372W        W28226  17.691  17.948  13.637 -0.0121 -0.0402 -0.1397
 9373W        W28227   8.596   4.276   0.710 -0.2225 -0.0191 -0.3070
 9374W        W28228  17.251   0.034   2.078 -0.0761  0.2826  0.3131
 9375W        W28229   0.701  11.037   0.848  0.0126 -0.1875  0.0007
 9376W        W28230  13.993  13.346  14.979 -0.4113  0.2060  0.0937
 9377W        W28231   2.572   1.728   2.266  0.0590  0.0646 -0.0914
 9378W        W28232  10.278   4.875  12.967 -0.1367  0.0398 -0.1124
 9379W        W28233  13.284  14.238   0.426  0.0850  0.2379  0.0610
 9380W        W28234   4.463   4.693  11.188 -0.0966 -0.1951 -0.0994
 9381W        W28235   6.948   6.386   0.375  0.1206 -0.1159 -0.2092
 9382W        W28236  11.117   1.318  12.718  0.1169  0.0499 -0.1862
 9383W        W28237  15.034  17.831   2.723  0.0380 -0.2451  0.0457
 9384W        W28238   5.756   4.705  11.466 -0.2678  0.0061 -0.0228
 9385W        W28239   9.493   8.949   1.660  0.0921  0.0526 -0.3296
 9386W        W28240   0.770  16.092  13.156  0.1498  0.3139  0.3121
 9387W        W28241   0.190   3.910  14.044  0.0721  0.2383  0.0159
 9388W        W28242  17.119   7.508  11.348  0.3148  0.0425 -0.2926
 9389W        W28243   0.642   5.923  13.726  0.0241  0.1818  0.2037
 9390W        W28244  14.304   2.208  11.979  0.3662  0.0454 -0.0631
 9391W        W28245  12.094   3.072   3.050 -0.2539 -0.3722  0.1838
 9392W        W28246   9.511  16.659   1.732  0.0392 -0.0981  0.0720
 9393W        W28247   3.834   2.286   4.257  0.0529  0.1499  0.1071
 9394W        W28248  15.467  11.641  10.849 -0.2405 -0.1519  0.1029
 9395W        W28249  13.954  10.063   3.213  0.0427 -0.1330 -0.4281
 9396W        W28250  15.011  14.501   2.232 -0.1654  0.1149 -0.1737
 9397W        W28251  11.310   4.135   2.914  0.1558 -0.3573 -0.4178
 9398W        W28252   2.461   6.472  15.072 -0.1675 -0.0076  0.0263
 9399W        W28253   0.006   9.375  10.670  0.1132  0.1128  0.2288
 9400W        W28254  10.194  17.180  14.668 -0.0771 -0.0547 -0.4256
 9401W        W28255  17.188   4.038   3.492  0.1968  0.1201 -0.3225
 9402W        W28256  16.291  14.239   2.217 -0.1947 -0.1553  0.4652
 9403W        W28257   4.750   1.682  13.244 -0.0829 -0.2749  0.1391
 9404W        W28258  10.116   8.593  10.276 -0.2291 -0.0297 -0.1989
 9405W        W28259   3.408  16.126   4.811  0.3609 -0.0953 -0.1096
 9406W        W28260  15.538   4.366   0.570 -0.1783 -0.1092 -0.0261
 9407W        W28261   7.304   3.237   0.972  0.2413  0.1349 -0.4182
 9408W        W28262  16.736  12.963  12.529 -0.0606 -0.4021  0.2534
 9409W        W28263  17.073  16.064  14.978 -0.0370  0.0180 -0.0606
 9410W        W28264  15.639   4.423   3.452  0.1569 -0.2629 -0.3344
 9411W        W28265  18.654   8.604   2.108 -0.3078  0.2067  0.0261
 9412W        W28266  12.050   8.923   3.531 -0.1298 -0.1303  0.3543
 9413W        W28267  16.007  17.804   2.558  0.1018  0.0228 -0.1531
 9414W        W28268  14.777  11.280   1.486 -0.0876 -0.1391  0.3080
 9415W        W28269   4.464  11.748   1.538 -0.1807  0.0541 -0.1541
 9416W        W28270  15.394  14.201   2.062  0.1717  0.1116 -0.2806
 9417W        W28271   0.380   0.131   2.533  0.0295 -0.0574 -0.0138
 9418W        W28272   7.332  18.285   3.674  0.1003  0.0443 -0.0540
 9419W        W28273  10.350  18.365  12.506 -0.2966  0.0438 -0.1537
 9420W        W28274  12.459  10.501   2.100  0.2025  0.0940 -0.4437
 9421W        W28275  15.663   3.487   2.732  0.0958  0.2120  0.3759
 9422W        W28276  11.790   5.107  12.069  0.0844  0.0011 -0.2911
 9423W        W28277  11.420  12.511  11.507  0.3987  0.1520 -0.1561
 9424W        W28278  18.407   7.242  11.806 -0.0979 -0.3001 -0.0725
 9425W        W28279  13.021   8.653   2.605 -0.2194  0.0603  0.2801
 9426W        W28280   4.658  15.991  13.453 -0.0227  0.0165  0.2012
 9427W        W28281   4.083   9.883   2.952  0.1514 -0.0066 -0.1546
 9428W        W28282  15.011  18.748   2.429  0.1545 -0.2067  0.0194
 9429W        W28283   2.668  18.084  14.395  0.0785 -0.0078 -0.1332
 9430W        W28284   0.284   4.342  12.029 -0.1187 -0.3056 -0.2311
 9431W        W28285   4.046  16.290   0.897  0.1310  0.3710  0.3052
 9432W        W28286   3.184  18.143   2.901  0.5039  0.1964 -0.0875
 9433W        W28287  17.917   7.693   0.781 -0.2598 -0.2355 -0.0000
 9434W        W28288   3.512   5.693   1.965 -0.1199  0.0864 -0.1620
 9435W        W28289   4.662  14.394  14.175 -0.1265 -0.1631  0.1727
 9436W        W28290  12.730   5.244   1.254  0.1473  0.1256 -0.2213
 9437W        W28291  10.087   0.099  11.247  0.0644  0.0888  0.1056
 9438W        W28292  17.190   6.890   2.801 -0.2982 -0.2672  0.0755
 9439W        W28293  14.031  15.350  14.628  0.0725 -0.1256  0.0634
 9440W        W28294  12.724   0.501   3.970  0.0333  0.0495  0.1531
 9441W        W28295  11.984  13.265   0.584 -0.2087 -0.0829 -0.3341
 9442W        W28296  13.068   9.706   0.292  0.0592 -0.3010 -0.0523
 9443W        W28297   0.200   3.018   2.664  0.1718 -0.0984  0.2576
 9444W        W28298   4.651  14.960   0.783 -0.1588  0.2803 -0.2604
 9445W        W28299  12.172   4.563   4.384 -0.2596  0.0177  0.1393
 9446W        W28300   8.848  17.165   0.456  0.4838 -0.0202 -0.2450
 9447W        W28301   9.280   3.594  11.270  0.3611  0.0330 -0.0354
 9448W        W28302  16.383  10.078   2.689  0.1260  0.2277  0.0934
 9449W        W28303   2.139   4.759  12.691 -0.1862  0.0498  0.1123
 9450W        W28304   8.018  14.897   1.273  0.0773  0.2103  0.3541
 9451W        W28305   6.221  10.014   0.973 -0.0624 -0.1300  0.2121
 9452W        W28306   8.095   5.171  13.738  0.0630  0.0677  0.1441
 9453W        W28307  16.907  15.117   3.110 -0.1255 -0.1172 -0.1987
 9454W        W28308  12.218   1.406  12.485 -0.2174  0.0528 -0.1509
 9455W        W28309  14.954   8.408   2.765  0.4797  0.1055  0.1757
 9456W        W28310   2.484  17.235  14.206  0.0140 -0.0346 -0.2490
 9457W        W28311  17.054   8.951   1.366 -0.0787  0.1986 -0.0714
 9458W        W28312  15.028  13.003   4.191 -0.1221 -0.0457 -0.2301
 9459W        W28313   0.169  14.878   2.540  0.0345  0.0229 -0.0720
 9460W        W28314   8.294   4.452  13.344 -0.1549 -0.1033 -0.0408
 9461W        W28315   1.396   8.819  10.577 -0.0176 -0.1222  0.2302
 9462W        W28316   4.489   9.465   2.924 -0.0426 -0.3050 -0.1152
 9463W        W28317  10.303   8.964   2.791  0.2676 -0.0543 -0.1374
 9464W        W28318   9.858   2.978   4.056 -0.0391  0.0354  0.0995
 9465W        W28319  17.607   7.314   2.320  0.0525  0.1653  0.2408
 9466W        W28320   3.677  15.860   3.361 -0.2604 -0.0338 -0.0981
 9467W        W28321  11.807   7.205  14.565  0.0790 -0.1486  0.4624
 9468W        W28322   1.520   5.239   2.212  0.1697 -0.1150 -0.0139
 9469W        W28323  11.059   5.122  13.662 -0.1889  0.1697  0.0197
 9470W        W28324  12.725  12.498  12.782  0.1951 -0.1002  0.1578
 9471W        W28325  13.263   7.012   0.578  0.1679 -0.1566 -0.1616
 9472W        W28326  11.462  16.906   0.098 -0.0588 -0.2516 -0.0037
 9473W        W28327   8.052  16.262   3.732 -0.0415  0.1908  0.0214
 9474W        W28328  14.287   0.628   1.939 -0.1290  0.1176 -0.1028
 9475W        W28329  15.304   3.861  14.043  0.0389 -0.0292  0.2032
 9476W        W28330  11.661  11.837   3.855  0.2500  0.2435 -0.1112
 9477W        W28331  17.048  17.966  14.194  0.1096  0.0388  0.1341
 9478W        W28332   5.492  15.887  10.717 -0.1717  0.3327 -0.1729
 9479W        W28333  10.402   6.146  12.400  0.0605  0.1383 -0.1783
 9480W        W28334   2.937  13.576   3.549 -0.1726  0.2764 -0.1909
 9481W        W28335   0.805   3.739   2.340  0.1635  0.0175  0.1612
 9482W        W28336   1.417   7.158   0.131  0.0451  0.1287  0.1165
 9483W        W28337  14.194  13.384   3.295 -0.2539  0.1036 -0.0688
 9484W        W28338   9.905  10.675  15.101 -0.1849  0.0372 -0.0322
 9485W        W28339  10.897  12.344   3.343 -0.1150 -0.0766  0.0426
 9486W        W28340   3.813  16.716   0.814  0.1389  0.3205  0.4212
 9487W        W28341  13.325   0.400   2.396 -0.2282  0.2349 -0.0636
 9488W        W28342   0.580   4.096  10.280  0.0989  0.3049 -0.0607
 9489W        W28343   7.584  15.526  12.987  0.0976  0.2052  0.0005
 9490W        W28344   1.135  16.441  11.374 -0.1125 -0.1434  0.0719
 9491W        W28345   4.306  10.757  14.496  0.0861  0.3648  0.1982
 9492W        W28346  10.507  10.627  13.309  0.0654  0.1325 -0.4392
 9493W        W28347   9.293   1.506  11.074  0.3263 -0.1607 -0.0646
 9494W        W28348   8.182  15.794   3.463  0.0800 -0.2851 -0.0192
 9495W        W28349  18.572  16.404   4.400  0.3434 -0.2459  0.1651
 9496W        W28350   2.288   4.167   3.952 -0.0132 -0.0316  0.4426
 9497W        W28351   2.052  15.906   1.439  0.4319  0.1796  0.1012
 9498W        W28352   2.300   4.382  14.538  0.1031 -0.3160 -0.2624
 9499W        W28353   7.270  18.328  14.158 -0.0909  0.0267 -0.1187
 9500W        W28354  15.833   0.646   0.058  0.0238 -0.2042  0.0978
 9501W        W28355   2.650   1.731   2.856  0.0093  0.3142 -0.0339
 9502W        W28356   0.813   6.359   0.627 -0.0001  0.0016  0.3023
 9503W        W28357  18.755   6.345   3.552 -0.2387  0.1477  0.1975
 9504W        W28358   6.913  15.900  10.587  0.2198 -0.3022  0.3034
 9505W        W28359   9.302  13.752  13.216 -0.0834  0.0459 -0.0841
 9506W        W28360   5.484   3.106   0.818 -0.1814  0.2138  0.0310
 9507W        W28361  11.407   2.171   1.610  0.0044 -0.1043  0.1820
 9508W        W28362   1.250  16.308   1.991 -0.2749  0.0912  0.1680
 9509W        W28363  15.663  14.812   2.888 -0.0890  0.1915  0.1234
 9510W        W28364  14.520  11.072   4.369  0.1350  0.1334 -0.1632
 9511W        W28365  10.616   4.354  11.753  0.0825 -0.3285 -0.0456
 9512W        W28366   8.517   3.276  13.977  0.1507  0.0148 -0.1253
 9513W        W28367   9.937   7.562  11.876  0.0688 -0.1770  0.0106
 9514W        W28368  16.273   1.585  10.701  0.1917 -0.1578  0.1826
 9515W        W28369   8.827   4.030   2.226 -0.0335 -0.1784 -0.1525
 9516W        W28370   6.750   0.610   4.114 -0.2900 -0.0374  0.1900
 9517W        W28371   9.621   0.717   3.331 -0.0753 -0.1459 -0.0371
 9518W        W28372   3.669   2.114   1.389 -0.1430 -0.0395 -0.2802
 9519W        W28373   7.002   2.328   1.099  0.0370 -0.1455 -0.0248
 9520W        W28374   4.760  18.059   3.203  0.0104 -0.0070 -0.1785
 9521W        W28375   1.160  17.809   0.183 -0.1630 -0.2024 -0.1814
 9522W        W28376   0.312   2.261   1.561  0.0132 -0.1526  0.1075
 9523W        W28377  17.697   1.724   1.360 -0.0910  0.2368 -0.1769
 9524W        W28378  10.010   1.538   4.344 -0.0769  0.1815 -0.1183
 9525W        W28379   8.160  17.543   0.979 -0.5620  0.0858  0.0685
 9526W        W28380   6.839   3.287  13.898 -0.1691 -0.0848  0.1483
 9527W        W28381  15.924  13.636   0.976 -0.1449 -0.0740 -0.0823
 9528W        W28382   3.504  11.040  12.061 -0.0103 -0.1686 -0.1558
 9529W        W28383   1.899  12.526   0.657  0.0849 -0.2489 -0.0259
 9530W        W28384   1.077  14.322  12.793 -0.0111 -0.2579  0.0465
 9531W        W28385   2.553  15.297   1.916 -0.0406 -0.0430  0.0191
 9532W        W28386  10.267  16.530   2.960  0.0557 -0.4890 -0.1780
 9533W        W28387   8.550   4.481   0.180  0.1559  0.0870 -0.1829
 9534W        W28388  10.535  18.769  11.544  0.0016 -0.1588 -0.0901
 9535W        W28389   7.965   0.570  13.272  0.5015 -0.0880 -0.1491
 9536W        W28390   0.664   0.746   4.736 -0.1177  0.2310 -0.0399
 9537W        W28391   0.282  18.059  10.734 -0.0724 -0.2121 -0.0735
 9538W        W28392  13.175  10.201   2.393 -0.2523  0.0437 -0.0848
 9539W        W28393   0.037  11.576   1.272  0.1394 -0.0996 -0.3195
 9540W        W28394  15.340  14.396  12.536 -0.2504  0.1530  0.2176
 9541W        W28395  14.179   5.566  14.612 -0.0524 -0.0395  0.0631
 9542W        W28396  12.897   6.781   4.423 -0.1363 -0.0457 -0.0527
 9543W        W28397   7.473   8.767  12.862  0.0665  0.1854  0.0480
 9544W        W28398   5.097  17.871  14.136  0.0033 -0.2285  0.1730
 9545W        W28399   2.778  18.662   4.833  0.1549  0.1321 -0.1937
 9546W        W28400  14.910  15.523   3.612  0.4155  0.3350  0.1440
 9547W        W28401   7.674   5.964   3.497 -0.1759 -0.0624  0.0833
 9548W        W28402  16.872  18.713   0.053 -0.0462 -0.3405  0.2101
 9549W        W28403  14.118  17.215   1.096  0.2656 -0.2026  0.2570
 9550W        W28404   5.389  14.229   2.528 -0.0149 -0.1778  0.2029
 9551W        W28405   0.777  17.395   2.884 -0.0066 -0.1000  0.0182
 9552W        W28406  17.786  12.470   3.423 -0.4383  0.0965  0.3499
 9553W        W28407   8.977   7.752   3.576 -0.2615  0.2943  0.1688
 9554W        W28408   1.911  10.997   1.812 -0.0670 -0.1358 -0.3602
 9555W        W28409   3.474   9.408  14.749 -0.3439  0.0337 -0.2677
 9556W        W28410   5.198  11.205  10.811 -0.1335 -0.0421 -0.0358
 9557W        W28411   3.107  16.846  13.016 -0.0795 -0.0910 -0.2238
 9558W        W28412   6.015  11.387   3.404  0.2168  0.0249 -0.1219
 9559W        W28413  10.541   3.792   0.844 -0.0427  0.0435  0.0092
 9560W        W28414   9.373   2.472  15.009 -0.2799  0.0050  0.1612
 9561W        W28415  12.583  15.921  11.761 -0.0164  0.0659 -0.2597
 9562W        W28416   7.786   3.868   2.029 -0.1915  0.1043  0.3987
 9563W        W28417  14.288  14.932  14.426  0.0950  0.0595  0.3780
 9564W        W28418   9.089   0.161  11.133  0.1028 -0.1455 -0.0057
 9565W        W28419  15.466   9.061   3.904 -0.1279 -0.1109  0.2399
 9566W        W28420  16.561  11.170  14.372  0.3647 -0.2778 -0.3051
 9567W        W28421   3.395   5.212  11.704  0.0805  0.1609  0.1771
 9568W        W28422   1.336   5.242  13.969 -0.0395  0.1856  0.1051
 9569W        W28423  16.857  18.207   0.740  0.0968  0.0014  0.1166
 9570W        W28424  18.422   0.133  14.604 -0.1936  0.2434  0.1331
 9571W        W28425   0.940   3.732  13.284 -0.1750  0.3172 -0.0757
 9572W        W28426  13.073  11.350  10.987 -0.1517  0.0012 -0.1168
 9573W        W28427   0.334  14.758  13.936 -0.5256  0.2229  0.2750
 9574W        W28428  18.016  15.702   2.012 -0.1902  0.0762 -0.0380
 9575W        W28429   4.575  16.120   1.954  0.2001  0.0259 -0.0456
 9576W        W28430  15.871   5.658   3.598 -0.0671  0.0014 -0.1744
 9577W        W28431   4.891   9.594   3.182 -0.2797 -0.0012 -0.1182
 9578W        W28432   3.987   7.917  14.173 -0.0732 -0.1635 -0.0397
 9579W        W28433   0.560  11.001  14.496 -0.1549 -0.1313 -0.0427
 9580W        W28434  11.685   2.037   2.183 -0.0733 -0.3003  0.1726
 9581W        W28435  17.763   8.759  13.379 -0.3129  0.0113 -0.0266
 9582W        W28436  16.613   9.452   0.642 -0.1231  0.3692  0.1977
 9583W        W28437   8.980  13.862  10.893  0.2328  0.0196  0.0904
 9584W        W28438   8.799   4.083   0.337  0.0068 -0.0751  0.1084
 9585W        W28439  10.652   9.682   0.462  0.0996 -0.3675  0.2443
 9586W        W28440  16.904  14.451   1.462  0.1108 -0.0579  0.0309
 9587W        W28441   1.028   0.693   2.291 -0.0301  0.0029 -0.0498
 9588W        W28442  13.474  15.141   0.890 -0.0786  0.0439 -0.1094
 9589W        W28443   0.304  15.318   1.499 -0.0475 -0.0265  0.0745
 9590W        W28444  15.186  14.948   2.713  0.0688 -0.2761  0.0114
 9591W        W28445  13.132   1.913  12.437 -0.2835 -0.1811  0.1204
 9592W        W28446   6.970   9.413  14.214  0.2279 -0.2674  0.0481
 9593W        W28447  11.268   9.839   2.507 -0.0458 -0.2168  0.1840
 9594W        W28448   4.655   0.893   3.857 -0.2817  0.1327  0.0130
 9595W        W28449   4.823  12.120  13.900 -0.0577 -0.3109 -0.2010
 9596W        W28450   6.306  18.464   2.066 -0.2436  0.0476  0.0908
 9597W        W28451   3.833  15.987   1.849  0.1471 -0.1501  0.1273
 9598W        W28452  10.224  14.743  15.114 -0.0755 -0.0637 -0.0900
 9599W        W28453   8.303  14.756  11.125  0.0708 -0.1418 -0.2526
 9600W        W28454   1.113  13.943  14.674  0.1760 -0.3044 -0.0104
 9601W        W28455  11.981  12.978  12.072 -0.3701 -0.0041  0.0965
 9602W        W28456  16.471   9.025  10.986 -0.1837  0.0625 -0.0446
 9603W        W28457   5.298   9.206   3.854  0.0573 -0.1078 -0.0173
 9604W        W28458   6.440  14.101  14.136  0.3422  0.1257  0.0722
 9605W        W28459  16.346  18.335  13.705  0.1391  0.1615  0.0683
 9606W        W28460  16.027  12.146   0.805  0.1191  0.1565 -0.1365
 9607W        W28461   0.641  17.819   3.917  0.1250  0.0646  0.0978
 9608W        W28462  14.411  13.699   1.364 -0.3176 -0.1491 -0.3144
 9609W        W28463   5.512   6.506  11.801 -0.1496 -0.2704 -0.2551
 9610W        W28464  11.262  12.683  12.375  0.2065  0.3151 -0.0187
 9611W        W28465   4.966   4.532  10.942 -0.1640 -0.0209 -0.1775
 9612W        W28466  12.553  16.461   0.134 -0.1458  0.3109 -0.3263
 9613W        W28467  16.808  10.658  11.189 -0.1476 -0.1267  0.3333
 9614W        W28468  12.265  17.114  14.710  0.2377 -0.1350 -0.0838
 9615W        W28469  13.711  14.911   0.356  0.0501  0.0405 -0.2548
 9616W        W28470   7.993  10.531   0.529  0.3807  0.1378  0.1251
 9617W        W28471   2.662  13.802   0.898  0.2273  0.0577 -0.0774
 9618W        W28472   2.583  17.438  12.251  0.1184  0.4460 -0.2138
 9619W        W28473  14.605  18.694   1.124  0.1552 -0.0776 -0.1764
 9620W        W28474   3.413   5.524  13.507 -0.2006  0.1067  0.1961
 9621W        W28475  13.557  11.859   3.737 -0.1268 -0.4406  0.3077
 9622W        W28476  16.539  10.872   3.788 -0.0928  0.0504  0.2269
 9623W        W28477   2.293   8.725   1.236 -0.0856  0.1084  0.1341
 9624W        W28478   8.496  16.924   3.530  0.0514 -0.0862 -0.1720
 9625W        W28479  18.838  10.298   3.790 -0.1010 -0.2394  0.1840
 9626W        W28480   8.627   8.533   0.640  0.1455 -0.2490  0.0877
 9627W        W28481   4.896   5.375   2.433  0.1361  0.0616 -0.0643
 9628W        W28482  11.515   5.760   2.834 -0.0253  0.0747  0.1091
 9629W        W28483  13.885  12.960   3.144  0.3283 -0.4681 -0.0028
 9630W        W28484  11.592   2.931  13.870  0.0184  0.2268 -0.1362
 9631W        W28485  11.771  14.477   3.140 -0.0196 -0.0549  0.0383
 9632W        W28486  12.813  11.506   3.797  0.0099 -0.1016  0.0827
 9633W        W28487   3.732   3.056   0.689 -0.1447 -0.2216  0.1497
 9634W        W28488  13.732  15.485   3.927 -0.0896 -0.2665 -0.0088
 9635W        W28489   9.838   5.124  13.254 -0.1303  0.2296  0.0372
 9636W        W28490   8.922   5.927   2.117  0.0126 -0.0257 -0.3123
 9637W        W28491  15.126   8.809   3.352  0.3063  0.0983  0.0657
 9638W        W28492   8.998   3.794   0.789  0.1417  0.3591  0.2341
 9639W        W28493  18.099  16.305   1.744  0.0032  0.0446 -0.3130
 9640W        W28494  12.879   7.550  11.487 -0.3371  0.2036 -0.1594
 9641W        W28495  14.165  15.963  13.551  0.2597 -0.0369  0.0189
 9642W        W28496  15.794   0.429   3.293 -0.0178 -0.0233 -0.0229
 9643W        W28497  13.532   1.784   3.997  0.0496  0.1234 -0.1415
 9644W        W28498  13.409   7.915   4.275  0.0728  0.1874 -0.0466
 9645W        W28499  13.059  11.086   5.378  0.2487 -0.1942 -0.1148
 9646W        W28500   7.041  12.209  13.526  0.2132 -0.3529  0.0533
 9647W        W28501   3.199   5.899   3.330  0.0548 -0.0077 -0.1395
 9648W        W28502  15.233   2.578   0.685  0.0928 -0.1550 -0.4213
 9649W        W28503   4.481   4.855   4.802  0.1213 -0.0371 -0.1764
 9650W        W28504  16.311  16.083   1.389 -0.0355 -0.0893 -0.2223
 9651W        W28505  11.897   5.767  10.827 -0.4430  0.1277 -0.1788
 9652W        W28506  10.341   2.986  14.850 -0.3419  0.1809 -0.1733
 9653W        W28507   3.678   1.357  10.892 -0.1097  0.1151  0.0692
 9654W        W28508  10.030  11.224   3.990 -0.0585  0.1442  0.4547
 9655W        W28509   1.456  12.135   2.626  0.2316 -0.3607  0.1334
 9656W        W28510  16.976   3.442  12.173  0.2154  0.1970 -0.3841
 9657W        W28511   6.052   7.688  14.597  0.0802 -0.1414  0.0290
 9658W        W28512  17.037   9.710   4.639  0.1573  0.0068  0.0287
 9659W        W28513  16.042   7.417  12.015 -0.1607  0.3319  0.2830
 9660W        W28514  18.308   4.779  11.572 -0.0777  0.3577 -0.3788
 9661W        W28515   1.695  16.414  13.512 -0.0450  0.0143 -0.1064
 9662W        W28516  13.780  11.148  13.972  0.2884 -0.2354 -0.0054
 9663W        W28517   1.991  18.740   1.712  0.2171 -0.2783  0.3640
 9664W        W28518  15.787   2.971   0.547 -0.0494  0.0308 -0.3592
 9665W        W28519  13.344   9.308  12.117 -0.0395  0.0331 -0.0873
 9666W        W28520  14.423   7.333  13.218  0.1978  0.2274 -0.1364
 9667W        W28521  13.976  15.237  12.713 -0.0540 -0.0040 -0.1125
 9668W        W28522  17.073   8.404   3.908  0.2156 -0.0055  0.0240
 9669W        W28523   9.452  16.648   2.264  0.1012 -0.1007 -0.1107
 9670W        W28524  12.739   2.281  12.177 -0.1030  0.2193  0.0516
 9671W        W28525   1.482  16.310   1.057  0.0098 -0.0691 -0.3417
 9672W        W28526  18.757   7.490   3.049 -0.4794 -0.2478 -0.3518
 9673W        W28527  10.993  14.013  11.927 -0.0003 -0.1083  0.1176
 9674W        W28528  15.846   5.921  12.410  0.0559  0.0643  0.3140
 9675W        W28529  14.370   8.843  10.709 -0.0748 -0.1439  0.2702
 9676W        W28530  18.742  17.366  14.872 -0.4194  0.0488 -0.2319
 9677W        W28531  14.581   5.330   3.887 -0.0037 -0.2611 -0.2519
 9678W        W28532  13.068  12.945   0.859  0.0463 -0.0554  0.0059
 9679W        W28533  14.566  14.515  13.180 -0.0211  0.0405 -0.1161
 9680W        W28534   0.250  17.272   0.198 -0.1313 -0.1548  0.2732
 9681W        W28535   7.153  16.844  11.832 -0.2048  0.0710  0.0459
 9682W        W28536   0.218   9.515  14.932 -0.0426 -0.1279 -0.0849
 9683W        W28537  11.108   0.028   2.488 -0.2303 -0.0230  0.1837
 9684W        W28538   7.897   1.349   1.508  0.0361  0.0039 -0.0957
 9685W        W28539   3.020   8.814   0.862 -0.2026 -0.1082 -0.1027
 9686W        W28540  15.057   6.768   0.527 -0.2396 -0.1520 -0.0381
 9687W        W28541   8.900   1.626  15.081  0.1299  0.0900 -0.1128
 9688W        W28542  12.619   0.501  12.176 -0.2116 -0.2457 -0.1912
 9689W        W28543  13.030   0.686   0.643  0.0623 -0.0317  0.2851
 9690W        W28544  13.665   5.043  11.760  0.0353  0.2589 -0.2606
 9691W        W28545  12.681   0.953   2.475  0.2598  0.2336 -0.1374
 9692W        W28546  16.979  16.986   3.632  0.0209 -0.2026  0.3030
 9693W        W28547   3.854   1.745   4.983 -0.2989  0.0820 -0.0686
 9694W        W28548   2.357  14.084   1.751 -0.1404 -0.1687 -0.1589
 9695W        W28549  13.150  18.097  14.813 -0.2384 -0.2101  0.0228
 9696W        W28550   7.583   2.379  14.011  0.1185  0.4985  0.0700
 9697W        W28551   5.608   1.435  12.176 -0.2625 -0.1521  0.0142
 9698W        W28552  15.706   2.139  13.394  0.1098  0.1017 -0.1437
 9699W        W28553  14.814   7.053  11.333  0.1308 -0.0262  0.0157
 9700W        W28554   1.877   4.524  14.241  0.0173  0.5036 -0.0267
 9701W        W28555   1.142  15.809   9.673  0.1697  0.1272  0.1815
 9702W        W28556   5.492   3.671  14.226 -0.1058  0.0641 -0.1004
 9703W        W28557   8.269  17.696   1.451  0.0998  0.3505 -0.2975
 9704W        W28558   8.746   9.505  12.387 -0.3152  0.2170 -0.2159
 9705W        W28559   8.322   2.760   1.860  0.1740  0.2058  0.3459
 9706W        W28560   0.058   3.559   2.814 -0.0265  0.0267 -0.0726
 9707W        W28561   5.871   5.509   1.969 -0.1831  0.1576  0.0839
 9708W        W28562   7.948  16.868   4.781 -0.0236  0.0649  0.0352
 9709W        W28563   2.661   3.156   2.558  0.0278  0.1655  0.0204
 9710W        W28564  14.762   1.248   0.827 -0.1524 -0.1722 -0.0336
 9711W        W28565   0.642  13.091   1.051  0.1185 -0.2356 -0.1140
 9712W        W28566  13.888   0.886  11.410 -0.2003  0.0941  0.0079
 9713W        W28567   1.400   7.830  10.852 -0.0716 -0.0014 -0.1695
 9714W        W28568   7.268   0.107  14.494 -0.0077 -0.2641  0.0684
 9715W        W28569  15.924   1.651  12.056 -0.2312 -0.0181 -0.2767
 9716W        W28570   3.936  12.644  11.079  0.2894 -0.2085  0.2209
 9717W        W28571  10.378  12.286   1.650  0.0251 -0.1251  0.0489
 9718W        W28572  17.831  14.662   2.334 -0.1810  0.1236 -0.0001
 9719W        W28573   5.521   6.940   2.130  0.1011 -0.1539 -0.4971
 9720W        W28574  13.593  12.897   3.567  0.1403  0.0809 -0.0539
 9721W        W28575   0.371   5.145  13.102 -0.0642 -0.2105  0.1632
 9722W        W28576   3.999  10.013   4.460 -0.3472  0.0585  0.0524
 9723W        W28577   0.401  16.439   3.527 -0.2278 -0.2590 -0.2495
 9724W        W28578  14.230   2.426  10.998 -0.2394 -0.0638 -0.0063
 9725W        W28579  16.891   8.901  13.677 -0.3487 -0.0756  0.3700
 9726W        W28580   4.436  17.005   4.709 -0.0339 -0.3238  0.2057
 9727W        W28581   5.366  13.004   4.058  0.3010 -0.1697 -0.2114
 9728W        W28582   3.696  14.124   3.837 -0.1223 -0.0100  0.2722
 9729W        W28583  11.103   2.963  12.360  0.1131 -0.0487 -0.3038
 9730W        W28584  16.177  13.552  15.084 -0.0838 -0.3406 -0.0939
 9731W        W28585   3.663   0.587  14.114  0.1942  0.2184  0.2809
 9732W        W28586   7.727   4.845  14.031 -0.2364  0.1018 -0.0793
 9733W        W28587  13.866  16.861   4.480  0.2080  0.1964 -0.0050
 9734W        W28588   2.326   5.294   3.341  0.3448  0.1322  0.2489
 9735W        W28589  14.548  15.408   3.239  0.3182  0.2325  0.1898
 9736W        W28590   0.114   2.948  14.613 -0.0609  0.0512  0.0298
 9737W        W28591  16.634   5.613  10.583 -0.1282 -0.1243  0.2980
 9738W        W28592   1.864  14.332   0.554 -0.0556  0.0403 -0.0140
 9739W        W28593   6.715  13.389  11.286 -0.1422  0.0197  0.6439
 9740W        W28594  12.159   8.780  11.542 -0.0688  0.1526  0.3243
 9741W        W28595   5.555  18.477   3.298  0.2260  0.0975 -0.3073
 9742W        W28596  11.046  15.104  12.711 -0.0273  0.1475 -0.0368
 9743W        W28597   8.980  12.427  12.448 -0.1530 -0.2115 -0.1731
 9744W        W28598  14.961   8.884  10.607  0.0255  0.1620  0.1676
 9745W        W28599   9.445  18.744   4.315 -0.0888  0.0132 -0.0138
 9746W        W28600  16.701   5.213   2.978  0.0941 -0.2879 -0.2644
 9747W        W28601  15.157  10.008   0.761 -0.0980  0.3909 -0.3582
 9748W        W28602   8.160   6.868  13.197  0.0478  0.0367 -0.1674
 9749W        W28603   4.315  18.180  10.668  0.2104 -0.0420  0.0329
 9750W        W28604   8.093   1.636  14.596 -0.2761  0.0732  0.0143
 9751W        W28605   4.588  14.230  12.322  0.0873 -0.1416 -0.1194
 9752W        W28606  18.672   2.202  11.076 -0.1297  0.1938 -0.2475
 9753W        W28607   1.293   9.832   9.352  0.1316 -0.0012 -0.3206
 9754W        W28608  16.178   5.221  12.889 -0.0480 -0.1471  0.0746
 9755W        W28609   8.018  11.898   1.588  0.1002  0.0788 -0.3836
 9756W        W28610   3.436  17.626  11.028 -0.0487 -0.0661  0.2420
 9757W        W28611   3.341  14.074   1.766  0.0511 -0.1039  0.1064
 9758W        W28612   9.333  12.437   2.777 -0.1503 -0.0225 -0.2082
 9759W        W28613   8.214  16.747  12.183  0.1833  0.2459  0.0683
 9760W        W28614  10.637  15.111  13.059  0.0953  0.1826 -0.2255
 9761W        W28615  13.486   3.665  14.138 -0.1827 -0.0951  0.0194
 9762W        W28616  17.742  14.114   0.084  0.3964  0.1276  0.0037
 9763W        W28617  16.817   7.221   3.046 -0.0162  0.0352  0.1098
 9764W        W28618  12.710  16.762   3.123  0.2815 -0.0575 -0.0358
 9765W        W28619  14.367   0.944   0.669 -0.0908 -0.0028  0.2006
 9766W        W28620  18.360   1.160   3.929 -0.2264 -0.1522  0.2626
 9767W        W28621   1.672   3.235  10.212  0.0294 -0.0715  0.4329
 9768W        W28622   7.405  11.077   1.626 -0.3185  0.1351 -0.0203
 9769W        W28623   3.946   1.120  11.314  0.1291  0.2650  0.0551
 9770W        W28624  10.432   6.776   3.401 -0.0106  0.3329 -0.3989
 9771W        W28625   2.517  15.872   0.246  0.2100  0.0473  0.0667
 9772W        W28626   5.125   2.559   3.912 -0.5108  0.3992  0.4555
 9773W        W28627   4.538  11.655  13.780  0.1818  0.1680 -0.2848
 9774W        W28628  16.788   0.857  13.057 -0.0569  0.3151  0.2330
 9775W        W28629  14.654   1.063   3.317 -0.0066  0.1274  0.0830
 9776W        W28630  17.355   5.582   0.243 -0.0595  0.0581 -0.2374
 9777W        W28631   5.513  10.337   2.899  0.0567 -0.0919  0.1225
 9778W        W28632   4.492   6.111  13.853  0.4951  0.2816  0.2553
 9779W        W28633   6.955  13.451  10.859  0.1246  0.1911 -0.3320
 9780W        W28634   7.682   7.944   0.978 -0.1732  0.1875  0.1762
 9781W        W28635   9.599   4.173   2.842 -0.1963  0.1485  0.2788
 9782W        W28636  18.427  12.943   0.590 -0.0947 -0.4009  0.0926
 9783W        W28637   4.256  15.330  14.150  0.0557  0.1283  0.2097
 9784W        W28638   7.063  18.780   0.852 -0.3351 -0.1315 -0.0198
 9785W        W28639   1.632  10.372  14.002  0.1289  0.0528 -0.0277
 9786W        W28640  17.941  16.580  10.722  0.0495  0.0066 -0.0542
 9787W        W28641   3.167  11.452   0.655  0.0483 -0.3529 -0.2009
 9788W        W28642   1.679   7.926   0.945 -0.0987  0.0355 -0.2194
 9789W        W28643  15.067   6.135  14.278  0.1108  0.0776  0.3576
 9790W        W28644  18.262  12.959   4.542  0.1021 -0.2424  0.0490
 9791W        W28645  11.397  14.425   3.491 -0.1193  0.3410 -0.0849
 9792W        W28646  14.641   0.233   2.098 -0.1395  0.1344 -0.0024
 9793W        W28647   5.456   8.979   2.940 -0.2118 -0.2739  0.2744
 9794W        W28648   8.378  14.937   2.542  0.4013  0.0327 -0.1628
 9795W        W28649  18.825  12.564   0.916 -0.2676 -0.0365 -0.4224
 9796W        W28650  15.912   0.677  12.923  0.0804 -0.3043  0.0426
 9797W        W28651   7.075   8.255  13.650 -0.2339  0.1490 -0.3068
 9798W        W28652   4.284  17.756  12.765 -0.2189 -0.1220 -0.3651
 9799W        W28653   2.702  16.626  12.347 -0.1589 -0.1146 -0.0582
 9800W        W28654  18.274   7.176   3.388 -0.5118 -0.2115  0.2041
 9801W        W28655   8.581   5.971  12.739  0.1032 -0.0788 -0.1150
 9802W        W28656  12.804  12.027  12.131 -0.3360 -0.1182 -0.0085
 9803W        W28657   6.099   7.463   4.306  0.0115 -0.0668  0.2898
 9804W        W28658   2.339   5.871  14.292 -0.3365  0.0446  0.1852
 9805W        W28659  16.830  12.627   3.210  0.1251  0.0252 -0.1572
 9806W        W28660  15.387  18.292   4.452  0.2122  0.2702  0.1561
 9807W        W28661   6.493   6.031   4.063  0.0102 -0.0552 -0.0194
 9808W        W28662  16.712   6.517   0.352  0.0678 -0.1182  0.2408
 9809W        W28663  16.924  10.903   2.606  0.0955  0.1076 -0.2410
 9810W        W28664   8.154  13.951  14.664 -0.0652 -0.0482 -0.3007
 9811W        W28665  11.831   6.982   4.034  0.0773  0.0649  0.1336
 9812W        W28666   2.260  13.925  13.828 -0.1660 -0.1299  0.2999
 9813W        W28667  18.023   7.678  12.589 -0.0027  0.3514 -0.0595
 9814W        W28668   4.686  17.053  11.982  0.1068 -0.0772  0.2722
 9815W        W28669   4.346  16.981   0.450 -0.3891 -0.2368  0.1117
 9816W        W28670   3.641  10.557   0.244 -0.3670  0.1368 -0.0875
 9817W        W28671  14.062  14.285  14.787 -0.1404 -0.1253 -0.2549
 9818W        W28672   8.356   0.828  11.629  0.2141 -0.2061  0.1909
 9819W        W28673   8.520   5.041  14.531 -0.1807  0.0140  0.0334
 9820W        W28674  14.453  11.126  13.287  0.2427 -0.2870  0.0904
 9821W        W28675   7.888   8.080   4.646 -0.1593  0.2526 -0.2155
 9822W        W28676  10.696  17.521  11.995  0.1385 -0.0605  0.0325
 9823W        W28677   0.785   3.176   4.349  0.3662  0.0824 -0.0976
 9824W        W28678   5.094  14.708   0.911  0.4409 -0.0678  0.1926
 9825W        W28679  12.597   1.631  11.236  0.2408 -0.2662 -0.4544
 9826W        W28680   6.043  10.594   2.099 -0.2074 -0.0381  0.4686
 9827W        W28681   1.490   1.617  14.101 -0.0911 -0.0104 -0.2591
 9828W        W28682  12.135   2.982  12.603 -0.0731 -0.0404  0.1666
 9829W        W28683  16.168   1.892   0.113 -0.1588 -0.0101 -0.0027
 9830W        W28684   3.021  14.832   1.618  0.0532 -0.0535  0.0903
 9831W        W28685  12.023   7.516   1.010  0.1426 -0.1396 -0.2168
 9832W        W28686   7.891   6.797  12.763  0.3081  0.0169  0.0988
 9833W        W28687   4.727   4.445   0.094  0.1258 -0.2110 -0.2772
 9834W        W28688  16.889  11.661   9.975 -0.2083  0.0963  0.2038
 9835W        W28689   2.235   3.179   4.040  0.0548 -0.1588 -0.1408
 9836W        W28690   0.170   7.615   0.603  0.2305  0.0960 -0.1851
 9837W        W28691   0.509  17.718  13.083  0.1731 -0.1969 -0.4505
 9838W        W28692  11.834   3.879  11.243  0.0574  0.0976 -0.0261
 9839W        W28693   6.516  10.946   2.171  0.1729 -0.0489 -0.2102
 9840W        W28694  10.487   9.121  12.040  0.0928  0.3703  0.1235
 9841W        W28695  11.284  12.145  12.387  0.0513 -0.0758  0.1276
 9842W        W28696   7.511  16.050  14.127  0.1246 -0.1218  0.3169
 9843W        W28697   9.801   0.656  13.485  0.2399 -0.3580  0.1589
 9844W        W28698  16.470  14.114  11.399 -0.3968  0.3114  0.3165
 9845W        W28699  16.845   5.640  12.481  0.1198  0.0566  0.0878
 9846W        W28700   6.919  17.066  12.327  0.0038 -0.1960  0.1352
 9847W        W28701  17.816  17.406  11.181  0.1991  0.2223 -0.1235
 9848W        W28702  12.991  13.451  13.397 -0.0105 -0.1652  0.2656
 9849W        W28703  18.189   2.776   0.734  0.0181 -0.3724 -0.1351
 9850W        W28704   5.672   1.464   4.407 -0.1759 -0.2256  0.3197
 9851W        W28705   6.554  16.710   3.766 -0.1612  0.0180 -0.1752
 9852W        W28706   5.782   1.701   0.090 -0.3103 -0.1284 -0.0913
 9853W        W28707  12.456  18.150   2.208 -0.3570  0.0539  0.3035
 9854W        W28708   8.620  11.963   5.148  0.2975  0.2397  0.2560
 9855W        W28709   5.364  11.187  12.216 -0.0512 -0.0260 -0.0962
 9856W        W28710   2.792   9.233  13.332 -0.0602 -0.1003 -0.1554
 9857W        W28711   2.085   0.793   2.242  0.1877 -0.0059 -0.3295
 9858W        W28712  18.239   8.923   3.877 -0.0277  0.1097  0.1654
 9859W        W28713  18.299  16.475   2.747  0.0114  0.0578 -0.1039
 9860W        W28714  17.668   5.230  12.818  0.0021  0.1026 -0.0505
 9861W        W28715   9.229   4.344  11.736  0.1487  0.1632 -0.1743
 9862W        W28716  12.469  14.191  11.217 -0.1062 -0.1003  0.2618
 9863W        W28717   4.701   6.047  12.899  0.0262 -0.1517 -0.0303
 9864W        W28718  17.510  16.877   2.253 -0.0453 -0.4417 -0.1488
 9865W        W28719  12.426  14.350   9.810  0.0005  0.0990  0.0640
 9866W        W28720   3.822   4.616   5.582  0.2640 -0.2592  0.3885
 9867W        W28721  14.800   1.983  13.307  0.3170  0.0312  0.0865
 9868W        W28722   4.708   1.193  10.276  0.0306  0.3001 -0.2279
 9869W        W28723   9.429  14.274  11.612 -0.0656  0.0976 -0.3277
 9870W        W28724  15.543   0.691  12.269  0.0908  0.1767 -0.0809
 9871W        W28725   3.550  17.561   0.745 -0.0585 -0.2330  0.2408
 9872W        W28726  17.152   1.008   0.665  0.1236 -0.0147  0.3069
 9873W        W28727  10.529   1.275   4.468  0.0927 -0.1474  0.2621
 9874W        W28728   8.360   7.748  13.526  0.0968  0.0571  0.1806
 9875W        W28729  10.277   2.365   1.035  0.1764 -0.0918  0.3092
 9876W        W28730  15.611  14.604   0.787 -0.0137 -0.1425 -0.1604
 9877W        W28731   4.225   0.515   2.598  0.1163  0.0496  0.1421
 9878W        W28732  17.869  15.022   2.678 -0.1893  0.1251  0.4534
 9879W        W28733   9.983   1.201  13.016  0.1664  0.1453 -0.3389
 9880W        W28734   2.190  12.833   1.086 -0.0061  0.1838 -0.0225
 9881W        W28735  15.245  15.392  10.706  0.0947 -0.1904  0.0549
 9882W        W28736  13.899  10.716   0.547  0.1010  0.3438 -0.1017
 9883W        W28737  14.673   3.808  11.061  0.0598 -0.0581  0.1911
 9884W        W28738   8.499  14.565   1.963 -0.2514 -0.2663 -0.1408
 9885W        W28739   8.040   2.821  11.736  0.1564  0.1926  0.2478
 9886W        W28740   0.531  18.457   4.815 -0.0716 -0.0192 -0.1652
 9887W        W28741   5.696   8.440  11.721  0.1888  0.0622 -0.3352
 9888W        W28742  18.054  15.952   0.652  0.1549  0.1188 -0.0816
 9889W        W28743  10.789  14.702   0.296  0.0855  0.1875 -0.0172
 9890W        W28744  11.190  16.681   3.884  0.1164 -0.0018 -0.2848
 9891W        W28745   7.456  12.478   2.722 -0.0536 -0.1107  0.0824
 9892W        W28746   0.511   8.066  12.584  0.0345  0.0010  0.2294
 9893W        W28747  11.875   1.608  10.936 -0.1907 -0.0644  0.3805
 9894W        W28748   8.615   6.730   4.232 -0.0943 -0.0121 -0.3746
 9895W        W28749   6.885  17.403   0.886  0.0087 -0.1322  0.0725
 9896W        W28750   8.604   3.679  13.159  0.0688 -0.1701  0.1755
 9897W        W28751   8.327   7.593   1.869 -0.3561 -0.0830  0.0369
 9898W        W28752   1.076  13.832   0.776 -0.5104 -0.0089  0.1150
 9899W        W28753  13.327   1.070  12.358 -0.2073 -0.1579 -0.0618
 9900W        W28754   6.123  12.242  14.748 -0.1809  0.1060 -0.1995
 9901W        W28755   9.426   1.699  11.530 -0.0741 -0.1947 -0.2483
 9902W        W28756   9.439   7.307  11.214 -0.0795 -0.0962 -0.2230
 9903W        W28757   0.416   3.463   4.105  0.2402 -0.0723  0.3822
 9904W        W28758   0.305  10.823  10.119  0.0346 -0.3149  0.2681
 9905W        W28759   3.750  13.323  14.090 -0.3313  0.0510 -0.1471
 9906W        W28760  16.703   1.629   0.193 -0.0210 -0.0594  0.0562
 9907W        W28761   5.892   0.611   3.860 -0.3691 -0.2005 -0.0761
 9908W        W28762  16.650   0.411  14.529  0.2857  0.0178  0.0640
 9909W        W28763   0.260  10.270   0.066 -0.0289  0.1190  0.0964
 9910W        W28764  15.047  18.203   1.858  0.0557  0.1716  0.1333
 9911W        W28765  17.314   5.370   2.423 -0.0071 -0.1642  0.3961
 9912W        W28766  15.923   4.035   4.250 -0.1991  0.2114 -0.3293
 9913W        W28767  11.004   0.509  11.070  0.0206 -0.3249 -0.0855
 9914W        W28768   6.422  10.412   3.471 -0.0126 -0.2215 -0.4128
 9915W        W28769   0.153   1.667   3.471  0.1492  0.2143  0.1450
 9916W        W28770  12.399   0.106   0.932 -0.2336 -0.0748  0.1055
 9917W        W28771   3.317   5.034   4.381  0.0729 -0.1372  0.2651
 9918W        W28772  12.662  12.148   0.796 -0.0861 -0.0092  0.0466
 9919W        W28773   1.237   5.083  11.263  0.0055  0.0220 -0.1803
 9920W        W28774   5.396  16.219   0.088 -0.2389  0.1893  0.2574
 9921W        W28775   5.405  13.264  14.841 -0.0854  0.1020 -0.1313
 9922W        W28776   6.934  18.170  12.612  0.1731  0.2337 -0.0385
 9923W        W28777   5.791  15.295   1.833  0.1344 -0.1226 -0.5164
 9924W        W28778   4.718   5.025   0.925 -0.0525 -0.2454 -0.0108
 9925W        W28779   1.740   0.030  12.024  0.0278  0.1984  0.0596
 9926W        W28780   7.847   6.355   1.541  0.0051  0.1837 -0.0267
 9927W        W28781  17.941   4.628   0.087  0.2282  0.1538  0.1568
 9928W        W28782   1.414  15.579   3.728  0.2861  0.0022  0.0808
 9929W        W28783   3.966   7.612  11.284 -0.1815 -0.0376 -0.0219
 9930W        W28784  13.226   1.731  14.866  0.4934  0.1945  0.0051
 9931W        W28785  13.853   7.408  11.194  0.1412 -0.1411 -0.0335
 9932W        W28786   3.564  17.677  11.700  0.1889  0.0546 -0.0893
 9933W        W28787  18.693  12.766  13.469  0.1833 -0.2138  0.0866
 9934W        W28788   0.044  16.310  12.115  0.2083  0.0369  0.2272
 9935W        W28789   3.283   6.212   2.689 -0.0974  0.1059 -0.0176
 9936W        W28790   8.017   4.315  11.476  0.1879 -0.4190 -0.0522
 9937W        W28791  14.151   6.628   1.741  0.2544  0.0411 -0.1805
 9938W        W28792   7.406  17.854  12.328  0.1785 -0.3689 -0.0472
 9939W        W28793  11.115   5.708   1.952  0.3725 -0.3224 -0.0754
 9940W        W28794   6.553  10.847  14.871 -0.1014 -0.2548 -0.1137
 9941W        W28795  13.749   6.036  13.834 -0.0116  0.0411 -0.0832
 9942W        W28796  16.126   7.017   2.314  0.2606  0.1903  0.0207
 9943W        W28797   7.634   3.516   2.540  0.0033 -0.3933 -0.0680
 9944W        W28798  13.651   5.209  13.962  0.2735 -0.2448 -0.1440
 9945W        W28799   9.843  15.749   2.884 -0.1942  0.0065 -0.0010
 9946W        W28800   5.203   3.284  11.539  0.1266  0.0332  0.0964
 9947W        W28801   1.552  18.781   3.860  0.1036 -0.0802  0.4343
 9948W        W28802  16.674  13.437  11.559  0.1300 -0.2123  0.1120
 9949W        W28803   7.978  16.214  14.343  0.2365  0.3769  0.1192
 9950W        W28804   0.421  15.895  10.134  0.0420  0.1726  0.0667
 9951W        W28805   3.965   3.793  10.904  0.0275  0.2973  0.0896
 9952W        W28806   5.493   4.044   2.940  0.3770  0.0154  0.1736
 9953W        W28807   3.169   7.053  14.925 -0.2064 -0.2153 -0.0682
 9954W        W28808  10.732   9.571  12.050 -0.1512  0.1444  0.2987
 9955W        W28809   1.702   6.390  11.974  0.0166 -0.0289 -0.2195
 9956W        W28810   7.977   0.223   0.445  0.2253  0.1565 -0.2350
 9957W        W28811   4.024  15.072   3.929  0.0622 -0.1343 -0.1224
 9958W        W28812   0.663   0.843  13.322  0.0609 -0.3485 -0.0036
 9959W        W28813   2.685   8.507   0.070  0.1031  0.2055  0.0644
 9960W        W28814   9.976   9.770  13.646  0.1052 -0.0891 -0.0798
 9961W        W28815  13.171   0.159   0.272 -0.1054  0.0419  0.0534
 9962W        W28816   8.166   8.682   0.530  0.3601  0.2883  0.0944
 9963W        W28817  13.113  15.247  13.024 -0.0975 -0.1457  0.1163
 9964W        W28818  13.369  16.231   1.474 -0.3381  0.3616  0.3361
 9965W        W28819   2.207   1.305  11.102 -0.2921  0.0576  0.2465
 9966W        W28820  11.698  17.773  10.853 -0.0947 -0.0533  0.0641
 9967W        W28821  15.777   9.250  14.378 -0.0695  0.0266 -0.0729
 9968W        W28822  14.006  12.538   2.884 -0.3555  0.0380 -0.1594
 9969W        W28823  16.598  15.977   2.695  0.0340 -0.1661  0.0961
 9970W        W28824  11.501   3.175   3.214 -0.1798 -0.1575 -0.0573
 9971W        W28825   9.837   2.299  14.740  0.1842 -0.0821 -0.1028
 9972W        W28826  12.130   8.567  11.090  0.0432 -0.3235  0.0617
 9973W        W28827   7.444   8.161  11.468  0.0551 -0.0846 -0.2385
 9974W        W28828  17.256  13.300   4.335  0.3444 -0.1286  0.0296
 9975W        W28829   1.552   7.568   1.670  0.2560  0.0384 -0.2398
 9976W        W28830   4.244  11.495  10.900  0.0887  0.0898  0.0691
 9977W        W28831  16.690   4.176  14.751 -0.2152  0.1740 -0.0245
 9978W        W28832  10.742  12.915   2.555  0.1060  0.0134  0.1712
 9979W        W28833  10.791  16.786   3.082 -0.2755  0.0463 -0.1724
 9980W        W28834   4.407   6.868   0.775 -0.0703 -0.1605  0.0143
 9981W        W28835   2.172  18.800  12.280  0.0854  0.0506  0.1714
 9982W        W28836   9.786   9.180  10.928  0.0501  0.2807  0.1527
 9983W        W28837   8.185   2.925   1.032 -0.2012 -0.0005  0.1727
 9984W        W28838   7.547   6.353  14.543  0.1671 -0.0568  0.3373
 9985W        W28839   6.929  14.794  10.960 -0.0589 -0.2539 -0.3042
 9986W        W28840   1.263  12.521   2.361  0.3623  0.3226 -0.0314
 9987W        W28841   4.857   1.485   4.578 -0.0826 -0.0195 -0.1058
 9988W        W28842  11.238   5.578   3.270  0.0330 -0.1303 -0.0843
 9989W        W28843   9.245   0.420   0.802 -0.1344 -0.1282  0.1168
 9990W        W28844  17.217   4.802  12.718  0.0533 -0.1876  0.0078
 9991W        W28845  16.582  16.663   2.523 -0.6244  0.2443 -0.4491
 9992W        W28846   2.651   4.931   1.300  0.1254 -0.0524 -0.0865
 9993W        W28847   3.605  14.502   0.451 -0.0788  0.2191  0.2227
 9994W        W28848   7.340  15.554  10.780  0.1996  0.2999 -0.1406
 9995W        W28849  16.179  11.760  12.561 -0.2224  0.1641 -0.1157
 9996W        W28850  17.063   4.529   5.083  0.0304  0.0092  0.1432
 9997W        W28851   1.282  14.372   2.107  0.0493 -0.3548  0.1270
 9998W        W28852  15.498  11.706   2.266  0.0842  0.0996 -0.1384
 9999W        W28853  12.496   6.603   0.085 -0.1055 -0.1396  0.1380
10000W        W28854  11.961   9.556   4.822 -0.1698  0.1509  0.0069
10001W        W28855  12.131   6.383   0.629  0.1457  0.2730 -0.0327
10002W        W28856   9.066  15.015  13.884  0.0951  0.1152 -0.4179
10003W        W28857  14.445  12.657   0.629 -0.3140 -0.4717  0.0632
10004W        W28858  12.406   2.414  14.630  0.0778 -0.1571 -0.0888
10005W        W28859  17.078  12.107  14.055  0.0833  0.1190 -0.4340
10006W        W28860  14.278   4.484   4.745  0.0232 -0.1515  0.1134
10007W        W28861   5.596  13.589  11.560 -0.2548 -0.0506  0.0471
10008W        W28862   2.997  17.526  11.399  0.0095 -0.4576 -0.5441
10009W        W28863  11.141   1.453  12.190 -0.0159  0.0900  0.1106
10010W        W28864   2.290   7.336   0.502 -0.2574  0.1678 -0.0462
10011W        W28865   3.785  14.649   3.592 -0.1757 -0.4150  0.0889
10012W        W28866  10.434  12.654  13.555 -0.2273 -0.0398  0.0217
10013W        W28867   9.500  10.023   0.283  0.1103 -0.0049  0.3731
10014W        W28868   4.247  13.582  11.551  0.0415 -0.1232  0.0094
10015W        W28869   1.493  17.636   0.751  0.0008  0.1526 -0.2146
10016W        W28870  13.322   9.003  14.263 -0.0178 -0.2691  0.0229
10017W        W28871   6.630  13.823   4.214 -0.0399 -0.0867 -0.4656
10018W        W28872   7.895   6.773   2.383 -0.0407 -0.1506 -0.2698
10019W        W28873  14.376   3.018  12.416 -0.1053  0.2736  0.0585
10020W        W28874   9.254   6.193  14.452  0.1065  0.1590  0.0205
10021W        W28875   0.794  10.302  12.582 -0.1468 -0.0345  0.0916
10022W        W28876   5.511   7.504  11.873  0.2098 -0.1076 -0.0783
10023W        W28877  12.460   5.397   3.859 -0.2048  0.1952  0.3576
10024W        W28878   8.138   6.669  14.450 -0.0277  0.1457 -0.0197
10025W        W28879  10.031  18.525  10.815 -0.0357 -0.1143  0.2573
10026W        W28880   3.779   0.251   0.160 -0.2620 -0.1135 -0.1241
10027W        W28881  12.005   3.746  13.471  0.1390 -0.5734 -0.0090
10028W        W28882   7.109  12.169  14.596  0.1438  0.0168 -0.2019
10029W        W28883   6.704   8.283   5.464 -0.4141 -0.0782  0.1940
10030W        W28884  13.441   9.526   4.747 -0.4605 -0.1414  0.1651
10031W        W28885  15.787   4.898  14.593  0.0585  0.4425 -0.0258
10032W        W28886   9.403  15.939   3.079  0.4035  0.0836  0.0225
10033W        W28887   5.634   4.266  11.683  0.0564  0.0603  0.0379
10034W        W28888  18.055  11.995   2.374 -0.0575 -0.0048  0.2667
10035W        W28889   4.393   7.104   2.318  0.0657  0.1746 -0.1978
10036W        W28890  13.485   1.588  11.092 -0.1085 -0.3882  0.1696
10037W        W28891  11.873   1.547   2.749  0.0983 -0.1852  0.0779
10038W        W28892  13.979   6.446  11.222 -0.0385 -0.0323 -0.0251
10039W        W28893   2.169   5.369  14.410 -0.1052 -0.1716 -0.0931
10040W        W28894   9.139   0.964  11.977  0.1647 -0.1814  0.0536
10041W        W28895   2.190  13.043  14.506 -0.4941  0.0920 -0.0192
10042W        W28896  13.102  12.861  12.612  0.4828 -0.1082  0.0441
10043W        W28897   8.919   7.726  12.937  0.0176 -0.3570 -0.1446
10044W        W28898  11.074   5.164   4.289 -0.1291 -0.4221  0.2523
10045W        W28899  18.255   4.915  12.624  0.4503  0.0643 -0.0510
10046W        W28900  11.919  11.883  11.874  0.2361  0.0854 -0.1234
10047W        W28901   3.256   2.829   0.610  0.1992 -0.0347  0.1111
10048W        W28902   4.183  14.765   0.803  0.1596  0.0362 -0.2442
10049W        W28903  16.411  12.467   1.073  0.1864 -0.2281 -0.1188
10050W        W28904  11.847   6.672  14.503 -0.1764  0.1129 -0.1868
10051W        W28905  15.991   2.098  14.829  0.0890  0.0926  0.0656
10052W        W28906   1.939  13.074   0.615  0.2121 -0.1577 -0.0660
10053W        W28907  14.854  17.371   5.587  0.0804  0.1321  0.4719
10054W        W28908  14.330   6.030  13.883  0.3304 -0.2618  0.3122
10055W        W28909  14.718  14.999   2.446  0.4101 -0.1926  0.1998
10056W        W28910  14.749   7.959   0.860  0.2072  0.1690  0.1611
10057W        W28911  13.248  17.403   0.229  0.2854 -0.0574 -0.0588
10058W        W28912   7.982  13.818   0.835  0.0234  0.3416  0.0022
10059W        W28913  10.566   6.185  13.768  0.0277  0.3131  0.1089
10060W        W28914   9.018   9.176  11.883 -0.1027 -0.0618 -0.2977
10061W        W28915   8.025   0.152   4.057 -0.4307 -0.1225  0.3408
10062W        W28916  17.919  15.950  11.630 -0.0476  0.0045  0.0239
10063W        W28917   8.568  10.995   5.173  0.1003 -0.0349  0.3774
10064W        W28918  14.226   5.472   4.703 -0.1562  0.0462  0.0705
10065W        W28919  16.835  16.887   0.004  0.4461  0.1768  0.1756
10066W        W28920  16.565   1.095   1.107 -0.0748 -0.0726  0.0342
10067W        W28921   5.358   0.269  13.192  0.1298 -0.0524 -0.3396
10068W        W28922   0.156   7.807  12.955 -0.0258  0.1809 -0.1595
10069W        W28923  14.572   8.636  14.618  0.2570 -0.0490 -0.1030
10070W        W28924  17.091   9.163  11.915  0.2631 -0.0765  0.0542
10071W        W28925  13.550  13.742   2.336  0.0383 -0.1065 -0.2979
10072W        W28926  11.866  18.579  12.184 -0.1936 -0.2218 -0.0813
10073W        W28927  14.821  17.565  13.350  0.1560 -0.1771 -0.0035
10074W        W28928  14.379  17.553   4.619  0.3131  0.1099 -0.1506
10075W        W28929  13.308   1.268   0.035 -0.1119 -0.0667 -0.0531
10076W        W28930   9.941   4.745  13.618 -0.0108 -0.1166  0.0848
10077W        W28931  16.222  13.646  14.362  0.1688 -0.4607 -0.0482
10078W        W28932  17.263  14.997  12.486 -0.1156 -0.0193  0.0726
10079W        W28933   4.698   5.872   3.453 -0.0440  0.0346  0.3072
10080W        W28934  14.854   8.627   9.648 -0.1210 -0.0498  0.1598
10081W        W28935  12.031   7.961  14.028 -0.1399 -0.2053 -0.1534
10082W        W28936  10.157  16.459   1.270 -0.2355 -0.2122  0.0543
10083W        W28937  10.075  13.229   1.297 -0.3558 -0.0067  0.4535
10084W        W28938   0.584  14.233  13.022  0.0317  0.0938 -0.0570
10085W        W28939   0.367   6.933   1.628 -0.0363 -0.1722  0.4786
10086W        W28940   3.148   7.037  13.196  0.1166 -0.1606 -0.2473
10087W        W28941  13.970  10.486  14.723  0.0408 -0.0569 -0.1962
10088W        W28942  11.259   8.329   2.753  0.0130 -0.0359  0.1698
10089W        W28943  18.517  14.964   1.940 -0.0130 -0.1313 -0.0392
10090W        W28944   2.159  11.495  13.742 -0.0480  0.0398 -0.0099
10091W        W28945   2.890  16.787  11.563  0.1987 -0.3848 -0.5942
10092W        W28946  15.201   3.013  10.373  0.4749 -0.1470 -0.1387
10093W        W28947   2.530   4.618  11.787  0.2384 -0.2010 -0.1813
10094W        W28948   6.248   3.754  12.130  0.0635  0.0847 -0.2541
10095W        W28949  18.586  18.716  15.101 -0.0036 -0.1338  0.2393
10096W        W28950   3.287  10.294  13.084 -0.1387 -0.0795  0.0577
10097W        W28951   2.455   0.742   3.436  0.3369 -0.3025  0.0751
10098W        W28952   6.138   0.752   3.255 -0.1486  0.1297  0.0654
10099W        W28953   4.714  11.645  12.929  0.1111 -0.0222  0.3279
10100W        W28954  10.565  16.650  10.554  0.0148  0.1862  0.1758
10101W        W28955   2.765   3.195   4.001  0.2071 -0.1698 -0.3226
10102W        W28956  11.045   1.984   0.065 -0.1131  0.1080 -0.2225
10103W        W28957  17.673  13.247  14.432 -0.1764  0.2154  0.0917
10104W        W28958   4.476   0.383   3.952  0.4571 -0.0479  0.1028
10105W        W28959   7.855   7.247   4.175  0.0740  0.0901 -0.0532
10106W        W28960  16.656   8.513  12.917  0.1930  0.0677  0.0681
10107W        W28961   0.978   5.227   2.177 -0.1947 -0.0829  0.1422
10108W        W28962  15.353  14.506   1.281  0.0382  0.0260 -0.0338
10109W        W28963   4.315   2.895  11.654  0.0176  0.0368  0.0330
10110W        W28964   4.075   6.835  14.411  0.1686  0.1219 -0.0246
10111W        W28965   9.490  18.489   5.071  0.2153  0.1507  0.3413
10112W        W28966  13.348  14.492  10.018  0.2272 -0.1520  0.1370
10113W        W28967   8.387   0.934  10.790  0.0752  0.1377  0.0652
10114W        W28968   5.771   3.597  12.505  0.2728  0.0201 -0.5840
10115W        W28969   2.797   5.867  11.570  0.1814 -0.1032 -0.1379
10116W        W28970   4.306  12.814   3.083  0.2709  0.0905  0.0777
10117W        W28971   6.859  18.390   2.849  0.0990 -0.0294  0.1286
10118W        W28972   8.511  16.076  14.376  0.1911  0.0093  0.0072
10119W        W28973  11.530  13.514   3.547  0.0976 -0.0493  0.1625
10120W        W28974   5.744  15.302   4.814  0.0034  0.1754 -0.0174
10121W        W28975   8.114   6.722   4.216  0.1265  0.1311  0.1150
10122W        W28976  18.803   1.543  10.572 -0.2711 -0.0445  0.0263
10123W        W28977   8.841   9.814   5.187  0.1003 -0.0784  0.1443
10124W        W28978   7.632  10.420  12.046  0.1745 -0.3305  0.1216
10125W        W28979  16.789  11.209   1.361  0.1638 -0.0364  0.0428
10126W        W28980   8.344   7.775  10.736  0.1054  0.1335  0.1241
10127W        W28981  14.295   5.387   3.450 -0.1026 -0.2419  0.3572
10128W        W28982   1.541   9.668  13.494 -0.1162 -0.1341  0.0086
10129W        W28983   5.085  11.132  14.038 -0.1483 -0.1281  0.2543
10130W        W28984  15.171  11.173   3.650  0.3484  0.0967  0.0363
10131W        W28985   8.799   1.278   0.991  0.2317 -0.0253 -0.0549
10132W        W28986  13.474   4.060  13.445 -0.2134  0.0331  0.0608
10133W        W28987   9.070   3.453   1.552 -0.2350  0.0585  0.2403
10134W        W28988  13.163  10.313  15.108 -0.0235 -0.0533  0.0202
10135W        W28989  10.481   2.745  13.899 -0.1141  0.0880  0.2832
10136W        W28990  16.609   7.530  14.631  0.1262  0.1826 -0.2810
10137W        W28991   8.831   0.746   0.692  0.1715 -0.2745 -0.1126
10138W        W28992   8.831   3.057   3.201 -0.0603 -0.0225 -0.1764
10139W        W28993   8.133  12.794  12.954 -0.1927 -0.3932  0.1926
10140W        W28994  11.608   8.178   0.241  0.1412 -0.0688  0.2333
10141W        W28995  13.428   7.584  12.928  0.0377  0.1990 -0.0068
10142W        W28996   5.999   9.933   1.387 -0.0317  0.1861 -0.0779
10143W        W28997   2.596  17.359  11.768 -0.3279  0.0934  0.0551
10144W        W28998   8.889  11.162   1.442 -0.0256 -0.1376 -0.2728
10145W        W28999  13.245   5.898   4.685  0.1372 -0.2203  0.0935
10146W        W29000  16.060   8.277  14.304  0.0051 -0.0422 -0.1884
10147W        W29001   3.613  14.258  14.026  0.0272 -0.0857 -0.0116
10148W        W29002   8.194   0.069  11.088  0.1074 -0.0141 -0.1129
10149W        W29003  12.282   1.789   3.214 -0.0897 -0.2152  0.1064
10150W        W29004   2.302   1.317   1.618  0.1194  0.2984  0.0746
10151W        W29005  17.082   0.220  14.888  0.1969  0.1484  0.1778
10152W        W29006  15.502   0.533  12.728 -0.4357  0.3302 -0.2082
10153W        W29007  10.314  12.838   1.505  0.1179  0.0282  0.4255
10154W        W29008   0.781   3.445  14.776  0.4279 -0.2623  0.1647
10155W        W29009  10.046  16.397  10.783 -0.2521 -0.0098 -0.2931
10156W        W29010  15.088  18.746   1.885 -0.0583  0.2952  0.0069
10157W        W29011  14.503  10.860  14.165  0.0354  0.1059  0.0306
10158W        W29012   7.540   0.957   4.376  0.0484 -0.3985 -0.3480
10159W        W29013   5.028  17.424  14.360  0.0216 -0.0487  0.1006
10160W        W29014   8.490  12.454   0.316 -0.1549  0.1246 -0.3371
10161W        W29015   4.935   6.729   4.124  0.1073  0.1053 -0.1048
10162W        W29016   0.445  11.806   1.608  0.2037  0.0795  0.2848
10163W        W29017   6.868  13.942   3.305  0.0495 -0.0423 -0.4131
10164W        W29018   7.610  12.862   2.337  0.0239 -0.2143  0.0967
10165W        W29019   7.209   1.780   0.409 -0.0734 -0.2227  0.0003
10166W        W29020  15.181  18.038   0.250  0.0820 -0.1515 -0.3897
10167W        W29021  18.312  12.672   0.942 -0.2029  0.0758 -0.1419
10168W        W29022   3.913  16.865  11.641  0.1036  0.1348  0.0911
10169W        W29023  15.903  17.389   3.040  0.5138  0.2996  0.0255
10170W        W29024  18.487   3.524   3.113  0.1547  0.2225 -0.0931
10171W        W29025   7.576   8.023   1.780 -0.0791  0.0244 -0.6339
10172W        W29026  14.394   7.365   2.169  0.1536 -0.2202  0.2395
10173W        W29027   6.142  13.491   1.282 -0.0487  0.0599 -0.0903
10174W        W29028  12.015   2.287   3.982 -0.0754 -0.0199 -0.1785
10175W        W29029  13.226   2.925  14.650  0.0584 -0.0386  0.5044
10176W        W29030  11.495   9.854   2.990  0.1527 -0.1723  0.0253
10177W        W29031  10.939  14.948   4.724 -0.3087  0.1698 -0.1356
10178W        W29032   5.035  10.945  14.729  0.0792 -0.1612  0.2841
10179W        W29033  17.423   4.463  10.403  0.2110 -0.1102  0.0689
10180W        W29034   6.110   7.568   0.750 -0.3349  0.1833  0.1329
10181W        W29035   1.368  11.992   1.562 -0.3363 -0.1207 -0.1314
10182W        W29036  17.880  11.448  12.389  0.2935  0.1291 -0.2895
10183W        W29037   9.480  10.372  10.919  0.0330 -0.3650  0.2470
10184W        W29038   3.727  11.475   2.121 -0.0159  0.4024  0.0601
10185W        W29039  12.089  13.803  11.541  0.0999  0.0167  0.0198
10186W        W29040  12.573   6.857   5.429 -0.1134  0.0040 -0.2057
10187W        W29041   4.573  13.753  10.733 -0.1742  0.0304 -0.1359
10188W        W29042  16.588   3.241   2.892  0.2131 -0.1961  0.1094
10189W        W29043  12.594  14.169  12.870  0.0622 -0.1961  0.1558
10190W        W29044  13.372   5.247   3.587 -0.3000 -0.0245  0.4871
10191W        W29045  13.147  10.801   1.179 -0.0404  0.1126  0.2539
10192W        W29046   7.390  14.683  13.491 -0.0654  0.1193  0.1201
10193W        W29047   7.470  16.384   3.631  0.1730  0.0450 -0.0752
10194W        W29048   6.338   0.736   9.812 -0.2969 -0.1563 -0.1528
10195W        W29049  17.982   5.137  11.643  0.1130 -0.2129  0.3363
10196W        W29050  12.466   6.545  12.778 -0.0395  0.0206  0.2332
10197W        W29051   4.398   7.452   3.270 -0.0555  0.0547  0.0102
10198W        W29052   7.082   0.641   1.421 -0.0605 -0.0555 -0.0419
10199W        W29053   8.601  17.589   0.758 -0.2195  0.2591  0.4993
10200W        W29054   9.241  14.779  11.976 -0.2450  0.2477 -0.2233
10201W        W29055   9.592   6.303   2.802 -0.1013  0.2025  0.2574
10202W        W29056   5.111   7.200  11.991 -0.1912 -0.1664 -0.0068
10203W        W29057  14.297  13.539   4.536 -0.0316 -0.0886 -0.0775
10204W        W29058   6.347  15.006  13.549  0.0343 -0.0220 -0.3308
10205W        W29059   4.359   7.538  11.657  0.2219 -0.0378  0.1142
10206W        W29060  14.365   8.053   0.379  0.0508 -0.0470 -0.1821
10207W        W29061  16.271   4.666   2.274 -0.0119  0.1207  0.0388
10208W        W29062  15.576   0.704   0.887 -0.0313 -0.3278  0.4244
10209W        W29063   1.612   0.278   1.765 -0.2602  0.1463 -0.3660
10210W        W29064  16.652  10.642   1.507 -0.1960 -0.2523  0.2219
10211W        W29065   7.687  17.384   0.935  0.0524 -0.1932  0.0253
10212W        W29066   4.725   7.817   4.319 -0.1356  0.3641 -0.0452
10213W        W29067  12.414  14.616   0.647  0.2023  0.0463  0.0835
10214W        W29068  15.517  16.834  11.147  0.1063  0.1508  0.1855
10215W        W29069  16.741   0.537  12.023 -0.1277  0.0577 -0.3407
10216W        W29070   4.716  17.809  13.142  0.0273  0.0852  0.1629
10217W        W29071  14.769   7.624  13.007  0.0399  0.0835  0.1193
10218W        W29072  14.443   5.672   4.261 -0.0406 -0.1281  0.0246
10219W        W29073  17.124   2.176  11.055  0.1634  0.1560 -0.1623
10220W        W29074   8.317   0.219  13.521 -0.0133  0.0142  0.0377
10221W        W29075   2.865  12.493  14.038 -0.1276  0.1021 -0.1532
10222W        W29076  12.521   1.732  14.899 -0.2772  0.0487 -0.0777
10223W        W29077   8.453   1.860   3.899 -0.2041 -0.1421  0.0430
10224W        W29078  10.815   8.722  11.816  0.0418 -0.2173 -0.0903
10225W        W29079   4.379  16.839  12.863  0.0026  0.1871 -0.0781
10226W        W29080  14.080   5.346  10.680  0.1167 -0.2844  0.4194
10227W        W29081   3.409   9.708   2.970  0.1976  0.0374  0.0405
10228W        W29082   1.342  16.932   1.585  0.1978  0.0994  0.0765
10229W        W29083  14.152  17.298  15.021  0.0391  0.1422 -0.2774
10230W        W29084  12.458   1.456   1.967  0.0903 -0.0289 -0.0046
10231W        W29085  12.634   3.252   3.957  0.0883 -0.1208  0.3800
10232W        W29086   6.485   3.736  13.511  0.3394  0.0053 -0.3133
10233W        W29087   9.184   6.749  11.930 -0.1264 -0.2204 -0.1137
10234W        W29088  14.181   2.003   3.287 -0.1498  0.3718  0.0735
10235W        W29089   5.300  10.209   1.917  0.0479  0.1017 -0.1651
10236W        W29090  12.822  14.221   2.629  0.0773  0.3205  0.0134
10237W        W29091  17.834  18.491   1.568 -0.0244 -0.2783  0.1029
10238W        W29092   8.176   4.303  12.858 -0.0104  0.1942 -0.5310
10239W        W29093  14.594   6.766   0.445 -0.0576 -0.2567  0.2674
10240W        W29094  16.482   1.563  13.396  0.1537  0.2262  0.1101
10241W        W29095   8.880  11.499   2.690 -0.3089 -0.2550  0.1344
10242W        W29096   8.220  10.845  12.922  0.0022  0.1015  0.0303
10243W        W29097   3.718  10.585  10.963  0.0112  0.3161 -0.1193
10244W        W29098   0.940   1.238  11.809 -0.1708  0.1177  0.0734
10245W        W29099   5.716  18.268   1.945  0.3215 -0.0130 -0.1825
10246W        W29100   4.837   8.681   2.627  0.0168 -0.0768 -0.2947
10247W        W29101   7.451  14.974   3.536  0.1872  0.0170  0.0284
10248W        W29102   7.379  16.474  12.922  0.5032 -0.2369  0.0275
10249W        W29103   7.988  12.505  11.307  0.0334 -0.3511 -0.2119
10250W        W29104   5.787  12.754  14.972 -0.1585 -0.1062 -0.1087
10251W        W29105   9.131  10.380  14.711 -0.0394 -0.0140 -0.0300
10252W        W29106   1.575  11.287   0.011  0.0595 -0.1775  0.1098
10253W        W29107   9.652  14.500  12.002  0.3699 -0.2376  0.0803
10254W        W29108   4.453   1.115  13.823 -0.0370  0.1238 -0.3638
10255W        W29109   3.525   8.718  10.793  0.1567 -0.3189 -0.0607
10256W        W29110  13.229   3.858   0.930 -0.1289  0.1267  0.0189
10257W        W29111   6.566  16.502  13.276  0.0154 -0.2575  0.0939
10258W        W29112   3.347  17.614  13.188 -0.1865  0.0066 -0.0347
10259W        W29113   5.136  16.650  15.126 -0.0429  0.0657  0.2132
10260W        W29114  14.245  18.267   0.099  0.1324 -0.0434  0.2970
10261W        W29115  10.356  17.651  11.137  0.0944 -0.0130  0.0126
10262W        W29116   2.347  13.437  10.818 -0.0257 -0.7266 -0.2987
10263W        W29117   0.171   5.538   3.275  0.0700  0.1129 -0.1480
10264W        W29118  15.876  14.332  11.907  0.0296 -0.0407  0.4316
10265W        W29119   3.322   4.884  13.396 -0.2029 -0.1949 -0.2684
10266W        W29120  18.201  12.782   1.799  0.2394 -0.0383  0.0455
10267W        W29121   8.115   4.950   1.173  0.0879  0.1153  0.0633
10268W        W29122   6.762  12.605  12.660  0.5774  0.3677  0.2610
10269W        W29123  11.065   8.456   3.459 -0.1847 -0.1967  0.1795
10270W        W29124   0.358  16.811  11.611 -0.1525 -0.0334  0.1509
10271W        W29125   7.549   8.299  13.850  0.0043 -0.0815  0.0514
10272W        W29126   5.479  12.294  12.156 -0.1295 -0.0081  0.0677
10273W        W29127  17.813  14.970  14.812 -0.0893 -0.0284  0.1350
10274W        W29128  18.717   4.815  11.892 -0.0860  0.1219  0.2092
10275W        W29129   2.971  16.997   1.424  0.1528  0.0457 -0.2348
10276W        W29130   1.308   1.291   4.433 -0.0976 -0.0257  0.2709
10277W        W29131  15.807  16.630   4.299  0.2776  0.2336  0.1043
10278W        W29132   5.193   7.497   5.572  0.3174 -0.1228 -0.0752
10279W        W29133   1.099  16.063   1.229 -0.0636  0.0012  0.1373
10280W        W29134  12.260   6.785  11.063  0.0047 -0.2196 -0.1266
10281W        W29135   8.061   8.771   3.174 -0.0154  0.3354  0.1265
10282W        W29136   6.396   8.498   1.382  0.0792 -0.1155  0.3496
10283W        W29137   3.038  11.589  10.732  0.1113 -0.3008  0.0188
10284W        W29138   6.789  17.855  13.011 -0.1059 -0.0412 -0.1160
10285W        W29139   0.924   8.190   1.829  0.0381 -0.1473  0.0308
10286W        W29140  16.982   2.717   0.925 -0.1664  0.0288 -0.0266
10287W        W29141  16.453  14.443   0.855  0.2345  0.4651  0.1524
10288W        W29142   3.180  15.807  10.622 -0.1293 -0.1758 -0.0345
10289W        W29143  14.324   9.924  14.530  0.4904  0.0973 -0.0392
10290W        W29144   4.614  11.673  14.679  0.3071 -0.3316  0.0513
10291W        W29145   5.822  11.813   0.560 -0.0021  0.1106  0.0980
10292W        W29146   0.380  12.741   1.943  0.0366  0.3619 -0.1501
10293W        W29147  15.285   8.039   2.709  0.0671  0.0527 -0.0171
10294W        W29148   5.825  15.107   5.279  0.4482 -0.4588 -0.0344
10295W        W29149   4.861  14.049   2.438 -0.2705 -0.2486  0.1576
10296W        W29150   1.971  13.830  11.537  0.0296 -0.1433  0.0524
10297W        W29151   4.849   2.621   0.765  0.0182 -0.0540 -0.0527
10298W        W29152  10.341   6.224   2.740 -0.0826 -0.0408  0.1032
10299W        W29153  15.659   5.142   1.762  0.1096 -0.0042 -0.1198
10300W        W29154   2.228   2.473  14.867 -0.1380  0.1265 -0.0767
10301W        W29155  11.117  17.116   4.164  0.2719  0.0889 -0.2329
10302W        W29156   7.280   2.702  13.310  0.3568  0.0554 -0.5096
10303W        W29157  12.860  10.129  13.590 -0.2497  0.0991  0.4098
10304W        W29158  10.989   6.267   3.526  0.1294 -0.1539  0.1889
10305W        W29159  11.091   1.557   1.433  0.0603  0.0222  0.3227
10306W        W29160  15.185   1.886   0.317  0.2689 -0.2781 -0.0977
10307W        W29161   2.970   9.674  14.255  0.2522 -0.1177 -0.1062
10308W        W29162  14.379   0.367  11.649 -0.2192 -0.0793 -0.4078
10309W        W29163   9.486   7.463   1.763  0.1167  0.1705  0.4508
10310W        W29164   7.938   2.446   0.881 -0.3099 -0.1994 -0.2002
10311W        W29165   5.814  16.166  12.060 -0.0794 -0.3693 -0.0857
10312W        W29166  17.701   3.450   2.021  0.0212  0.2217  0.0909
10313W        W29167   4.417   9.218   3.851  0.2382  0.1208  0.2784
10314W        W29168  17.260   4.811   2.200  0.0823 -0.2384  0.1031
10315W        W29169   8.777   0.712  11.090  0.0014 -0.0843  0.0025
10316W        W29170   3.785   6.316   0.742 -0.1510  0.0099  0.2497
10317W        W29171   9.966  10.119   2.312 -0.0066  0.0857  0.1529
10318W        W29172   2.055   3.910   4.713 -0.1431  0.0749  0.3766
10319W        W29173   8.329   6.454   4.671  0.0470  0.2270 -0.1465
10320W        W29174   0.707  16.014  14.489 -0.1978 -0.3231 -0.2076
10321W        W29175   3.005   7.441  11.169 -0.0084 -0.0579 -0.1379
10322W        W29176   2.221  10.663   0.954  0.1563  0.0049  0.1864
10323W        W29177  12.729   9.948   4.384  0.0535 -0.0602 -0.2340
10324W        W29178   6.089   3.539  14.838  0.0318  0.0230 -0.0718
10325W        W29179   8.491   1.117  13.742  0.1693 -0.1517  0.1600
10326W        W29180   2.133  10.808  11.453 -0.0058 -0.1304 -0.0949
10327W        W29181  12.857  15.855  13.708  0.3133  0.1377  0.0617
10328W        W29182  16.930   0.432   2.299 -0.3168 -0.1966 -0.3838
10329W        W29183   5.180  10.045   3.197  0.1633  0.0267 -0.1215
10330W        W29184   6.964   0.117  11.335 -0.0561 -0.2527 -0.3740
10331W        W29185   4.017   4.013   9.983  0.1320 -0.0995  0.0492
10332W        W29186  10.088  10.456  11.720 -0.1877  0.0495 -0.0059
10333W        W29187   4.492   1.975  11.122  0.0367  0.5795 -0.1772
10334W        W29188  12.331  18.275   4.377  0.0493  0.0527 -0.2693
10335W        W29189   0.262  17.952   2.228  0.1291  0.0480  0.2693
10336W        W29190  18.824   4.381  10.908 -0.1328 -0.1652  0.1463
10337W        W29191   1.821  15.734  11.181 -0.0260  0.0004  0.0702
10338W        W29192   1.018  11.068   0.314  0.2138  0.1400 -0.1915
10339W        W29193   3.281  10.068   0.212 -0.1648  0.3880 -0.0754
10340W        W29194  14.220   4.116   3.145 -0.0172  0.2626  0.0591
10341W        W29195   2.012  14.380   3.490  0.0481 -0.0091 -0.0279
10342W        W29196  12.193  15.495   1.044 -0.2057  0.0588  0.1297
10343W        W29197   8.833  15.627  15.060  0.1065  0.3683 -0.1475
10344W        W29198  16.059  15.467  12.358 -0.1270 -0.1384 -0.1712
10345W        W29199  16.518   4.856   2.683 -0.2531 -0.1308  0.2787
10346W        W29200   5.439  11.083   9.454 -0.2762 -0.1021  0.2504
10347W        W29201  11.698  13.378  11.615 -0.0760  0.0406  0.1304
10348W        W29202   1.219  11.201   3.092  0.0662  0.1789 -0.0253
10349W        W29203   0.342  18.025  11.671 -0.0688 -0.0309  0.0040
10350W        W29204   4.335   0.529   2.100 -0.1624  0.1514 -0.0842
10351W        W29205   5.743   0.347  14.318  0.2625 -0.1299 -0.0218
10352W        W29206   9.746   7.329   4.429 -0.0736  0.1132  0.1075
10353W        W29207  12.391   3.813   4.479  0.2142  0.2679  0.0307
10354W        W29208   2.605  15.704  10.537  0.0649 -0.0059  0.3667
10355W        W29209  14.301   4.903   3.719 -0.0760 -0.0256  0.1745
10356W        W29210   5.117  10.395   3.641 -0.0303 -0.0814 -0.0139
10357W        W29211  17.644   6.766   2.528 -0.0516 -0.0176  0.1533
10358W        W29212   5.261  16.871  14.550 -0.0941  0.2680 -0.1412
10359W        W29213  13.217  15.381   3.898 -0.2164  0.2333  0.0388
10360W        W29214  14.612   1.454   4.438  0.5395 -0.2783  0.1219
10361W        W29215  14.537   3.449  12.528 -0.3097  0.1072 -0.0723
10362W        W29216  16.663  11.123   4.273  0.1295  0.2633 -0.0909
10363W        W29217   2.726  18.734   4.313 -0.1424 -0.2892  0.0401
10364W        W29218   1.668   2.516  10.704 -0.4391  0.2162  0.0808
10365W        W29219   3.146   9.968  13.899 -0.0777  0.0041 -0.0747
10366W        W29220  10.397  17.808  10.584  0.2193 -0.0858 -0.1854
10367W        W29221   9.337   7.630   0.633 -0.1951  0.4213  0.2061
10368W        W29222  10.543  12.144  13.616 -0.2570  0.1126  0.0495
10369W        W29223  17.603  15.407   1.954 -0.0115  0.0204  0.1504
10370W        W29224   3.411  18.567   2.706 -0.3347  0.4980 -0.0993
10371W        W29225  18.608   0.804  14.890 -0.0066 -0.1106  0.2621
10372W        W29226  11.819   3.902  14.324  0.1186  0.1318  0.0991
10373W        W29227   9.787   0.142   4.674  0.1430  0.1997 -0.0179
10374W        W29228  14.805  15.062   4.407 -0.1320 -0.2134  0.1225
10375W        W29229  17.132   3.811  11.889 -0.0146  0.0021  0.0458
10376W        W29230   5.492  18.168  12.309  0.0644  0.1988  0.3336
10377W        W29231  11.169  13.296   0.486 -0.0996 -0.1135  0.0719
10378W        W29232   6.044  12.178   0.944 -0.1099  0.3896 -0.1745
10379W        W29233   0.119   7.192   2.655 -0.0288  0.3034  0.0794
10380W        W29234   0.185   0.721  15.070  0.1708 -0.0182  0.0649
10381W        W29235  15.255  15.884   2.401  0.2253 -0.1112  0.0229
10382W        W29236  14.067   6.006  14.360  0.0900  0.1186  0.0366
10383W        W29237  17.073   9.245  14.598 -0.0537 -0.1206 -0.1753
10384W        W29238   7.337  14.189  13.748 -0.1415  0.1132  0.1747
10385W        W29239  16.344  12.540  14.669 -0.1456 -0.1895 -0.1194
10386W        W29240  13.927  18.409   0.504 -0.0659 -0.2474  0.0137
10387W        W29241   0.347  18.471   2.412 -0.1141  0.0255 -0.0995
10388W        W29242   6.720  14.720   4.085  0.0118  0.1837 -0.3357
10389W        W29243   6.408   2.375   0.368  0.1423  0.3798 -0.0788
10390W        W29244   7.434   0.159  12.542 -0.3188  0.3799  0.2133
10391W        W29245   4.376  13.937  14.159 -0.0157 -0.0366 -0.0767
10392W        W29246   1.063   3.252  12.192  0.1222  0.1945  0.1781
10393W        W29247   0.786   0.629   3.911 -0.0300 -0.1121  0.1274
10394W        W29248   5.957   1.804  14.732 -0.0801  0.0324 -0.4615
10395W        W29249   4.520  16.162  10.752  0.1364  0.1837 -0.0615
10396W        W29250  14.908  13.756  12.651 -0.0788 -0.0080 -0.2236
10397W        W29251  18.285   4.924   0.882  0.2219  0.0598  0.0772
10398W        W29252   5.244  11.625  11.100  0.4150 -0.1530  0.1223
10399W        W29253  16.240  10.180  14.971  0.1038  0.0796  0.1124
10400W        W29254   7.550  18.580  13.745  0.0959  0.2013  0.2644
10401W        W29255  11.402  10.893   1.356  0.3308 -0.0680  0.2241
10402W        W29256   6.657   1.007   2.462  0.1477  0.1836  0.1213
10403W        W29257  17.578  12.189  13.838  0.0333 -0.0834  0.3543
10404W        W29258  17.776   9.601   5.448  0.3577  0.0674  0.0383
10405W        W29259   0.916   9.129  10.656  0.0952  0.1949  0.2590
10406W        W29260  14.500   4.911  13.462  0.2546  0.0476 -0.0302
10407W        W29261   8.820   6.136   4.383 -0.1659 -0.2999  0.0025
10408W        W29262   1.150   8.479   2.695  0.0296 -0.0851 -0.0229
10409W        W29263  11.933   9.126   1.015  0.2873  0.1645 -0.2452
10410W        W29264  17.774   5.608   4.999  0.3022  0.0878  0.0919
10411W        W29265   8.871  14.587  10.997 -0.1362  0.0167 -0.3561
10412W        W29266  10.144  18.471  11.490  0.3436  0.1130 -0.3371
10413W        W29267  17.007   4.689   1.719  0.2012 -0.2172 -0.1267
10414W        W29268  18.736  16.806  12.179  0.2896  0.1462 -0.0600
10415W        W29269  14.888   7.428   3.816  0.0049 -0.1649  0.1611
10416W        W29270   4.237  11.143  14.108 -0.0421 -0.0141  0.1984
10417W        W29271   7.509   1.056   3.505 -0.2350  0.2046 -0.1590
10418W        W29272   0.553   7.499   1.514  0.0447  0.0462  0.4367
10419W        W29273  10.462   9.019  12.895 -0.2589 -0.1015  0.0011
10420W        W29274  10.809   8.143   2.121  0.0868  0.1816 -0.1004
10421W        W29275  16.963  16.586   3.373 -0.2814  0.0475  0.2797
10422W        W29276  16.711  18.251  14.772  0.1299 -0.0792  0.0186
10423W        W29277  15.374   2.304   0.261  0.0404 -0.1892 -0.2433
10424W        W29278  18.602  11.920   0.839  0.0825  0.0250 -0.0063
10425W        W29279  14.669  13.961  11.131  0.0916 -0.1951  0.2155
10426W        W29280   6.322   2.142  12.405 -0.0307 -0.1346  0.0705
10427W        W29281  14.996   4.735  10.969  0.1101 -0.1400  0.0024
10428W        W29282   1.041  14.785   2.327 -0.0194  0.0379 -0.2425
10429W        W29283  14.171   7.778  14.185 -0.3371 -0.1622 -0.0664
10430W        W29284  15.426   8.909   0.887  0.1572  0.0441  0.1820
10431W        W29285   5.152  15.799  13.318  0.0018  0.0185  0.2981
10432W        W29286   0.363   1.906  12.837  0.0868 -0.0928  0.2659
10433W        W29287   4.936   5.653   3.066 -0.0848  0.2834  0.0919
10434W        W29288   9.649   2.555  11.118 -0.1846  0.3504  0.0704
10435W        W29289  18.555  13.801   0.476 -0.1334  0.1868  0.3057
10436W        W29290  17.339   5.646  12.414  0.0419  0.2029 -0.1092
10437W        W29291   9.418  10.439   1.700  0.0845  0.2515 -0.1540
10438W        W29292   4.681  17.972  11.943  0.1059  0.0686  0.2321
10439W        W29293   3.740   5.834  11.150  0.2771  0.1180  0.1882
10440W        W29294   6.570  11.521   1.215  0.2151  0.0763 -0.1245
10441W        W29295  15.351   9.321   2.363  0.2604 -0.0408  0.1896
10442W        W29296   0.327   3.853  11.856 -0.0674 -0.0000 -0.4794
10443W        W29297  13.378   0.107  10.915  0.1885 -0.0109 -0.1441
10444W        W29298  17.799   9.905   2.850 -0.0814 -0.1714 -0.2199
10445W        W29299  12.841   3.136  11.929  0.2715  0.0819 -0.3454
10446W        W29300   5.992  17.919   0.141  0.2171 -0.0848 -0.0371
10447W        W29301  14.938   2.432  15.031  0.0597  0.0128  0.0490
10448W        W29302   9.482  12.776   1.857 -0.0733 -0.1907  0.1999
10449W        W29303   6.991   5.963  12.453 -0.1794  0.1343  0.0879
10450W        W29304   6.430  11.696   4.311 -0.1457  0.1360 -0.2634
10451W        W29305   1.848   1.242   2.480 -0.1772  0.1310  0.0573
10452W        W29306   9.672   5.004  12.184 -0.0699 -0.4073  0.1119
10453W        W29307   8.240   4.464  13.988 -0.2281  0.1265  0.1867
10454W        W29308   8.194  16.476  11.596 -0.1766  0.2521  0.2311
10455W        W29309  13.747   2.506  15.038 -0.0201 -0.0109 -0.2410
10456W        W29310   3.231  14.509   0.116  0.1576  0.2593 -0.1333
10457W        W29311  13.402   4.488   1.842  0.0274  0.2797 -0.0924
10458W        W29312  12.405  11.282  14.050  0.0273  0.0955  0.0257
10459W        W29313  14.830   5.611   4.591  0.0667  0.1195 -0.3402
10460W        W29314  14.304  15.393   0.803  0.1916  0.1211 -0.3327
10461W        W29315  17.775   3.915   1.069 -0.0186  0.1096 -0.0620
10462W        W29316  10.374  12.262   5.097 -0.0816 -0.0460  0.1264
10463W        W29317   3.762   6.206   0.123  0.0113  0.1997 -0.2703
10464W        W29318   0.279   9.567   2.580  0.0236  0.1575 -0.0877
10465W        W29319   6.850   7.644  11.891  0.1531  0.0916  0.1203
10466W        W29320   5.375   1.144   0.596 -0.2408 -0.0898  0.2839
10467W        W29321  14.498   6.696  13.835 -0.2069 -0.2647  0.4978
10468W        W29322   5.729  17.337   2.438 -0.0803 -0.1122 -0.1646
10469W        W29323   8.008  12.646   3.165  0.1664  0.0816  0.0795
10470W        W29324   1.530   9.037  14.517  0.1559  0.0513  0.3209
10471W        W29325   7.618   9.510   2.549  0.0334 -0.0508 -0.1574
10472W        W29326  12.408   7.041  12.163 -0.0340 -0.0927  0.0727
10473W        W29327   8.383   8.670   3.584  0.1413 -0.1259 -0.2321
10474W        W29328  14.663   8.308   1.232  0.2385  0.1050  0.1776
10475W        W29329  17.540   2.836  11.735 -0.0394  0.0700 -0.2369
10476W        W29330   6.919  11.208  12.196 -0.0804 -0.1331 -0.1461
10477W        W29331   2.294   0.661  14.197  0.0182  0.0673  0.0335
10478W        W29332   6.720  15.319  14.320  0.4191 -0.0442  0.0756
10479W        W29333  13.379   8.535  10.126 -0.1026  0.1370  0.0134
10480W        W29334  16.595   3.240  11.235 -0.3719  0.1233 -0.0700
10481W        W29335   2.805  16.158   2.763 -0.0286 -0.1857  0.3586
10482W        W29336   5.744   2.375  13.632 -0.4096 -0.0787 -0.2299
10483W        W29337   9.988  11.096   3.399 -0.3602 -0.1844  0.0380
10484W        W29338  14.648   7.871   2.193  0.2898 -0.0205  0.1267
10485W        W29339   7.217  14.302  10.437 -0.0025 -0.0194  0.2287
10486W        W29340   1.915   8.496  12.005 -0.4485 -0.0170 -0.0462
10487W        W29341   6.279   5.013  14.228  0.0906  0.1314  0.3255
10488W        W29342  16.528  14.622  14.504  0.1130  0.1137 -0.0621
10489W        W29343  13.454   7.163   4.624 -0.0725 -0.0313  0.3962
10490W        W29344  12.392   0.016  10.898 -0.1787  0.1904  0.4039
10491W        W29345   9.433  12.212  13.492 -0.1123 -0.1356  0.2082
10492W        W29346   8.645  16.192   0.892  0.1868  0.1356 -0.0928
10493W        W29347   5.788   2.795   1.081 -0.0541  0.1383  0.1447
10494W        W29348   3.289  17.035   3.753 -0.2528  0.1167 -0.2298
10495W        W29349  16.374  14.156   4.890 -0.2722  0.1542  0.1444
10496W        W29350   1.316   0.645   3.877 -0.1019  0.0545 -0.1289
10497W        W29351   8.859  18.523   4.026  0.2119 -0.1907  0.0335
10498W        W29352  10.620  11.501  12.969  0.2473  0.1822  0.1837
10499W        W29353  10.996  18.727  11.782  0.0856  0.2629 -0.0588
10500W        W29354  13.220  15.752   1.600  0.1941 -0.1135  0.1834
10501W        W29355  10.177   2.657   1.463  0.0422  0.1289 -0.2376
10502W        W29356  17.947   7.335   4.280  0.0854  0.0802  0.1809
10503W        W29357   4.870   3.383  11.937 -0.0102 -0.1725 -0.1268
10504W        W29358   4.524   9.659   2.149  0.0764 -0.2969 -0.0058
10505W        W29359   8.377  14.080   0.692  0.5333  0.1004  0.2361
10506W        W29360  10.380  17.076   1.976 -0.1282  0.2884 -0.1782
10507W        W29361   9.007   7.097  14.172  0.2341  0.2223  0.0006
10508W        W29362  10.280   0.146  10.706  0.1968 -0.1886 -0.1299
10509W        W29363   4.549  10.316  10.847  0.0082  0.1215  0.0204
10510W        W29364   7.554   5.576  12.198 -0.1018  0.0701 -0.0422
10511W        W29365   3.853   2.837   2.804 -0.3211 -0.1318  0.2361
10512W        W29366  13.546  17.896   3.863 -0.0408  0.0268 -0.3465
10513W        W29367  13.824  15.878  12.007  0.0454  0.2515 -0.1757
10514W        W29368  16.566  10.212   3.943  0.0035  0.1498 -0.1564
10515W        W29369   9.470   2.402   1.570  0.2472 -0.1020  0.3908
10516W        W29370   7.972  15.207   2.735 -0.4610 -0.1774  0.0425
10517W        W29371   3.272   3.899  12.286  0.1859 -0.1303  0.2823
10518W        W29372  16.746   2.382  10.812 -0.4357  0.3379  0.1230
10519W        W29373  11.480   2.832   4.452 -0.0112  0.0673 -0.6246
10520W        W29374   6.915   0.477  11.751  0.2845  0.1060  0.1567
10521W        W29375   5.693  16.119   2.503  0.0004  0.1369  0.1852
10522W        W29376   9.485   3.325   5.548 -0.0453 -0.3620 -0.0376
10523W        W29377   4.179  11.943   0.179 -0.1871 -0.3063 -0.1197
10524W        W29378  15.295  10.550  12.623  0.0356  0.4738  0.0896
10525W        W29379   8.279  13.931   3.783  0.2714  0.0426 -0.0192
10526W        W29380  15.095  11.800   0.387  0.3768 -0.0834 -0.2749
10527W        W29381   4.683  18.235  14.008 -0.0834  0.1696  0.0599
10528W        W29382  15.983  10.535  11.548 -0.0574 -0.1881 -0.0553
10529W        W29383  14.474  17.409   0.779 -0.0461  0.0376  0.0785
10530W        W29384  16.230   9.718   2.365 -0.0117 -0.2687  0.0625
10531W        W29385  11.359   1.459  14.471  0.1135 -0.1184 -0.2101
10532W        W29386  12.388  13.330  14.620  0.2529  0.0133  0.2895
10533W        W29387  14.519  10.185   3.037 -0.0439  0.1443 -0.0846
10534W        W29388   5.419  18.195   4.343 -0.3460  0.0305 -0.0698
10535W        W29389  11.217  11.333   0.271 -0.1706 -0.1038 -0.0702
10536W        W29390   9.490   2.516   4.079 -0.1040 -0.0003  0.0566
10537W        W29391  16.542   0.581  13.422 -0.2462 -0.0675 -0.2083
10538W        W29392  10.558   9.237   0.676 -0.1462 -0.3241  0.1544
10539W        W29393  17.359   0.892  14.115 -0.0634 -0.1719  0.0882
10540W        W29394  17.049  16.519   2.315  0.0895 -0.2291  0.1963
10541W        W29395   0.554  13.220   1.528 -0.0172 -0.1077  0.2674
10542W        W29396   5.493   1.051   3.944  0.0022  0.5993 -0.1227
10543W        W29397  11.030  12.705   2.208 -0.1199  0.0468  0.1482
10544W        W29398   9.533  12.098   0.573 -0.0681 -0.2837  0.1142
10545W        W29399   3.352  16.502  14.214 -0.0442 -0.2626 -0.1705
10546W        W29400  14.947   9.420  13.428 -0.0161  0.0499  0.0195
10547W        W29401  14.414  11.854   3.274  0.1751  0.3853  0.2190
10548W        W29402  18.711   3.603  13.715  0.0677  0.0429  0.1082
10549W        W29403   7.129   6.746  11.791 -0.0958  0.3796  0.2142
10550W        W29404  14.022  13.820  14.905  0.4156  0.0194  0.0051
10551W        W29405   4.821  16.488   4.809 -0.2388  0.1315  0.0481
10552W        W29406   2.260  17.029  13.726 -0.1466 -0.1256 -0.0952
10553W        W29407   2.036  12.936  11.875  0.3122 -0.0429  0.1247
10554W        W29408   6.296  18.450  14.116  0.0944  0.0550 -0.0842
10555W        W29409  14.559   1.837   2.957  0.3385 -0.1326  0.0445
10556W        W29410   5.777  11.688   3.815 -0.1720  0.0750 -0.1482
10557W        W29411   1.248  11.546   9.386  0.4263  0.1270 -0.1308
10558W        W29412   0.128   9.148   1.525 -0.1235 -0.2241 -0.1639
10559W        W29413  14.049  11.633   0.999  0.0919  0.0622  0.0580
10560W        W29414  12.707   8.472   4.283  0.0011 -0.1518 -0.3926
10561W        W29415  12.950   1.950   2.607 -0.1714  0.4478 -0.0787
10562W        W29416   2.070   5.385   2.905  0.2276  0.3215  0.0794
10563W        W29417  14.826   4.560   0.242  0.1501 -0.1797 -0.3773
10564W        W29418  16.719   3.555   0.857  0.2104 -0.1980  0.1398
10565W        W29419  18.839   4.907   1.452  0.2615 -0.1687 -0.2178
10566W        W29420  17.256  15.349   1.409 -0.3038  0.0317 -0.1778
10567W        W29421   7.002  16.592   3.491 -0.0735  0.1667  0.0080
10568W        W29422   9.705  11.166   2.984 -0.0439  0.2416  0.1316
10569W        W29423   1.224   5.617  10.362 -0.4024 -0.1813 -0.2969
10570W        W29424  13.466  15.187   2.914 -0.1626 -0.0470  0.1651
10571W        W29425   2.910  12.556  15.041 -0.1912  0.1105  0.4345
10572W        W29426   8.455   2.271   2.143 -0.0247  0.1235 -0.1046
10573W        W29427   9.547  17.860   3.358 -0.0034 -0.0549 -0.2844
10574W        W29428   6.404  18.812   1.630  0.3012 -0.0524 -0.0162
10575W        W29429  17.781   1.192  12.785 -0.0371 -0.2495  0.1019
10576W        W29430  13.514  13.700  14.816  0.2425  0.1353 -0.1946
10577W        W29431   5.493  14.303   3.003 -0.1262  0.1044 -0.3094
10578W        W29432   1.495  12.841   1.651  0.0147 -0.0355  0.0987
10579W        W29433  17.935  11.964   0.688  0.2003  0.0418 -0.0089
10580W        W29434   8.360   7.290  12.043  0.2256 -0.0618 -0.2426
10581W        W29435   0.957  15.126  11.081  0.1279  0.1378  0.1830
10582W        W29436  17.208   7.351   2.630  0.3998 -0.4014 -0.0362
10583W        W29437  18.768  17.031  11.384 -0.0136 -0.0757  0.0639
10584W        W29438   7.325   5.670   0.567  0.3766 -0.0344  0.5099
10585W        W29439   3.596  16.817  13.159 -0.1554 -0.3795 -0.1620
10586W        W29440  10.881  14.191   3.850  0.0271 -0.0766 -0.3530
10587W        W29441   1.988  16.895  11.723 -0.0285 -0.0209 -0.2077
10588W        W29442  11.465   1.955   2.615 -0.0566  0.0127 -0.1581
10589W        W29443  17.300  18.431  11.999 -0.1951  0.0368  0.1208
10590W        W29444   1.478  10.955   0.360 -0.1725 -0.2520  0.2215
10591W        W29445  11.325   7.244  12.492 -0.0775 -0.0990 -0.0761
10592W        W29446  11.435  11.807   0.655 -0.0398  0.3035 -0.0335
10593W        W29447  15.540  11.675   4.249 -0.1005 -0.2181  0.0782
10594W        W29448   4.057   5.903   3.523  0.0239  0.3893  0.0470
10595W        W29449  17.810   1.350   1.658  0.1415 -0.2460 -0.0015
10596W        W29450  18.572   1.665  14.518  0.0978 -0.1449 -0.0805
10597W        W29451   5.293  12.083   1.461  0.1695  0.1293 -0.1796
10598W        W29452  10.811   2.182  11.672 -0.0453  0.3294  0.2095
10599W        W29453   4.206   6.577   2.503 -0.1606 -0.1690 -0.3596
10600W        W29454  12.781   4.003   1.624  0.1207  0.2818  0.0861
10601W        W29455  12.819   1.107   1.984  0.0533 -0.0926  0.1346
10602W        W29456   2.052   4.351  13.117  0.2505  0.0065 -0.1673
10603W        W29457   2.104  12.349   1.118 -0.0404  0.2646 -0.1926
10604W        W29458  17.178   2.602   3.829  0.3957  0.0713 -0.0996
10605W        W29459   3.806   4.530   2.592  0.1735 -0.0632  0.4886
10606W        W29460  12.122  16.860   2.246 -0.0440 -0.0443  0.1305
10607W        W29461   7.391  10.897  11.895  0.0974 -0.1134  0.2243
10608W        W29462  12.555   6.079   0.707 -0.1529 -0.1810 -0.0271
10609W        W29463  13.024  10.604  14.191 -0.1306  0.1248  0.1553
10610W        W29464   2.820   8.034   2.892  0.1790  0.3430  0.0450
10611W        W29465  12.219   1.319  11.251 -0.0236 -0.2099  0.1195
10612W        W29466   5.433  12.716  13.511  0.1832  0.0600 -0.1036
10613W        W29467  18.771  15.205  11.410  0.0193 -0.0048 -0.0420
10614W        W29468  14.645  16.065   0.901 -0.1959 -0.0825 -0.2989
10615W        W29469  18.619   4.557  12.819 -0.1046  0.0856 -0.0535
10616W        W29470   1.058   4.028  14.886  0.0756  0.0029 -0.1002
10617W        W29471   4.107   8.542  13.034  0.3263  0.2665 -0.1040
10618W        W29472  17.136   9.744   2.255  0.2137 -0.1936 -0.3471
10619W        W29473   4.945  18.013   0.565 -0.2022  0.1423 -0.2707
10620W        W29474   1.923  13.814   3.674  0.1143 -0.1144 -0.4353
10621W        W29475   3.179   7.752  12.352  0.3658  0.2637 -0.0220
10622W        W29476   7.638  15.606  15.015  0.2969  0.3044 -0.0736
10623W        W29477  14.599   7.470  11.501 -0.3540  0.0266 -0.0263
10624W        W29478   9.585  15.673  14.629 -0.2997 -0.0215 -0.1146
10625W        W29479  10.090   6.211  13.510 -0.1700 -0.1176 -0.1778
10626W        W29480   2.260  13.341   0.836 -0.0794 -0.1833 -0.1598
10627W        W29481   6.405  11.335  14.117  0.0622 -0.0990  0.1079
10628W        W29482  17.166  11.326   0.535  0.0445  0.1570  0.3107
10629W        W29483  11.524   4.422   4.689  0.3888 -0.0902  0.0889
10630W        W29484  10.635   1.035   0.881 -0.1875 -0.2199  0.1523
10631W        W29485   7.624  15.272   2.194 -0.2435 -0.0887  0.2671
10632W        W29486   1.870   5.045   3.209 -0.1466  0.0505 -0.3295
10633W        W29487  11.014   7.974  12.114  0.1984 -0.0968  0.1200
10634W        W29488   4.511   1.888  12.886 -0.1807  0.2053 -0.0621
10635W        W29489   0.833   1.439  13.574  0.0499 -0.2531  0.0867
10636W        W29490  18.509  15.284   5.487 -0.0019  0.0839  0.0929
10637W        W29491   4.616   3.531  12.362 -0.0278 -0.0204  0.3250
10638W        W29492  16.277  17.486   4.331 -0.1806  0.1250  0.1107
10639W        W29493  12.521   6.120  11.878 -0.0286  0.1905  0.1617
10640W        W29494  11.149   4.299  11.913 -0.1030  0.1746 -0.1423
10641W        W29495   8.439   2.186  13.757  0.2091  0.1297 -0.1288
10642W        W29496  10.474  17.815   4.458 -0.0665  0.0353 -0.3355
10643W        W29497   5.949   1.373   4.001  0.1419 -0.2327 -0.1512
10644W        W29498  16.728   8.991   0.006 -0.1825 -0.1248 -0.0117
10645W        W29499  11.260  18.615  13.338 -0.0874 -0.2305  0.1890
10646W        W29500   7.277   6.732   1.578 -0.1370  0.2115  0.2232
10647W        W29501   2.010  14.375  13.533 -0.1768 -0.1107  0.0092
10648W        W29502  17.604   8.200  13.765 -0.2303 -0.1912 -0.2683
10649W        W29503   8.440   2.854  10.146 -0.0778 -0.2516  0.1203
10650W        W29504  12.595  13.556   2.478  0.2190  0.3431  0.1279
10651W        W29505   5.978  17.222  14.290  0.2752  0.0209  0.4250
10652W        W29506  13.347   9.849  14.369 -0.0683 -0.0191  0.2067
10653W        W29507  17.737   3.272   2.517  0.0912 -0.0389 -0.1780
10654W        W29508   7.309   7.606   2.175  0.1318 -0.1078 -0.0127
10655W        W29509   3.847  13.531  10.267 -0.1957 -0.2940  0.0165
10656W        W29510   8.070   8.435   1.833 -0.1068  0.1060  0.0126
10657W        W29511  12.527   5.932  14.527  0.1546  0.3567  0.0873
10658W        W29512  10.756  12.510  14.889 -0.0858  0.0758  0.2048
10659W        W29513  17.335   2.256   1.612 -0.2174 -0.1078  0.0473
10660W        W29514   6.969  17.571   3.376  0.2837  0.1661  0.0072
10661W        W29515   5.700  14.380  14.260 -0.2171 -0.0098  0.2424
10662W        W29516   3.108   9.144  12.436  0.0193 -0.3147  0.1230
10663W        W29517  18.510  10.969  11.657 -0.0390  0.0328 -0.0811
10664W        W29518   2.996   3.028  10.958 -0.0152  0.3649  0.0694
10665W        W29519   2.749  18.233  13.504  0.0776  0.1386  0.2456
10666W        W29520  10.464  12.350   4.239  0.0578  0.0693  0.0608
10667W        W29521   3.750   2.878   3.806 -0.1622  0.1890  0.0796
10668W        W29522   1.139   6.811   0.387 -0.1049 -0.0528 -0.0860
10669W        W29523   6.475   9.904   2.749  0.2001 -0.2945 -0.2114
10670W        W29524   0.532  17.143   1.666 -0.1767 -0.2025 -0.2584
10671W        W29525   8.532   5.587   2.243 -0.2149 -0.0544  0.1752
10672W        W29526  11.685  17.631   2.066 -0.1436  0.1866  0.0190
10673W        W29527   5.959  16.769  14.548 -0.0609  0.0229  0.0476
10674W        W29528   0.684  10.680  12.114 -0.0470 -0.1436  0.0857
10675W        W29529   0.823   1.052   2.680 -0.5238  0.0071  0.1613
10676W        W29530   1.987   5.813   0.243 -0.0704 -0.0816 -0.1571
10677W        W29531  12.646   1.810  12.415 -0.0762  0.1735 -0.0500
10678W        W29532  15.264   0.899   1.648  0.1794 -0.0101 -0.0757
10679W        W29533  16.074   4.107   3.489 -0.0297 -0.2173  0.2756
10680W        W29534   4.016  14.132  11.591 -0.1803  0.0118  0.1305
10681W        W29535  17.750   9.188  12.594  0.2588  0.1189 -0.1459
10682W        W29536   1.719   3.668   3.482 -0.1501  0.3652  0.1469
10683W        W29537   4.085   8.875   0.335 -0.2869  0.1463  0.1300
10684W        W29538   6.654  15.011  12.176  0.0461 -0.3354  0.0407
10685W        W29539   1.127   4.334  13.635  0.4168  0.0416  0.0449
10686W        W29540   6.474   4.855  13.060 -0.1269  0.3351  0.0652
10687W        W29541  12.381  14.535  14.877 -0.1280 -0.1778  0.1867
10688W        W29542   6.906  11.510  13.632  0.0123 -0.1406 -0.0688
10689W        W29543  10.918   6.806   3.552 -0.0866  0.1382  0.0113
10690W        W29544  10.658  12.422  14.028  0.2315  0.0396  0.0048
10691W        W29545  16.910   1.474   0.662  0.0950 -0.0514  0.1274
10692W        W29546  12.476   7.611   3.900  0.1718  0.0002  0.0766
10693W        W29547   7.759   8.719   0.953 -0.0022 -0.2269 -0.1255
10694W        W29548   9.589   6.587  11.587  0.2169  0.2556 -0.0203
10695W        W29549   1.746  12.766  13.081 -0.0819  0.3089 -0.0590
10696W        W29550  15.817   8.501   0.014  0.1631 -0.0342  0.1038
10697W        W29551   1.288  10.129  13.605 -0.3429  0.2086 -0.0916
10698W        W29552   1.755  17.213   4.192 -0.0641  0.1108  0.0919
10699W        W29553   4.653   1.562   0.768  0.0597  0.1316 -0.2301
10700W        W29554  13.619  17.677   2.466 -0.1537  0.0524 -0.0820
10701W        W29555  14.555  16.859   2.869  0.0462  0.1513  0.1649
10702W        W29556   4.423  12.290  11.602 -0.1790  0.2491  0.0481
10703W        W29557  15.202   8.792  12.779 -0.1769 -0.0008  0.1240
10704W        W29558   3.352   0.712   1.194  0.0807 -0.2208 -0.1704
10705W        W29559   0.130   8.412  13.729 -0.0824  0.4697  0.0930
10706W        W29560  14.164  11.394   0.279  0.2436 -0.0394  0.0618
10707W        W29561   1.103   4.505  14.144  0.3191  0.1576 -0.1170
10708W        W29562  17.388   5.070   2.808 -0.3025 -0.2615  0.0395
10709W        W29563  18.203   6.781  12.005  0.0509 -0.1563 -0.1504
10710W        W29564   8.067  17.654   1.938  0.0114  0.0608  0.1964
10711W        W29565   1.851  17.904  14.616 -0.0826 -0.1527 -0.1497
10712W        W29566  16.781  16.300   1.344 -0.1806  0.1605  0.1663
10713W        W29567  13.873  12.645  11.875 -0.0882 -0.2548 -0.1763
10714W        W29568   8.275  15.970   2.001 -0.2634  0.2535  0.1123
10715W        W29569   5.285  10.594   0.434 -0.0359 -0.2393 -0.0834
10716W        W29570   4.050  18.517   2.837  0.1482 -0.0173  0.1065
10717W        W29571  15.656   1.209  11.365  0.3675  0.3522  0.3478
10718W        W29572  16.807   7.600   1.238 -0.1929  0.1108  0.1289
10719W        W29573  13.609   4.562  10.474  0.0490 -0.2501 -0.2175
10720W        W29574   8.657   2.986  12.419 -0.3748 -0.3101  0.4143
10721W        W29575  10.482   0.699   1.724  0.1302  0.0923  0.0764
10722W        W29576   8.028  13.280   1.650 -0.2079  0.0102 -0.0666
10723W        W29577   9.355  14.951   2.694  0.2330 -0.3063 -0.1956
10724W        W29578   5.124   8.193   0.399  0.0825  0.2180 -0.0538
10725W        W29579  11.482  14.150   0.017 -0.1776  0.1727  0.2324
10726W        W29580  15.423  14.625  12.027  0.1294  0.0184  0.2792
10727W        W29581  15.786   6.831  15.110  0.1442  0.2306 -0.1821
10728W        W29582   3.241   4.069   0.642  0.1407  0.2470  0.0746
10729W        W29583  17.690   5.676   3.973 -0.1243  0.1556 -0.3227
10730W        W29584   6.284  11.515   0.379  0.1443 -0.0426 -0.0253
10731W        W29585  10.342  17.489   4.095 -0.0770 -0.0188 -0.1345
10732W        W29586   7.682  13.024   0.446 -0.0467 -0.1299  0.3926
10733W        W29587  16.564   2.462  14.001 -0.1754  0.3318  0.0636
10734W        W29588   7.611  14.463  11.716  0.0369  0.2267 -0.2830
10735W        W29589   9.816  16.811   2.574 -0.0860  0.1304 -0.2079
10736W        W29590  10.790  13.424  13.738 -0.1732 -0.0678 -0.0443
10737W        W29591   9.954   9.640   4.197 -0.1132  0.0565  0.1795
10738W        W29592  12.566  17.983  12.006  0.0337 -0.0733  0.0109
10739W        W29593   2.071   8.787   0.618 -0.0965 -0.0344 -0.0074
10740W        W29594   7.809   8.517   2.253 -0.0565  0.0155 -0.0859
10741W        W29595   7.007   8.674  12.848 -0.0907 -0.3270  0.1018
10742W        W29596   8.651   7.905   3.901  0.0628 -0.1339 -0.2592
10743W        W29597  15.521   6.403   0.409 -0.0073 -0.2610 -0.1789
10744W        W29598   5.252   9.068   2.509  0.0067  0.2993 -0.3176
10745W        W29599   0.496  11.103  10.603 -0.3433 -0.0095 -0.1190
10746W        W29600  11.641  14.993  15.060 -0.1786 -0.0276  0.3634
10747W        W29601   3.322  15.525   3.129  0.2389  0.0245  0.4481
10748W        W29602  12.101   1.941  13.359 -0.0031 -0.1222 -0.2198
10749W        W29603   2.274  14.899  13.512 -0.1482  0.0558 -0.2350
10750W        W29604   2.879  16.508   3.748 -0.1867 -0.0827  0.0789
10751W        W29605  17.229   6.385   1.017  0.2413 -0.0276  0.0299
10752W        W29606  15.471   2.707   4.273 -0.2582 -0.0054  0.0672
10753W        W29607   3.929   9.938   9.521  0.0352 -0.1374  0.0657
10754W        W29608   5.612  14.978   0.938  0.2310 -0.2322 -0.1463
10755W        W29609   7.681   5.678  11.653  0.2375 -0.4854 -0.0082
10756W        W29610  11.196  14.732  14.502  0.3817 -0.3930 -0.0468
10757W        W29611  16.010  10.334   4.067 -0.0453 -0.2033  0.1614
10758W        W29612  18.336  18.323   1.956 -0.0419 -0.0364  0.1282
10759W        W29613  13.643  10.773  11.199  0.1790 -0.2607 -0.1902
10760W        W29614  11.591  16.846   3.477 -0.1170 -0.0797  0.0762
10761W        W29615  11.732  13.921   3.818  0.1679  0.1105 -0.1324
10762W        W29616   3.504   5.643  14.547 -0.0268  0.2081  0.0815
10763W        W29617   8.124   9.099   0.232 -0.0860  0.0613  0.1325
10764W        W29618   7.346  12.365  13.178 -0.0552 -0.0748  0.1722
10765W        W29619  12.374  13.827   0.270 -0.0926 -0.1041  0.1218
10766W        W29620  18.239  13.203  11.099  0.2403  0.0941  0.2461
10767W        W29621  10.980   4.671  11.572 -0.2446 -0.0276  0.0758
10768W        W29622  12.842  15.507  11.847  0.3908 -0.1939 -0.0879
10769W        W29623   4.230  11.809   3.089 -0.1285 -0.0174 -0.0802
10770W        W29624  14.892  13.611   0.168  0.0139  0.2072  0.0586
10771W        W29625  11.876   5.691   4.510  0.1439  0.1521  0.0644
10772W        W29626   7.811  12.170  14.478 -0.5226 -0.3527 -0.0710
10773W        W29627  13.976  12.373   1.313  0.0252  0.3120  0.0666
10774W        W29628   7.185   5.837   3.204  0.2123  0.0407  0.2371
10775W        W29629  18.740   8.887   0.714 -0.3334 -0.0871 -0.2521
10776W        W29630  13.823   4.058  13.854 -0.0637 -0.0083 -0.1766
10777W        W29631   9.318   4.164   4.100  0.0243  0.0610  0.1829
10778W        W29632  15.311   1.370   0.945 -0.2123  0.1448 -0.1381
10779W        W29633   2.313  11.001  14.523  0.0424  0.1619 -0.2096
10780W        W29634  12.553  13.441  13.879 -0.0186  0.3331 -0.0665
10781W        W29635  11.453  17.635   3.304 -0.2188  0.0648 -0.0851
10782W        W29636   1.399   5.232   1.235 -0.1979  0.0529  0.0511
10783W        W29637   9.840  11.516   4.380  0.1606 -0.0317  0.3554
10784W        W29638  18.702  15.945   3.594 -0.2149  0.2460  0.4005
10785W        W29639   0.158   5.424  13.637  0.0119  0.2796 -0.1141
10786W        W29640  17.482   7.742   1.055 -0.1791  0.2467 -0.4310
10787W        W29641   9.882   3.824  10.491  0.0815  0.0523 -0.0785
10788W        W29642  13.864   3.243  11.155  0.0245 -0.0563  0.3123
10789W        W29643  13.650   3.214  14.385 -0.1509 -0.1211  0.1779
10790W        W29644  12.432  18.560   3.650  0.2437  0.0476  0.3700
10791W        W29645  18.675   5.073  13.918  0.1645 -0.2914 -0.0801
10792W        W29646   5.920  12.162  12.593 -0.2412 -0.0844  0.3005
10793W        W29647   9.172   1.723   2.338  0.0038 -0.2385  0.2524
10794W        W29648  18.665  17.507   1.218 -0.1071  0.1670  0.1971
10795W        W29649  18.816   2.965   1.880 -0.1028  0.0179 -0.2174
10796W        W29650  14.375  14.564   3.270 -0.1350  0.2642 -0.1845
10797W        W29651   3.774   4.494   4.381 -0.2040  0.1813  0.1267
10798W        W29652   5.616   2.966  14.884 -0.0075 -0.0045  0.0907
10799W        W29653   2.456  15.687  13.294  0.1662  0.0435 -0.1862
10800W        W29654  14.848  16.245   0.274  0.0439 -0.1036  0.1126
10801W        W29655   7.615   6.803   4.306  0.4033 -0.0074 -0.2751
10802W        W29656   1.843  13.220  10.761  0.0205 -0.1069  0.0074
10803W        W29657   1.010  11.608   1.602  0.0248  0.0873 -0.3230
10804W        W29658  12.030  16.314  11.752  0.2746  0.2228 -0.0457
10805W        W29659   2.259   0.414   0.989 -0.3961  0.1351  0.0385
10806W        W29660  12.179   6.944  13.742 -0.2078 -0.2464  0.1675
10807W        W29661   9.252   4.988   0.450  0.0208 -0.0222 -0.2909
10808W        W29662  18.699  18.354   3.661  0.1517  0.2640 -0.0213
10809W        W29663   0.095  12.574  12.506 -0.0427 -0.1823 -0.1476
10810W        W29664  11.951   5.312  15.026 -0.0803  0.0864  0.0278
10811W        W29665  13.228  13.652   3.424 -0.0323  0.1263  0.2047
10812W        W29666  10.221   7.732  13.116  0.0714  0.0153 -0.0686
10813W        W29667  11.404   1.534  13.057  0.0880  0.0494 -0.0232
10814W        W29668   3.927  15.167   1.101 -0.1855 -0.1702 -0.1363
10815W        W29669  12.269   4.140  14.351 -0.1920 -0.0949  0.4954
10816W        W29670  13.585  11.829  11.606  0.0858  0.2715  0.2436
10817W        W29671   2.907  17.330   0.187 -0.3227  0.2091 -0.1229
10818W        W29672  13.593   8.051   0.210  0.1201 -0.1657  0.1451
10819W        W29673  15.478   1.564   0.475 -0.0955  0.1668 -0.3855
10820W        W29674  13.883   6.727  13.162  0.1744  0.0061 -0.1929
10821W        W29675   6.250   5.443  14.527 -0.1712 -0.0818  0.1521
10822W        W29676  17.180   9.407  12.375  0.2094  0.2262  0.2296
10823W        W29677  18.855  10.400  12.766 -0.1266  0.0344  0.0699
10824W        W29678   4.923  13.112  11.888 -0.1403 -0.1310 -0.0642
10825W        W29679  18.189  11.762   1.957  0.2087  0.2024 -0.1549
10826W        W29680   1.126  15.233   3.890 -0.1884  0.5668 -0.0729
10827W        W29681   9.813  14.563  11.244 -0.0792 -0.1237  0.1383
10828W        W29682  12.449   9.808  13.782 -0.2760 -0.1886 -0.0452
10829W        W29683  15.558  17.205  13.812 -0.1234  0.0296 -0.0519
10830W        W29684  10.562   8.930   5.739  0.0894  0.2512  0.3269
10831W        W29685   2.888  16.279  10.792  0.0340  0.1612  0.0644
10832W        W29686  18.754  15.841   2.516 -0.1322 -0.0082 -0.1369
10833W        W29687  15.189   9.944   0.257  0.4783 -0.1688 -0.0797
10834W        W29688  11.859  18.345   4.275 -0.0678  0.0856 -0.3000
10835W        W29689  14.935  11.577  10.723 -0.3109 -0.1340 -0.2822
10836W        W29690   8.972  14.110   4.490  0.0132  0.0902 -0.0774
10837W        W29691   3.606   9.964   1.920  0.1621  0.1671 -0.1108
10838W        W29692   0.291  17.457   1.080 -0.2921  0.0835 -0.3465
10839W        W29693   8.362  17.991   4.074 -0.3452  0.0352 -0.0914
10840W        W29694   8.408  17.311  12.570 -0.1017 -0.1421 -0.0067
10841W        W29695  18.777  15.951   4.063  0.0509  0.1374 -0.0708
10842W        W29696   7.028   6.936   2.982 -0.2406 -0.2409 -0.2204
10843W        W29697   9.984  14.609  13.509 -0.0519  0.0383 -0.3245
10844W        W29698  15.159  17.879   0.924 -0.2294 -0.0512  0.0018
10845W        W29699  12.573  13.468  10.668 -0.1873  0.2812  0.1201
10846W        W29700   7.473  14.283  14.200 -0.1061 -0.0235 -0.2108
10847W        W29701   2.284  14.553   2.511 -0.0948  0.1174  0.2321
10848W        W29702  16.595  11.619  13.614  0.0127  0.4053  0.5665
10849W        W29703   3.826  17.010   1.536  0.2930 -0.0519  0.0901
10850W        W29704  16.148   6.498  13.370  0.0948 -0.4265 -0.0147
10851W        W29705   6.878   7.197   4.363  0.1228  0.1632  0.0603
10852W        W29706  13.789   4.400   4.331 -0.3307  0.0244  0.2909
10853W        W29707   7.606   7.001  15.018 -0.2716 -0.1107  0.1916
10854W        W29708   3.846  15.674   0.908  0.1081  0.4141  0.2463
10855W        W29709   2.736  13.213  13.476  0.0965 -0.1435 -0.2939
10856W        W29710   7.236  10.748   3.983  0.0298  0.0172 -0.0604
10857W        W29711   0.337   5.737   4.192  0.1395  0.0119 -0.1967
10858W        W29712  12.743  15.572   2.318 -0.3939  0.1493  0.1011
10859W        W29713   1.672  10.508   0.257  0.5214 -0.0198  0.1314
10860W        W29714   5.496  13.644  12.319 -0.0162 -0.0178 -0.0190
10861W        W29715  11.126  16.597   1.029  0.0985  0.0361 -0.1123
10862W        W29716   3.065   4.918  14.293  0.2735  0.0809 -0.0914
10863W        W29717  13.671   0.046   2.188  0.1147 -0.0529 -0.2937
10864W        W29718   8.412   1.185   2.628  0.0146  0.0632 -0.3336
10865W        W29719   0.480   2.990  12.881 -0.0388  0.2296  0.0788
10866W        W29720   3.936   1.328  12.729 -0.1824  0.1740 -0.0902
10867W        W29721   8.362  18.286   4.887 -0.0823  0.0215 -0.1065
10868W        W29722   1.042   9.844  12.133  0.1447 -0.0525  0.0212
10869W        W29723  18.366  15.082   5.045 -0.2118 -0.1768 -0.2660
10870W        W29724   9.460   6.135  11.406  0.2272 -0.1836 -0.1982
10871W        W29725   1.802   1.523  10.706  0.0117 -0.0098 -0.2515
10872W        W29726  17.548  14.246   2.260 -0.1220  0.3952  0.0927
10873W        W29727  12.323  11.432   3.649  0.2714  0.2330 -0.1887
10874W        W29728   2.590  14.344  12.727  0.3685 -0.0846 -0.2425
10875W        W29729   9.755   2.164  14.247 -0.1733 -0.1383 -0.0428
10876W        W29730  15.239   8.222  14.375 -0.0222 -0.1089  0.2812
10877W        W29731  18.160  10.135  13.441  0.0053  0.0642 -0.0663
10878W        W29732   0.259  17.394  12.694 -0.2180 -0.0160  0.0712
10879W        W29733  16.255  15.530   3.371  0.1004 -0.0645  0.3207
10880W        W29734   4.230   9.376  14.031  0.1456 -0.1519 -0.0040
10881W        W29735  12.138  17.572  13.832  0.0081  0.0170 -0.1084
10882W        W29736   9.432  10.518   0.202 -0.1421 -0.0503  0.0100
10883W        W29737  12.122  10.749  13.644 -0.0703  0.0301  0.1259
10884W        W29738   8.358  11.433  14.735  0.2416  0.1371  0.0943
10885W        W29739  15.437   5.955  12.865 -0.1506  0.0403 -0.0485
10886W        W29740   1.291   4.019  12.057  0.1469 -0.1002  0.2025
10887W        W29741   0.609   3.053  12.351  0.1538  0.1106 -0.4925
10888W        W29742  14.896  10.829  12.567  0.3293  0.2886  0.0752
10889W        W29743  14.056   9.839  13.238  0.1777  0.1586  0.2850
10890W        W29744  15.179  11.995  14.316 -0.3988  0.0575 -0.2963
10891W        W29745  16.234  18.520  13.253  0.1592  0.0849 -0.1133
10892W        W29746  17.469   9.904  10.756 -0.0199 -0.2374  0.2864
10893W        W29747   8.243  12.009  11.829  0.0208 -0.3218 -0.3355
10894W        W29748   0.029  14.087   0.321  0.0369  0.2895 -0.1098
10895W        W29749   3.347  17.292   1.540  0.0574 -0.0237  0.1232
10896W        W29750   5.526  13.224  13.629  0.1365 -0.0110  0.1220
10897W        W29751  16.059  17.562   0.682 -0.0199 -0.1629 -0.0018
10898W        W29752   9.292  10.879   3.211  0.0371  0.1377  0.1927
10899W        W29753  10.129  10.499  14.112  0.0113 -0.0741  0.1672
10900W        W29754  14.017   6.368   4.190  0.0303 -0.3645 -0.0807
10901W        W29755   7.965   7.968  15.069  0.1119  0.1164  0.0309
10902W        W29756   6.519  11.734   4.848  0.3044 -0.0275 -0.0509
10903W        W29757  13.291  13.859   1.940  0.1279  0.0762 -0.1716
10904W        W29758  16.111  13.560  11.461  0.1726 -0.0176  0.0498
10905W        W29759  12.851   7.371  12.260  0.2128  0.2003 -0.0425
10906W        W29760   5.637   6.188   1.614 -0.1748  0.3373  0.1158
10907W        W29761   3.383  12.341   3.378 -0.2932  0.4664  0.3871
10908W        W29762  17.283  13.195   9.686 -0.1126  0.1852 -0.1481
10909W        W29763   0.511   7.512   2.768 -0.1007  0.3064 -0.2252
10910W        W29764   4.315  10.250  14.595 -0.0120  0.1371 -0.0578
10911W        W29765  16.962  11.667  13.209 -0.0550  0.0900 -0.0012
10912W        W29766   1.452  12.950   2.201  0.1259 -0.0376 -0.0425
10913W        W29767  16.889   6.325  12.861 -0.0031 -0.3033  0.1019
10914W        W29768  13.975  12.141  11.921 -0.0478 -0.2663  0.1664
10915W        W29769  17.606  11.078  14.358 -0.1238 -0.1641  0.3114
10916W        W29770   9.070   9.078  14.403 -0.0461  0.0410  0.1311
10917W        W29771  13.639   1.406   2.364  0.0949 -0.1697 -0.1857
10918W        W29772   7.795  10.626  13.098 -0.0258  0.0335 -0.0534
10919W        W29773   9.327   8.320   0.405 -0.1313 -0.1615  0.3580
10920W        W29774   7.261   6.038   0.859 -0.0418 -0.0090  0.0399
10921W        W29775  12.492   9.004   4.456 -0.0625  0.1001 -0.0707
10922W        W29776   4.911  12.158   1.957 -0.3220 -0.1251  0.5704
10923W        W29777  14.556   4.793   0.601 -0.1158 -0.0850 -0.3110
10924W        W29778   0.833   6.587  12.926 -0.0140  0.0791  0.0861
10925W        W29779   8.962   0.703   3.836  0.0194  0.1638 -0.2060
10926W        W29780   0.258  10.424  13.453 -0.1283  0.1220 -0.0285
10927W        W29781  13.835   2.479   1.534 -0.0735  0.4290 -0.1188
10928W        W29782  13.301   3.924  15.098  0.0492 -0.1144  0.0691
10929W        W29783   1.685  11.760  14.269 -0.1636 -0.2006  0.0698
10930W        W29784  10.079   8.757  14.903 -0.0046 -0.3461  0.0059
10931W        W29785   0.603  13.391  11.827  0.1218  0.1628 -0.1129
10932W        W29786   1.672   0.335   2.323 -0.2484 -0.0518 -0.0718
10933W        W29787  16.229   7.886   0.464 -0.2628  0.1542  0.0094
10934W        W29788   1.622   3.145   4.077 -0.0902  0.0513  0.0227
10935W        W29789   5.351   6.842  12.264  0.1373  0.2410 -0.3946
10936W        W29790  12.656   4.154   3.307 -0.2166  0.3354 -0.0800
10937W        W29791   9.690   4.767   4.510  0.1629  0.0279  0.1136
10938W        W29792  14.820  16.423  11.376 -0.1653 -0.1101 -0.0106
10939W        W29793   3.865  10.414   2.717 -0.0938 -0.0898 -0.0679
10940W        W29794  11.378   5.440  10.917 -0.0015  0.0028  0.1936
10941W        W29795  14.497   1.646  14.174  0.0545  0.1242  0.2691
10942W        W29796  10.391   3.292  13.841  0.1127  0.2387 -0.1405
10943W        W29797  17.211  10.707   3.290 -0.0007 -0.0797 -0.0317
10944W        W29798   7.368   0.373  11.491 -0.1022  0.0332 -0.0183
10945W        W29799  15.840   8.136  14.775 -0.0620 -0.5646 -0.0805
10946W        W29800  12.523   5.312  14.503  0.2290  0.0099  0.1840
10947W        W29801  17.286   3.513  13.396  0.1130  0.2382  0.1214
10948W        W29802   7.307   2.059  13.011  0.1349  0.4189  0.2049
10949W        W29803   3.874  15.023  11.374 -0.1865  0.2141  0.0180
10950W        W29804   6.136  10.588  12.126  0.1311  0.2899  0.1185
10951W        W29805   3.028   7.947   2.310  0.0069  0.0496 -0.0600
10952W        W29806  13.103  10.300  14.579 -0.2159 -0.2232  0.0131
10953W        W29807   9.154   0.925   1.793  0.1858  0.3004 -0.5082
10954W        W29808   7.806  12.380  12.719  0.0824 -0.0772  0.2367
10955W        W29809  16.077   9.322   3.124  0.3834 -0.2837  0.1289
10956W        W29810  11.238   3.065   1.378  0.1211  0.0814 -0.0025
10957W        W29811   9.956  18.154   0.641 -0.0184 -0.4345 -0.1009
10958W        W29812  13.411  17.790  12.264 -0.1931 -0.0082  0.1330
10959W        W29813  16.828  13.226   9.965  0.0020 -0.5344 -0.1708
10960W        W29814  17.610   4.195  14.304  0.2994  0.0159  0.1256
10961W        W29815  12.938  15.479  12.480  0.3231 -0.1855 -0.2676
10962W        W29816  18.544   5.703  13.620 -0.3491  0.1945 -0.0365
10963W        W29817  14.330  13.976  14.528  0.0527 -0.0063  0.0969
10964W        W29818  10.304  10.521   0.255  0.1813  0.1685  0.1127
10965W        W29819   8.588  10.710   3.716 -0.2920 -0.1239 -0.1509
10966W        W29820   7.341   8.701   2.349  0.1331 -0.1435 -0.0645
10967W        W29821   8.666   7.343  11.662 -0.3498  0.3380 -0.1538
10968W        W29822   9.982   3.847  15.106 -0.2298 -0.0964 -0.2387
10969W        W29823  18.701  16.023  12.487  0.1842  0.3242  0.2900
10970W        W29824   6.150   2.937   2.930 -0.0050  0.0671 -0.4275
10971W        W29825  15.300  10.683   3.358 -0.1800 -0.1357 -0.4411
10972W        W29826   9.781   6.434   0.743  0.3427  0.1752 -0.1628
10973W        W29827  13.673   6.858  11.215  0.0867 -0.3279  0.2114
10974W        W29828   7.719  17.272   2.984 -0.0752 -0.2985 -0.2017
10975W        W29829   6.969   9.780   3.064  0.1573  0.0568 -0.2941
10976W        W29830  14.441   5.584  15.006 -0.0811 -0.2058  0.2278
10977W        W29831  16.825  15.915  12.870  0.0569 -0.4742 -0.1288
10978W        W29832   6.326   0.024  10.995 -0.1046  0.1575 -0.0269
10979W        W29833   2.803  15.626   4.115  0.2551  0.2719 -0.2306
10980W        W29834   4.366  13.858   3.278  0.1815 -0.0092 -0.0125
10981W        W29835  10.248   7.250  15.011 -0.2327 -0.0171  0.0479
10982W        W29836   3.476  14.949  12.376 -0.2774 -0.0812 -0.2256
10983W        W29837  10.442  17.364   3.370  0.1576  0.1102 -0.0151
10984W        W29838   4.552   3.589   1.680  0.0339 -0.0530 -0.0483
10985W        W29839  13.384  10.260  14.080  0.1640 -0.0834 -0.3329
10986W        W29840   7.556  18.224  11.171 -0.1829  0.0911 -0.0397
10987W        W29841  11.341  11.387   1.643 -0.0738 -0.0060  0.0083
10988W        W29842   2.941  17.605   3.503 -0.0058  0.0765  0.1431
10989W        W29843  10.882   5.525  12.149  0.2639  0.0149  0.4157
10990W        W29844   9.949  17.703   0.690  0.1384  0.0911  0.1502
10991W        W29845   1.321  12.686   0.706 -0.2091  0.1382  0.0856
10992W        W29846   1.848   5.813   2.810 -0.2708 -0.1477  0.1080
10993W        W29847  13.239   2.445  14.850  0.0427  0.0526 -0.1810
10994W        W29848   1.510   2.258  11.110  0.1442  0.0755 -0.0416
10995W        W29849   5.524   7.983   4.077 -0.3008 -0.0572  0.2172
10996W        W29850   3.325  15.414  12.586 -0.0572 -0.2887 -0.3404
10997W        W29851  15.226   0.066  11.502  0.2843 -0.1716  0.0149
10998W        W29852   8.105  16.837   0.330  0.2219  0.0498  0.0533
10999W        W29853  13.672  17.423   3.905  0.1825 -0.0107 -0.0002
11000W        W29854  16.661  16.005  11.960  0.0855 -0.0392  0.0032
11001W        W29855   0.321  17.792  11.099  0.0565  0.1529  0.0073
11002W        W29856  17.044   7.090   4.168 -0.1447 -0.2076  0.0307
11003W        W29857   0.830  15.110   0.862 -0.1451 -0.1333 -0.1653
11004W        W29858   9.299  13.215  13.286  0.0099 -0.1258  0.0142
11005W        W29859   3.636   4.270   3.991 -0.0223 -0.0804  0.2382
11006W        W29860   0.272   4.420   4.073  0.1466  0.1038  0.1431
11007W        W29861  15.853   9.404   2.056 -0.3277 -0.0225 -0.0385
11008W        W29862  13.773   6.091   3.182 -0.0205 -0.0103  0.2799
11009W        W29863  13.780   1.772   0.447  0.0777 -0.1887  0.2973
11010W        W29864  13.258  13.804   0.659 -0.1625  0.0087  0.0325
11011W        W29865  10.507   0.452   3.622  0.0028  0.1420 -0.0615
11012W        W29866  18.817   6.842   0.307 -0.2545  0.0727 -0.2106
11013W        W29867   8.296  13.916  14.214 -0.0654  0.2383  0.0305
11014W        W29868   5.568   1.585   2.812 -0.2233  0.0841 -0.2947
11015W        W29869   9.223  13.406  10.992  0.2331  0.1499 -0.0733
11016W        W29870   6.654  11.487  11.866  0.0945 -0.1457  0.1429
11017W        W29871  12.320  18.002  12.529  0.0241 -0.0694  0.1766
11018W        W29872  18.312  11.880   0.422 -0.0817  0.3354  0.0369
11019W        W29873   5.092  12.277  10.425  0.2052 -0.0176 -0.2141
11020W        W29874   3.237   4.978   1.996  0.0139 -0.0519  0.1352
11021W        W29875  12.803  16.072  13.251  0.1954 -0.1959 -0.3555
11022W        W29876   4.893   5.000  11.093  0.1725  0.1809 -0.5254
11023W        W29877  18.294   9.637   0.229  0.1716 -0.0659 -0.1699
11024W        W29878   8.333   2.239   4.342  0.1631  0.0910 -0.5043
11025W        W29879   6.164  11.838  11.085 -0.1416 -0.3640  0.0934
11026W        W29880   4.240   1.587  13.615  0.1854 -0.1065  0.1892
11027W        W29881   2.804  18.804  12.897 -0.0627 -0.0642  0.4523
11028W        W29882   3.022  18.687   5.273 -0.1105 -0.1046 -0.2709
11029W        W29883   4.972   8.957  12.161 -0.0725  0.1667  0.1220
11030W        W29884   3.898   8.872   0.852  0.1508 -0.2598  0.1021
11031W        W29885   9.177   3.960  14.819  0.1296 -0.2726  0.3189
11032W        W29886   1.086   4.231  13.101  0.1449  0.0027  0.3587
11033W        W29887  15.725   6.260  13.539 -0.0667  0.3278 -0.0852
11034W        W29888   2.840  15.898  13.664  0.1894 -0.1593 -0.0276
11035W        W29889  11.866   5.223   2.173  0.4589 -0.0721 -0.4437
11036W        W29890  11.302  18.199   0.640  0.0610 -0.2799 -0.1119
11037W        W29891  13.205   9.139   1.619 -0.2664 -0.1807 -0.2398
11038W        W29892  17.806   1.417   9.738  0.1537 -0.1406  0.1773
11039W        W29893  17.711   3.649   1.489 -0.1776 -0.1332  0.1162
11040W        W29894   7.948   9.987   0.462 -0.3130  0.4174 -0.0534
11041W        W29895  12.488   0.556  13.276 -0.4328  0.0718 -0.0237
11042W        W29896   8.165  12.488  13.629  0.0319  0.0151  0.2394
11043W        W29897  16.338   9.905  12.137  0.0976 -0.2755  0.1082
11044W        W29898  14.538   5.354  12.016 -0.3775  0.1248 -0.2304
11045W        W29899  17.464  16.212   2.944 -0.0224 -0.0762 -0.0521
11046W        W29900   2.912  16.164  13.129  0.3500 -0.1191  0.2116
11047W        W29901   0.710  11.543   1.967 -0.1150  0.2153  0.0602
11048W        W29902   6.769  13.015   1.905 -0.1288 -0.4157  0.1788
11049W        W29903   7.185  14.293  12.328  0.0631 -0.2723 -0.1623
11050W        W29904   6.263  14.069   3.586  0.1272  0.0271 -0.0849
11051W        W29905   5.638  16.000   4.358 -0.0078 -0.0850  0.1071
11052W        W29906   9.092  12.414   5.271  0.1258 -0.2771 -0.2445
11053W        W29907  17.906   3.786  15.041  0.0205  0.0471 -0.1431
11054W        W29908  10.771   1.654  11.783  0.4876 -0.1369 -0.0903
11055W        W29909  15.340  13.773   4.272 -0.3016 -0.1199  0.1920
11056W        W29910  16.262   3.387   2.488  0.0218  0.0363  0.1133
11057W        W29911   8.134   2.388   2.755 -0.1120 -0.0401  0.4686
11058W        W29912  13.046   1.638   0.861  0.0015  0.2501  0.0695
11059W        W29913   1.315  14.718   3.840 -0.2329  0.0952  0.0738
11060W        W29914   1.859  15.375  12.828 -0.0521  0.0227  0.0505
11061W        W29915   2.911   2.873   3.689 -0.2752  0.1112 -0.1551
11062W        W29916  16.534   0.924   3.458 -0.2453  0.0873  0.0477
11063W        W29917   7.694  14.649  13.943 -0.0018  0.0077 -0.1793
11064W        W29918  18.311   2.321  13.763 -0.1975  0.0282  0.1000
11065W        W29919   4.646   5.028   0.012  0.0166 -0.1480 -0.2855
11066W        W29920   8.845   1.731  13.553 -0.1255 -0.1778  0.1045
11067W        W29921   5.945  13.225   4.204 -0.0227 -0.1000  0.0609
11068W        W29922   5.622  13.632   0.836  0.2812 -0.1521  0.0440
11069W        W29923  13.447   6.371  11.204 -0.2503 -0.1781 -0.2382
11070W        W29924   6.637   9.751   4.176 -0.3206 -0.0370  0.1572
11071W        W29925   8.371   0.406   2.306 -0.0140 -0.0337  0.3912
11072W        W29926   2.642  11.768  10.109  0.0858  0.1299  0.0020
11073W        W29927   4.698   3.010  13.764 -0.0952 -0.0271 -0.0287
11074W        W29928  17.925  15.938   3.228 -0.1192  0.0550  0.0172
11075W        W29929   4.653   6.444   0.605  0.1872  0.2690 -0.1499
11076W        W29930   8.273  18.607   1.722  0.0747 -0.1780 -0.1358
11077W        W29931   0.356  17.926  10.262  0.2020  0.1754  0.2047
11078W        W29932   2.185   0.022   2.162  0.1321  0.0904 -0.1907
11079W        W29933  14.200   5.962   4.671 -0.1731  0.1686 -0.0744
11080W        W29934  15.029   6.070  13.413  0.0389 -0.0928  0.1784
11081W        W29935  11.492   2.919  13.344 -0.2156 -0.3227  0.1700
11082W        W29936  15.710   6.709  10.610  0.1701 -0.0180  0.2244
11083W        W29937   4.214  13.002  12.341 -0.0129  0.0541  0.0427
11084W        W29938   7.337   4.221  12.932  0.1182  0.0228  0.2861
11085W        W29939  18.220  13.718  11.125  0.3808 -0.0097 -0.0776
11086W        W29940  15.252  12.626   1.184 -0.1722 -0.1483  0.0425
11087W        W29941  11.242  10.523   1.605  0.0973 -0.1097  0.0094
11088W        W29942   6.720  14.466  12.187  0.1296 -0.2352  0.2493
11089W        W29943  15.110   3.554   3.411 -0.1199 -0.1114  0.2098
11090W        W29944   2.316  11.428  12.690 -0.0831  0.2521  0.1138
11091W        W29945   4.638   1.175   2.869 -0.1812  0.1967  0.1565
11092W        W29946   8.158   7.614  12.376 -0.2262 -0.0956  0.0438
11093W        W29947   0.708   8.500  13.310 -0.1490 -0.1768 -0.2573
11094W        W29948  17.689   3.060   3.313 -0.1490  0.0661  0.0796
11095W        W29949  17.496  11.904  12.200  0.1155  0.2721  0.2544
11096W        W29950  14.189  10.429   2.196 -0.2080 -0.0281 -0.0874
11097W        W29951  11.400   8.191  10.928  0.0127 -0.0673 -0.0674
11098W        W29952   8.027   1.747   0.510  0.1660 -0.2661  0.0197
11099W        W29953  10.676  13.375   0.912 -0.2471  0.0165 -0.1207
11100W        W29954   0.003   7.845  14.427  0.2137  0.0879 -0.2631
11101W        W29955   5.821   9.773   1.851 -0.2237 -0.0385 -0.4229
11102W        W29956  16.484  17.299  12.665 -0.1034 -0.1170 -0.4858
11103W        W29957   3.278   7.958  11.091  0.1388 -0.2637  0.1747
11104W        W29958   8.259  12.843   0.389 -0.3049 -0.0736  0.0363
11105W        W29959  13.592   0.280   5.201  0.0379  0.5113  0.2431
11106W        W29960   6.993   5.267  11.286  0.1102 -0.1763 -0.1680
11107W        W29961   4.665  11.411  14.192  0.1003  0.2451  0.1288
11108W        W29962   4.636   3.890   1.292 -0.1686 -0.3829 -0.0540
11109W        W29963   8.111   5.195  12.772  0.0029  0.1156  0.2315
11110W        W29964   8.764   6.981  11.998  0.0202  0.0743 -0.0880
11111W        W29965   6.182   8.164   2.699  0.0479  0.1528  0.1670
11112W        W29966  16.688  10.528  13.008  0.1716 -0.0801 -0.0136
11113W        W29967   0.729   3.704   4.425  0.1658 -0.0252 -0.2996
11114W        W29968  14.535   5.841  13.431 -0.0120 -0.2314  0.2569
11115W        W29969  18.180  17.762   1.881  0.5448  0.2347 -0.2111
11116W        W29970  10.760  15.018   4.183  0.0015 -0.1543  0.2280
11117W        W29971   7.460  10.056   2.998  0.0604 -0.1040 -0.2261
11118W        W29972   9.075  17.237  13.111 -0.0471 -0.0618  0.2601
11119W        W29973   9.292  11.489   1.265  0.0011 -0.0880  0.1350
11120W        W29974   6.212  18.342   0.025  0.2673 -0.2098  0.0439
11121W        W29975  16.039  17.864  13.712  0.1515  0.0182 -0.0285
11122W        W29976  12.301   5.099  14.126  0.1116  0.1574 -0.0447
11123W        W29977   6.984  16.082   4.308 -0.1021  0.1165  0.1043
11124W        W29978  17.518   9.932  13.920 -0.0453  0.0449 -0.1073
11125W        W29979   4.818  11.987  10.791 -0.1064  0.0727  0.1744
11126W        W29980  16.562   8.335   1.777  0.3275  0.2098 -0.4916
11127W        W29981   2.079  12.423  13.889  0.1285  0.1156  0.0781
11128W        W29982   6.037   7.931  13.425  0.5057  0.0599  0.0048
11129W        W29983   6.980  10.250   4.140  0.1987  0.4432  0.3138
11130W        W29984   0.106  17.236   4.306  0.2232  0.3032 -0.0092
11131W        W29985   4.825   8.414   1.380 -0.0266  0.1332  0.1968
11132W        W29986   3.499  12.191   1.421  0.0401  0.0734  0.2006
11133W        W29987  12.587  18.254  12.948 -0.0532  0.0981  0.2471
11134W        W29988   5.602  17.944  11.442  0.0307 -0.0534  0.3978
11135W        W29989  17.972   9.598   3.263  0.2160 -0.1510 -0.1092
11136W        W29990  11.906   9.655   3.868 -0.4554 -0.0740  0.1409
11137W        W29991  16.832   0.512   3.298  0.1743 -0.3490  0.2489
11138W        W29992  11.476  11.268  11.910  0.0324  0.0867 -0.4008
11139W        W29993   5.226   1.567   2.428 -0.0019  0.1550 -0.1353
11140W        W29994  16.336  15.028  10.893  0.0172  0.2017 -0.2381
11141W        W29995  13.000   6.167   2.069 -0.2051  0.2996  0.6025
11142W        W29996   2.592  12.167   3.989  0.1586  0.0270  0.3351
11143W        W29997   8.863   7.357  14.939 -0.2220 -0.0533  0.0047
11144W        W29998   5.380   2.215   3.272  0.0908  0.0085 -0.1234
11145W        W29999   9.769  11.067  14.578 -0.0560 -0.0509  0.4783
11146W        W30000   7.068  12.185   9.693 -0.1879  0.0123 -0.2236
11147W        W30001   4.766   8.098   0.940 -0.3657 -0.1316  0.1860
11148W        W30002  17.580  13.596   0.126  0.3928 -0.1443 -0.1298
11149W        W30003  16.359   8.638   0.033 -0.1760 -0.0625 -0.6480
11150W        W30004   7.072   4.983  14.880 -0.0687  0.1255 -0.0134
11151W        W30005  18.304   2.102  11.375  0.3201 -0.1875  0.0128
11152W        W30006  15.113   0.958   0.633  0.2063 -0.2418  0.2179
11153W        W30007  17.479  12.825  14.803 -0.2098 -0.0122  0.2787
11154W        W30008  11.931  13.215   1.109  0.1339 -0.2549  0.1054
11155W        W30009   2.115   6.937  12.940  0.2770  0.0482 -0.0225
11156W        W30010   3.461   2.371   1.060 -0.1551  0.0355  0.2272
11157W        W30011   6.270   8.357  11.051  0.1950  0.3078 -0.3111
11158W        W30012  17.327   1.791   4.157 -0.2485  0.2047  0.2731
11159W        W30013  13.487   5.306   2.912  0.0580  0.1260 -0.1900
11160W        W30014   8.809   7.818   2.953  0.0066 -0.0938  0.2411
11161W        W30015   5.455  17.066   0.074  0.3380  0.0565  0.0705
11162W        W30016   2.520  10.683   3.231 -0.2114  0.0034 -0.1780
11163W        W30017  18.434  16.389   2.235 -0.0803  0.3432  0.0941
11164W        W30018   3.723   8.368   1.110 -0.4723 -0.1847  0.1147
11165W        W30019  10.508  15.598   2.311  0.1225 -0.3320 -0.2431
11166W        W30020  17.405   6.674   5.105  0.1576  0.1021  0.2191
11167W        W30021   3.847  12.217  14.783  0.2022 -0.2408  0.0548
11168W        W30022   9.809   7.797   2.040  0.0430 -0.1989  0.2013
11169W        W30023  18.040  13.726   4.115 -0.1261 -0.2058  0.1468
11170W        W30024   8.938  11.965  12.710 -0.1037  0.2801  0.0526
11171W        W30025  11.031  12.827   3.388  0.2409  0.3696 -0.1983
11172W        W30026  11.366  16.729   5.411  0.3992 -0.1305  0.2359
11173W        W30027   3.704  16.419  11.170 -0.0078 -0.0454  0.1815
11174W        W30028  15.398   1.256   2.004  0.1826 -0.0134 -0.4053
11175W        W30029   8.191   9.650   3.591 -0.0101 -0.2190 -0.1792
11176W        W30030   2.695   0.964   2.213  0.0644  0.0069 -0.1235
11177W        W30031  13.851  11.316   0.679 -0.0557 -0.0787 -0.1444
11178W        W30032  15.803   2.577  14.652 -0.2044  0.1913 -0.2240
11179W        W30033  10.849   8.694  14.396 -0.2727  0.0687 -0.1133
11180W        W30034  16.819   3.358  14.764 -0.1216  0.0324 -0.0529
11181W        W30035   5.140   3.851   2.418 -0.2559  0.0340 -0.0002
11182W        W30036   8.281   0.374  11.894  0.0974  0.1697  0.1618
11183W        W30037   8.517  11.077   2.319  0.1713  0.0062 -0.3691
11184W        W30038   7.098   9.713  15.003 -0.3045 -0.4217 -0.1415
11185W        W30039   6.152   9.584   3.946  0.2621 -0.0942 -0.0251
11186W        W30040   3.138  15.749  11.632 -0.1811  0.1682  0.0209
11187W        W30041  16.816   6.101  13.773 -0.0399 -0.0687 -0.0609
11188W        W30042   5.588  13.595  13.908  0.1263 -0.1501  0.1864
11189W        W30043  15.064   9.696   3.288  0.0532  0.0042  0.0373
11190W        W30044  13.989   3.313  12.568  0.2843 -0.1243 -0.3112
11191W        W30045   8.477   3.685   0.527  0.2245  0.0236 -0.0820
11192W        W30046   8.528   5.381  10.301 -0.0668 -0.1010  0.1457
11193W        W30047  18.504   2.993   9.990 -0.3529  0.0706 -0.2408
11194W        W30048   7.590  16.904  12.099 -0.0193 -0.0526 -0.0319
11195W        W30049   1.215   0.071  14.622 -0.0320  0.1745  0.1963
11196W        W30050   7.481   1.500   1.068  0.2213 -0.2590  0.1574
11197W        W30051  12.183   1.462  13.314 -0.1303  0.1155  0.2303
11198W        W30052   1.864   7.384  15.071  0.0170  0.0337 -0.1645
11199W        W30053  10.563   0.503  12.605  0.1997 -0.1470  0.0611
11200W        W30054  18.171  17.583   1.336 -0.1580  0.0350  0.2449
11201W        W30055   3.571   0.427  12.533 -0.0562 -0.1649 -0.0817
11202W        W30056  10.273   5.992   3.402  0.3101 -0.1997 -0.1818
11203W        W30057  14.826  16.640  15.104 -0.0082  0.0584 -0.1538
11204W        W30058  13.507   4.149  10.765  0.0796 -0.3558 -0.2478
11205W        W30059  12.723   7.570  10.985  0.1148 -0.0774 -0.3312
11206W        W30060  13.379  17.020   1.763 -0.4322 -0.4060  0.1905
11207W        W30061   6.653   7.524   2.344 -0.3155 -0.0742 -0.0283
11208W        W30062  11.321   6.804   3.969  0.1114  0.5090 -0.1464
11209W        W30063   3.370   0.752   4.317  0.2037  0.0300  0.0895
11210W        W30064  10.346   8.391   2.746 -0.1489  0.0926  0.1442
11211W        W30065  10.190   1.513  12.596 -0.0582 -0.0562  0.2492
11212W        W30066  17.641   3.146  12.143 -0.0931  0.1337 -0.1054
11213W        W30067   6.312  12.628   2.983  0.1499  0.2017  0.0572
11214W        W30068  14.073   3.315   0.416 -0.2764  0.1235 -0.1183
11215W        W30069   2.840   3.280   3.412 -0.1099  0.3103  0.0859
11216W        W30070   8.695  13.135  14.887  0.2599 -0.0885 -0.0878
11217W        W30071  11.378  17.431  11.094  0.2459 -0.1897  0.2724
11218W        W30072   3.587  18.624  11.455  0.0135  0.0250  0.0225
11219W        W30073  16.532  11.357   0.504 -0.1468 -0.1859 -0.2560
11220W        W30074   0.896   7.460  13.926  0.1654 -0.1727  0.0072
11221W        W30075   0.606  11.453  14.022  0.1678 -0.1580 -0.1694
11222W        W30076   7.707  18.521   1.861  0.2221 -0.1722  0.1412
11223W        W30077  11.646   5.994  12.623 -0.0670  0.0853  0.0729
11224W        W30078   5.008  18.606   3.391  0.1116 -0.0743 -0.2505
11225W        W30079   2.531   6.291   2.067  0.0530  0.1584  0.1190
11226W        W30080  18.800  16.631  14.065  0.0869 -0.1228 -0.0889
11227W        W30081   0.199  11.045  11.443 -0.4017 -0.1549 -0.1766
11228W        W30082   1.649  12.292  11.256  0.0325  0.0909  0.0756
11229W        W30083  17.912  14.672   1.254 -0.1019 -0.0941 -0.0513
11230W        W30084   7.281  17.851  12.890 -0.1410  0.0501  0.1059
11231W        W30085   4.226   9.147   4.988  0.3741 -0.0604 -0.1729
11232W        W30086  11.819   3.130  11.828 -0.1500  0.0822  0.1921
11233W        W30087  16.193  17.666   3.852  0.1186 -0.1361 -0.0065
11234W        W30088   0.956   0.472   4.416  0.1374  0.0010 -0.3173
11235W        W30089  18.375   3.637   2.627 -0.0804 -0.2044 -0.0522
11236W        W30090  16.395   4.282   3.881  0.1643 -0.2674 -0.3516
11237W        W30091  17.886  12.771  14.486 -0.2142  0.0451 -0.1725
11238W        W30092   4.937   5.129   3.224  0.3073 -0.2893 -0.1448
11239W        W30093  15.250  13.798  13.490  0.2722  0.0371  0.4313
11240W        W30094  10.437  12.452  12.481 -0.1326  0.1416 -0.1662
11241W        W30095  14.234   1.633   0.020  0.2728 -0.3000  0.0225
11242W        W30096   0.552   9.827   3.404  0.4702 -0.0152 -0.1916
11243W        W30097  18.171  11.359   1.546 -0.3351  0.1534 -0.1673
11244W        W30098   0.075   6.413   4.128 -0.0242  0.0019 -0.1542
11245W        W30099   9.345  13.581   3.012 -0.1400  0.1748  0.1993
11246W        W30100   4.354  16.579   4.954  0.1372 -0.0490  0.1244
11247W        W30101  11.498  16.375   3.640  0.0136  0.0284 -0.0644
11248W        W30102   3.512  10.077   1.330 -0.2471  0.3550 -0.0742
11249W        W30103  11.213  16.431  14.899 -0.1864  0.2327 -0.1589
11250W        W30104   5.774  17.860   4.220 -0.3752  0.3883  0.0561
11251W        W30105   4.442  11.210  12.037  0.1911  0.0726 -0.0990
11252W        W30106   2.697  14.244  13.560  0.0263  0.2568 -0.1600
11253W        W30107   1.067   2.240   4.357 -0.3087 -0.0806  0.5892
11254W        W30108  10.268   1.414   0.683 -0.0066  0.2913 -0.1451
11255W        W30109   0.998   4.070   4.210 -0.0480 -0.0403 -0.0814
11256W        W30110  17.549   4.357   3.578  0.1654 -0.1280 -0.3121
11257W        W30111   6.843   9.161  11.603 -0.0691  0.3693 -0.2426
11258W        W30112   4.356   4.507  13.009  0.0229 -0.0958 -0.0355
11259W        W30113   2.474  15.391  15.058  0.0271  0.2556  0.0240
11260W        W30114  18.019   9.075  13.051 -0.0973  0.0649  0.0697
11261W        W30115   1.331  11.670  10.446  0.0618  0.0976  0.1399
11262W        W30116  14.834   0.562  13.196 -0.1522 -0.1915 -0.3930
11263W        W30117  14.417   1.952  11.011  0.3224 -0.2964  0.1376
11264W        W30118   0.469   7.311  10.739 -0.1505  0.1138  0.1944
11265W        W30119  11.802  17.534  11.293 -0.0251  0.1255 -0.0696
11266W        W30120  17.252   1.672   1.086  0.2484 -0.3527  0.2023
11267W        W30121  12.656   1.715   1.396  0.0898 -0.1285 -0.2097
11268W        W30122   6.452   2.674  15.055  0.2484  0.1929 -0.0894
11269W        W30123   6.593   3.088  11.732 -0.0726 -0.0259  0.1281
11270W        W30124  14.600  11.049   0.178 -0.0693 -0.0385  0.1770
11271W        W30125   5.907  13.289  10.957 -0.1650 -0.0743 -0.1609
11272W        W30126   6.659   5.205  12.675 -0.0309  0.1052  0.0575
11273W        W30127  12.176  18.122   0.735 -0.1037  0.0219  0.0748
11274W        W30128   1.056  17.455  13.070 -0.0352 -0.0648  0.0426
11275W        W30129   8.257  14.909  10.345  0.0885 -0.2421 -0.1497
11276W        W30130   7.656  12.612  14.044 -0.3787 -0.3000  0.1051
11277W        W30131   5.407   9.845  13.994  0.2917 -0.0757  0.0612
11278W        W30132  14.604  14.992   3.993  0.2494 -0.3770  0.2083
11279W        W30133  13.749   5.576   3.399 -0.0174  0.3932 -0.3619
11280W        W30134   0.353  17.469   2.607  0.2546  0.4090 -0.0882
11281W        W30135  16.444   5.016  12.025  0.1871  0.3985 -0.0317
11282W        W30136   2.025   1.687   2.228  0.0629 -0.4048  0.3327
11283W        W30137  12.821   8.385  10.975 -0.3245 -0.2095  0.1038
11284W        W30138  16.873  13.220  13.407 -0.3828  0.1413  0.0528
11285W        W30139   2.486   4.253   3.326 -0.2271 -0.3497  0.1352
11286W        W30140   2.912  15.631   1.797 -0.1782 -0.1430 -0.2502
11287W        W30141   8.787   6.324  14.937  0.1089 -0.2904  0.1889
11288W        W30142   6.494  10.546   0.163 -0.2831 -0.0874  0.0794
11289W        W30143   7.256   7.601  14.351  0.0795 -0.3292  0.0844
11290W        W30144   4.080  12.009   1.916  0.3529  0.2259 -0.1360
11291W        W30145   2.989   5.090   2.423  0.0028 -0.0867 -0.1646
11292W        W30146   5.257  15.415   2.277  0.2609 -0.0549 -0.2004
11293W        W30147   3.732  11.678   2.901 -0.1439 -0.1737 -0.1250
11294W        W30148   5.239   7.351   2.094  0.0105 -0.0111  0.0701
11295W        W30149   9.572   0.232   3.369  0.2305 -0.2264  0.2328
11296W        W30150   9.671  17.051   2.971 -0.0149 -0.0030  0.0225
11297W        W30151   7.627  14.489   3.432  0.0441  0.2823 -0.0905
11298W        W30152  10.666   0.257   2.495 -0.3176  0.2212  0.0198
11299W        W30153   8.028  14.452  12.479 -0.2163  0.2638 -0.3112
11300W        W30154  11.503   3.896  14.996  0.3403  0.4099  0.1155
11301W        W30155   1.653  16.496  14.055 -0.1592  0.0838  0.2717
11302W        W30156  12.534   2.431   1.857  0.1816 -0.0289  0.2364
11303W        W30157   1.751  15.577  12.013 -0.0427  0.1724  0.0767
11304W        W30158  17.073   5.032   9.774  0.0778 -0.0401 -0.2224
11305W        W30159  17.110   2.768   1.526  0.1415 -0.3879  0.0636
11306W        W30160  10.321   6.329  15.112  0.0307 -0.0013  0.3245
11307W        W30161  17.676  12.036  14.372 -0.0135 -0.4489 -0.1383
11308W        W30162  10.360  13.271  12.092  0.2198  0.2386  0.0709
11309W        W30163  12.406   0.116  14.086  0.0600  0.2385 -0.0400
11310W        W30164  15.945  14.304  12.706  0.0800  0.1992  0.0144
11311W        W30165   1.660  18.688   2.125 -0.1135 -0.3123  0.0222
11312W        W30166  13.891  15.978   0.694  0.1104 -0.0473 -0.1036
11313W        W30167   0.237  11.605   2.164 -0.1604 -0.4961 -0.3474
11314W        W30168   9.933   8.608  13.172 -0.2749  0.0438  0.0797
11315W        W30169  15.891  15.433   2.163  0.4508  0.2787  0.0823
11316W        W30170  17.518   1.179   3.469  0.2624  0.1149  0.0940
11317W        W30171  16.828  13.776   2.770  0.1953 -0.1021 -0.1458
11318W        W30172  11.842  11.181   2.138 -0.0259 -0.3741 -0.1509
11319W        W30173  18.613   1.697   1.197 -0.0375 -0.2835 -0.0225
11320W        W30174   7.947  13.911   2.665  0.1282  0.2435  0.1124
11321W        W30175   7.038  15.271  12.364 -0.1090  0.3218 -0.0398
11322W        W30176   0.726  12.894  12.538  0.2831  0.0429 -0.1791
11323W        W30177   9.127  17.174   2.872  0.1081 -0.1030 -0.0287
11324W        W30178  12.959  12.169   1.370 -0.0752 -0.2456  0.0865
11325W        W30179   2.788   7.398   3.765 -0.2875 -0.1446  0.1135
11326W        W30180   3.215   8.508   1.275 -0.2800 -0.2600 -0.0117
11327W        W30181  17.409   6.416   3.720  0.2274  0.2452 -0.0900
11328W        W30182   4.758  10.391   1.833 -0.0179 -0.1567 -0.0467
11329W        W30183   6.808   4.354   4.319  0.0280 -0.0697  0.1090
11330W        W30184   6.632  10.571  12.330 -0.1070 -0.1220  0.2554
11331W        W30185   4.654   9.230   1.801  0.0814  0.2666  0.1499
11332W        W30186  16.054   8.170   4.875 -0.2181 -0.0488  0.0879
11333W        W30187   2.428   5.996  13.724  0.3234 -0.2363 -0.2647
11334W        W30188  18.433  10.174  12.801 -0.0787 -0.0863  0.2514
11335W        W30189   2.475  17.822  11.966  0.0769  0.1252  0.0983
11336W        W30190   7.018  10.637  11.992  0.1826 -0.2630 -0.3468
11337W        W30191   4.954   2.410   3.493  0.2091  0.2202 -0.2471
11338W        W30192  14.674   8.690   3.190 -0.1099 -0.0603 -0.1502
11339W        W30193  11.161   6.636   0.451 -0.1238 -0.1570  0.2540
11340W        W30194  14.635   5.089  10.005  0.2413 -0.1528 -0.2348
11341W        W30195   9.756  18.775   2.405  0.0970  0.0358  0.1188
11342W        W30196   5.318   9.109  13.890 -0.1641 -0.1119 -0.3047
11343W        W30197  13.608  11.348  10.822  0.3841  0.1172  0.2821
11344W        W30198   8.527  17.144  13.901 -0.0158  0.0003  0.0235
11345W        W30199   1.414  14.597  11.143  0.0564  0.3483 -0.2498
11346W        W30200  12.560   1.315   3.385  0.3031 -0.0748 -0.1922
11347W        W30201  15.682   8.025  10.482  0.0748  0.0188 -0.2318
11348W        W30202  16.979  12.709  14.559  0.3152  0.1831  0.3504
11349W        W30203   8.348  18.311  11.213 -0.0271 -0.0396  0.0845
11350W        W30204   9.722  13.689   4.461 -0.0227  0.1197  0.2425
11351W        W30205   8.316  12.430  12.643  0.0141  0.1033 -0.0816
11352W        W30206   6.220  13.395  12.899  0.0741 -0.0550  0.1459
11353W        W30207   2.704   1.369   1.948 -0.0421 -0.0997 -0.1214
11354W        W30208  14.345   5.491   1.925 -0.3396 -0.0312  0.1328
11355W        W30209   1.368   4.435   2.558  0.1775 -0.0193 -0.3353
11356W        W30210   1.074   7.934  12.486  0.1370  0.0224 -0.1261
11357W        W30211   2.922  12.232   3.652 -0.2197 -0.0981 -0.6545
11358W        W30212   6.252  17.190   3.471 -0.2703 -0.2625  0.0946
11359W        W30213   0.467  10.558  12.797 -0.3661 -0.1867  0.0760
11360W        W30214   4.290  18.062  11.674  0.2938 -0.2142 -0.0885
11361W        W30215  17.971  15.623   0.062  0.0503  0.0309 -0.1967
11362W        W30216   7.269   9.813   3.439 -0.0450 -0.3316  0.1103
11363W        W30217  17.140   3.208   0.777  0.0006  0.1714  0.0133
11364W        W30218  15.174  17.412  14.676 -0.2337 -0.0072  0.1881
11365W        W30219  16.895  14.005  11.858 -0.1267  0.0033  0.1063
11366W        W30220  18.427  11.383  10.866  0.2427 -0.2989  0.0320
11367W        W30221   0.729   6.983  11.400 -0.4149 -0.1721  0.1876
11368W        W30222  10.145   2.923  10.541 -0.1028 -0.0476 -0.1538
11369W        W30223  11.195   7.580   0.523  0.1428 -0.1218  0.0824
11370W        W30224   8.038  10.514  12.614 -0.1090 -0.0787 -0.1167
11371W        W30225   7.106   9.575   1.557 -0.0788 -0.0269  0.0857
11372W        W30226   5.848   9.253   0.275  0.1350  0.0281 -0.0170
11373W        W30227  13.502  15.194   0.035  0.1961 -0.2518  0.1734
11374W        W30228   9.708   0.239   0.644  0.2086 -0.1922 -0.1025
11375W        W30229  17.985   7.568  14.932 -0.1427 -0.4276  0.1684
11376W        W30230   3.335   5.497   1.148  0.1503  0.0785  0.0929
11377W        W30231  16.113  17.257  13.030 -0.2896 -0.0003  0.0562
11378W        W30232   7.369   3.325  11.213 -0.0153 -0.0919  0.1510
11379W        W30233  16.397  16.226  12.648 -0.0853 -0.0922  0.1747
11380W        W30234  14.853   8.178   3.201  0.3132 -0.1845 -0.2661
11381W        W30235   1.218  17.534   3.408  0.1346  0.1128 -0.0368
11382W        W30236   1.270   1.563   3.967  0.0377  0.1501  0.1460
11383W        W30237  18.393   9.983  14.615  0.2936 -0.1246 -0.2437
11384W        W30238  14.161   5.679   2.592  0.1581 -0.2708  0.0748
11385W        W30239   2.624   4.682   2.679  0.0931 -0.2163  0.1805
11386W        W30240  17.263  15.598  12.867 -0.0649  0.0537 -0.2180
11387W        W30241   7.893   0.090   3.543 -0.2802  0.0772  0.4793
11388W        W30242   5.099   6.088   1.631 -0.0481 -0.1916  0.0445
11389W        W30243   1.259   2.418  10.287 -0.1112 -0.0235 -0.1510
11390W        W30244   9.289   4.591   2.906  0.0529  0.0529 -0.0183
11391W        W30245  18.448  14.420  10.424 -0.0511  0.0188  0.2760
11392W        W30246   7.322   1.198   2.076  0.0063  0.0068 -0.1418
11393W        W30247  14.937  12.901  12.315  0.3239 -0.1986 -0.1068
11394W        W30248  18.485   7.188   1.177  0.1130  0.0222  0.1998
11395W        W30249  13.994  16.532  14.919  0.0976 -0.1241  0.1428
11396W        W30250   3.512   9.757  14.261  0.2284 -0.0431  0.1368
11397W        W30251  12.450   0.197   2.121 -0.0381  0.0484 -0.3013
11398W        W30252   0.990   8.908   2.505  0.1176 -0.5174  0.0171
11399W        W30253  14.483  13.966  12.583  0.2325 -0.0985 -0.0872
11400W        W30254   3.786  12.373  13.061  0.1900 -0.1225 -0.0752
11401W        W30255  16.181  12.108  14.474 -0.2059  0.1162  0.1103
11402W        W30256  12.621   1.759   3.614 -0.2984  0.2120  0.1456
11403W        W30257  11.659  18.701   2.210 -0.0037  0.1628 -0.2539
11404W        W30258  17.820  16.810  13.435  0.0251  0.4157 -0.2881
11405W        W30259   4.431   9.213   0.040  0.0903  0.1541 -0.0824
11406W        W30260  10.808   5.357   3.335  0.0846  0.2864 -0.1421
11407W        W30261   8.699   1.092   3.502 -0.0191 -0.2053  0.0934
11408W        W30262   2.414   4.518  13.436  0.1627 -0.1547 -0.2438
11409W        W30263   8.384  12.153   4.374 -0.1022 -0.2277  0.1704
11410W        W30264   6.745   0.781   5.971 -0.3456  0.0102  0.0713
11411W        W30265  10.645  17.843   3.183  0.1280 -0.0734 -0.0054
11412W        W30266   9.750  13.890   3.917 -0.0434  0.3315 -0.1251
11413W        W30267   8.758   9.781   1.310 -0.0440 -0.0573  0.1828
11414W        W30268   5.208  10.162   1.204  0.1707  0.2242  0.0222
11415W        W30269   5.744   7.899  14.961  0.2022 -0.1836  0.1910
11416W        W30270  14.799   9.812  13.695 -0.0555 -0.1802  0.2034
11417W        W30271   5.039  16.954   2.054 -0.1316 -0.2895 -0.3795
11418W        W30272   1.986  13.573   1.209  0.1044 -0.2477  0.0703
11419W        W30273   3.302  15.980  13.379  0.0518 -0.0547  0.2112
11420W        W30274   7.829   3.242  11.501  0.1692  0.0041 -0.2538
11421W        W30275   6.317  16.323  12.147 -0.0405 -0.3364 -0.3773
11422W        W30276   7.842   0.445   1.328 -0.0785  0.0165  0.2102
11423W        W30277  17.883  17.237   2.471  0.1220 -0.0851 -0.0064
11424W        W30278   5.902  13.802  13.058 -0.1993 -0.2472 -0.0876
11425W        W30279  14.608   8.825   2.715  0.2440  0.1838 -0.2070
11426W        W30280   5.574   4.268   0.233  0.2728  0.2053 -0.2622
11427W        W30281   7.033   6.556  11.311 -0.1152 -0.0733  0.0788
11428W        W30282   9.387   6.870  13.740  0.1773 -0.1020 -0.0041
11429W        W30283   0.431   9.864  11.121 -0.1279  0.2434 -0.1083
11430W        W30284   7.320   1.916   1.297 -0.0382 -0.1627  0.1400
11431W        W30285  15.923   1.252  10.918  0.3409 -0.0424  0.0532
11432W        W30286   3.440   5.814   2.907  0.0577 -0.0572 -0.1686
11433W        W30287   1.218   2.816   1.439  0.1191 -0.1170 -0.2303
11434W        W30288   9.141   9.091  13.348  0.4049  0.0753  0.0942
11435W        W30289  18.326  15.982   4.264 -0.1543 -0.0658  0.1464
11436W        W30290   8.184   2.529  10.410 -0.2640  0.0341 -0.1007
11437W        W30291   2.432   5.801   2.018 -0.2415 -0.0220  0.0107
11438W        W30292  16.943  12.167   0.898  0.0844  0.1072  0.0868
11439W        W30293   6.990   8.110   4.216  0.0214  0.0993  0.2558
11440W        W30294  11.384   3.773  14.085 -0.2276 -0.0467 -0.1237
11441W        W30295  13.688  15.363  10.123 -0.0954  0.0266 -0.1296
11442W        W30296   6.699  12.812  13.539  0.1705 -0.1821 -0.1202
11443W        W30297   0.700   5.630   3.455 -0.0978 -0.4644 -0.0109
11444W        W30298  11.329  11.437   2.155  0.1317 -0.0750 -0.0521
11445W        W30299  12.531  15.899   0.228 -0.0971 -0.0713  0.0100
11446W        W30300  16.608  15.898   1.764  0.2969 -0.1973  0.0684
11447W        W30301  18.730   5.548  14.970  0.3246 -0.0103 -0.0203
11448W        W30302  16.071   9.615   4.507 -0.0945 -0.1392 -0.2914
11449W        W30303   2.280  12.749  12.909  0.4050  0.2389  0.2228
11450W        W30304   7.207   2.566   2.580  0.3031  0.0882  0.1666
11451W        W30305   2.072  17.503  11.026 -0.1472  0.0341 -0.0754
11452W        W30306   5.868   5.448  12.568 -0.1097  0.1079 -0.0313
11453W        W30307  12.372   4.440   5.376 -0.2801  0.0999 -0.0442
11454W        W30308   1.159  15.805  14.726  0.1915  0.0630  0.0548
11455W        W30309   0.373  16.692   0.344 -0.1578  0.0001 -0.0218
11456W        W30310  16.359   5.264   1.201  0.1490  0.2512  0.2356
11457W        W30311   2.153  16.624  10.460  0.0100 -0.0375  0.0016
11458W        W30312  14.972  12.625  15.119 -0.1231  0.0339 -0.0060
11459W        W30313   6.261  13.191   2.236 -0.0956  0.3537 -0.0481
11460W        W30314  18.020   1.661  13.296 -0.1189 -0.1484 -0.0838
11461W        W30315   4.744   8.146   0.064  0.1017  0.0588  0.3234
11462W        W30316  13.831  16.867   0.663  0.0590  0.1520 -0.1482
11463W        W30317   7.442  13.386  14.554 -0.2790 -0.0195  0.2193
11464W        W30318   9.280   6.934   1.592 -0.3533  0.2289  0.0746
11465W        W30319  10.843   3.098   1.636  0.1241 -0.2342  0.0909
11466W        W30320  15.117   8.320  12.731 -0.0097 -0.2133  0.0029
11467W        W30321  11.730   8.930  12.922  0.2943  0.0055 -0.0069
11468W        W30322   1.132   8.211  11.298 -0.2001 -0.2311 -0.3852
11469W        W30323  11.881   0.909  14.020  0.0434  0.2977  0.1282
11470W        W30324  15.682  12.986  11.384  0.0931  0.2998  0.2059
11471W        W30325  12.793  14.591   2.318 -0.6243 -0.1966 -0.1709
11472W        W30326   7.549   4.803   1.985  0.0482 -0.2196  0.2743
11473W        W30327   6.051  15.488   0.395  0.1608 -0.2433  0.1598
11474W        W30328   5.055   7.205  10.826 -0.1266 -0.1338  0.0747
11475W        W30329  15.160  11.656   2.878  0.1083  0.0493 -0.3937
11476W        W30330  15.730  17.972  11.607 -0.0829  0.0370 -0.1696
11477W        W30331  11.766   1.998   0.766  0.2059 -0.0688 -0.0612
11478W        W30332  11.272   4.232   2.387 -0.0671 -0.0812  0.0194
11479W        W30333   3.124  18.770  12.486  0.3827  0.2417 -0.3555
11480W        W30334  16.248  10.081  10.434 -0.0787 -0.0111  0.0645
11481W        W30335  17.102   6.079  13.282  0.3181 -0.1690 -0.0500
11482W        W30336  10.155  11.921   4.297 -0.0486  0.1027  0.0815
11483W        W30337  14.138   8.608   3.867  0.1798 -0.1319  0.1568
11484W        W30338  13.732   2.556  13.732 -0.1293 -0.0510 -0.0431
11485W        W30339  17.376   5.163  12.118  0.0342  0.1457  0.0735
11486W        W30340   3.980   7.937  12.319  0.2118  0.1025 -0.0265
11487W        W30341  10.875  18.829   1.500 -0.0597 -0.3151  0.0179
11488W        W30342   8.601   3.077   1.538 -0.1335 -0.4470  0.0486
11489W        W30343   3.470  13.297   4.269  0.1025  0.2941 -0.0776
11490W        W30344  15.127  13.119  11.093 -0.2727 -0.0047 -0.1359
11491W        W30345  13.205   6.449   4.374 -0.0837 -0.0295  0.1618
11492W        W30346   9.055  12.408   1.803  0.2239 -0.2889  0.0358
11493W        W30347   1.020  12.244   2.908 -0.1135  0.0744  0.0353
11494W        W30348   0.969  18.162   1.609 -0.0794 -0.2600  0.3375
11495W        W30349  15.410  13.817  12.481 -0.1511 -0.0853  0.3372
11496W        W30350  11.101   2.998   0.123  0.3584 -0.2288  0.1012
11497W        W30351   7.471   0.387   2.490  0.3330  0.3102 -0.0997
11498W        W30352  11.762   6.732  13.082 -0.2869 -0.0323  0.0223
11499W        W30353   2.422  17.936  13.311  0.0351 -0.2683 -0.0700
11500W        W30354   9.477  12.729  13.401 -0.3634 -0.1258 -0.3119
11501W        W30355   7.788   8.704  10.742  0.0385  0.4475 -0.2464
11502W        W30356   5.795  16.288   0.996  0.4754  0.1432  0.4635
11503W        W30357  10.223   8.900   0.595  0.0141  0.2864  0.0525
11504W        W30358   5.084  10.562  10.776 -0.2452 -0.0182 -0.2371
11505W        W30359  16.748  14.321  12.423 -0.1074 -0.0322 -0.2912
11506W        W30360   1.177   6.771  14.997  0.2148 -0.0242  0.0477
11507W        W30361  11.543  11.836   1.802 -0.2106 -0.3093 -0.0806
11508W        W30362   7.494  14.354   2.943  0.1459  0.3668  0.1165
11509W        W30363  13.102   8.512  11.819 -0.2505  0.0795  0.2856
11510W        W30364  12.255   0.901  11.500 -0.1932  0.4238  0.4299
11511W        W30365   2.996   2.537   4.511 -0.0039  0.1430 -0.0448
11512W        W30366   3.570   3.679   4.184  0.0724 -0.0790  0.1348
11513W        W30367   3.438  14.678  14.096  0.1643 -0.4232 -0.0010
11514W        W30368   4.396  11.113   1.583 -0.1609  0.1349 -0.2047
11515W        W30369  16.394   4.239   0.101  0.1711  0.0915  0.0995
11516W        W30370  17.539  17.126   2.815 -0.3006 -0.1245 -0.1212
11517W        W30371   8.886  15.575  12.379 -0.2986  0.1382 -0.0858
11518W        W30372   5.101  12.610   2.087 -0.0051 -0.0827 -0.1303
11519W        W30373   9.064  11.371   3.839  0.2545  0.1879  0.3401
11520W        W30374  15.616   5.298  10.990 -0.2752  0.0868 -0.2853
11521W        W30375   2.294   9.978   4.030  0.2046 -0.3038 -0.3748
11522W        W30376  12.041  16.691   4.888  0.2671  0.0092  0.3084
11523W        W30377   0.245   9.195  13.142 -0.0365 -0.1444  0.0507
11524W        W30378   5.533   4.482  12.879  0.0873 -0.2034 -0.1545
11525W        W30379   7.327  18.821   3.495 -0.1887 -0.2196  0.0380
11526W        W30380   2.499  18.271   0.218  0.1109 -0.2412 -0.1364
11527W        W30381  18.858   5.467  13.153 -0.1707  0.0960  0.2301
11528W        W30382   9.263  11.671  11.564  0.0236  0.1506 -0.1651
11529W        W30383   2.375  11.111  11.795  0.1626 -0.0716  0.0276
11530W        W30384   1.205   1.903   3.498  0.1892 -0.0118 -0.1076
11531W        W30385   2.191   1.234  11.764 -0.0967 -0.2417  0.0745
11532W        W30386   8.799   0.362  12.765 -0.0687 -0.1409  0.1543
11533W        W30387   9.507   7.748   1.237 -0.2226  0.1645 -0.1299
11534W        W30388   0.744   8.363   2.323  0.0695  0.1481 -0.2962
11535W        W30389   6.179   8.983  14.186 -0.0019  0.2031 -0.1535
11536W        W30390   8.588   5.547  12.969  0.1461 -0.0411 -0.2141
11537W        W30391  14.716   8.601   4.146  0.0186  0.4682  0.0531
11538W        W30392  18.813  13.661  13.343  0.1274 -0.0540  0.1874
11539W        W30393   8.110  11.368  10.783 -0.0520 -0.0478 -0.1503
11540W        W30394  18.547   8.949   3.050 -0.0160 -0.1094 -0.2337
11541W        W30395   1.274  12.640  11.865  0.1730  0.0243 -0.0726
11542W        W30396   1.116  13.683   3.192  0.2389 -0.0680  0.3247
11543W        W30397  17.661  18.771  13.740  0.1993 -0.0604 -0.3069
11544W        W30398   3.142   1.147   2.021  0.3073 -0.2098 -0.0612
11545W        W30399   8.592   6.866   3.467  0.2284 -0.1941  0.1155
11546W        W30400  10.412  14.305   0.438 -0.0318 -0.1195  0.0998
11547W        W30401   9.190  13.721  11.414 -0.0528  0.1333  0.1233
11548W        W30402   8.941  11.850  11.282  0.0308 -0.0197 -0.4522
11549W        W30403   5.124   7.515  13.556 -0.1199 -0.2156  0.1234
11550W        W30404   3.457  18.428  12.456 -0.3126 -0.0877 -0.0631
11551W        W30405   4.668   4.062  13.659 -0.3459 -0.1512 -0.0586
11552W        W30406  16.671   3.085  13.028 -0.1266 -0.1660 -0.3815
11553W        W30407   2.952   3.150   1.843 -0.1846 -0.0522 -0.1734
11554W        W30408   2.332   5.872  11.291  0.0633  0.1003 -0.0837
11555W        W30409   8.599   7.443   3.733 -0.0225  0.0750  0.2686
11556W        W30410   5.547  10.299  10.720  0.2360  0.1497 -0.1602
11557W        W30411  15.114   4.236   1.126 -0.1812  0.0561 -0.1787
11558W        W30412   4.494  12.198  13.511 -0.0088 -0.1606 -0.0132
11559W        W30413   3.534  15.856  13.806 -0.0388 -0.2349 -0.2281
11560W        W30414  12.788   0.551   1.762 -0.2032  0.1167 -0.0544
11561W        W30415  10.156  12.444   1.137  0.1004 -0.1089  0.1152
11562W        W30416  15.052  14.434   1.713  0.0087 -0.0843  0.0422
11563W        W30417   7.919   9.705  11.603  0.2623  0.0103  0.0824
11564W        W30418   2.028  18.426  12.692 -0.0045 -0.0099  0.0031
11565W        W30419   4.839   5.821  11.294  0.2784  0.0057 -0.2137
11566W        W30420  10.728  18.149   0.857 -0.1122  0.1283 -0.0157
11567W        W30421  16.216  14.973  14.766 -0.1535  0.0578 -0.1909
11568W        W30422  14.753   7.806  11.807 -0.0950  0.2739 -0.3652
11569W        W30423  16.435  18.137   1.177  0.0373  0.1262 -0.0010
11570W        W30424   8.466   6.753  14.899  0.3127 -0.2534 -0.0264
11571W        W30425  18.001   6.321   9.790  0.1845  0.1734  0.1142
11572W        W30426   1.869   7.565   3.725  0.1134 -0.2674  0.1218
11573W        W30427   8.834   6.852  11.490  0.0261 -0.1314  0.0142
11574W        W30428  17.213   9.923   0.909 -0.0542 -0.1032 -0.0050
11575W        W30429   5.325   5.885   2.962  0.4189 -0.0723 -0.0252
11576W        W30430  10.687   0.243   3.999  0.0633  0.1254  0.2221
11577W        W30431   3.490   3.063   2.127  0.0667 -0.0507 -0.0107
11578W        W30432  15.007  16.133  13.225  0.0641  0.0875  0.0104
11579W        W30433  12.556   1.399  12.083  0.1524  0.0255 -0.2225
11580W        W30434   0.758  10.733   0.059 -0.0617  0.1745  0.1838
11581W        W30435   8.069   6.562  12.390  0.0096 -0.1934 -0.3175
11582W        W30436   7.880   5.853   1.819 -0.0042 -0.0291  0.1680
11583W        W30437   2.346   1.147   0.264  0.0998 -0.3287  0.0410
11584W        W30438   4.430  11.297   0.085 -0.0266  0.1002  0.0794
11585W        W30439  18.295   2.555  11.209  0.0474 -0.2380 -0.2140
11586W        W30440   7.232  18.231   1.858 -0.0750  0.0395 -0.0929
11587W        W30441  15.368   6.217  14.693 -0.1331 -0.2282  0.1807
11588W        W30442   4.450   8.578  14.936 -0.0402 -0.1992 -0.1113
11589W        W30443   2.012  13.977   2.180  0.0923 -0.0787  0.4208
11590W        W30444  10.760  16.797  11.386  0.3527  0.1000 -0.1800
11591W        W30445   5.633   9.452   4.826 -0.1275 -0.0821 -0.1282
11592W        W30446   9.803   9.612  14.101  0.0319  0.1667 -0.0971
11593W        W30447   1.116  18.050   4.429  0.1919 -0.3478  0.1515
11594W        W30448  16.935  11.414  10.457  0.2115  0.0168  0.0667
11595W        W30449   0.937  16.096   2.395 -0.0660 -0.3738  0.2959
11596W        W30450  15.114  18.273  13.341 -0.2623  0.1864  0.2154
11597W        W30451   9.798  13.728  11.580  0.0697 -0.2136 -0.0337
11598W        W30452   7.131   2.982   5.757  0.0231 -0.0212 -0.0460
11599W        W30453  16.701   1.860  14.862 -0.1463  0.1683 -0.1637
11600W        W30454   6.904   4.703   0.760 -0.2186 -0.0098 -0.1407
11601W        W30455  15.628   6.779  13.787 -0.2770  0.1009 -0.2953
11602W        W30456  14.643   6.442  14.697 -0.0634  0.0111  0.0153
11603W        W30457  13.922  12.228   3.621  0.1168 -0.1055  0.2491
11604W        W30458   9.202   6.127  11.847 -0.2562  0.0206 -0.3011
11605W        W30459  10.974   8.350  13.490  0.0011  0.1472 -0.0894
11606W        W30460   5.760   7.687   2.795  0.1034 -0.2494  0.2675
11607W        W30461  11.813  16.766  11.778 -0.0621 -0.0016 -0.1192
11608W        W30462  17.098   6.847   3.529 -0.0104 -0.0875  0.1479
11609W        W30463  12.840  13.032  13.596  0.0360 -0.0444  0.1023
11610W        W30464   9.807   9.639   1.094  0.1138  0.0468 -0.0119
11611W        W30465   8.711  17.228  13.479 -0.0648  0.3223  0.1896
11612W        W30466  15.379  18.225  14.074 -0.1144  0.0483 -0.0106
11613W        W30467   4.569  18.553  15.001  0.2190 -0.0423 -0.1907
11614W        W30468   1.787  14.438  14.491 -0.0640  0.1995  0.2917
11615W        W30469  10.808   1.442  10.456 -0.1209  0.1904  0.0080
11616W        W30470   7.346   6.926  12.831  0.2118  0.4558  0.0109
11617W        W30471   6.611  12.089   3.050  0.0927 -0.2036 -0.2347
11618W        W30472   3.772  14.411   9.687  0.0345 -0.0685  0.2205
11619W        W30473   9.637   0.483  11.191  0.0471 -0.2039 -0.1399
11620W        W30474   3.669  11.178   2.840 -0.1659  0.0420  0.2534
11621W        W30475   1.355  13.158   3.201  0.0297 -0.0532  0.0214
11622W        W30476   8.023  17.316  13.822  0.0647  0.1522 -0.2204
11623W        W30477   5.854  10.726   2.834  0.3948  0.2467 -0.2543
11624W        W30478   0.577  14.161  14.827 -0.0821 -0.3189  0.1449
11625W        W30479  13.248  15.370  10.989 -0.0930 -0.3034 -0.2244
11626W        W30480   9.500  14.492   2.853 -0.1357  0.2945 -0.4230
11627W        W30481   0.993   1.748  13.922 -0.1819 -0.0770 -0.1682
11628W        W30482   0.284   2.512  10.544  0.0522 -0.2022  0.1696
11629W        W30483   1.842   6.976  13.749  0.1483  0.1156 -0.1327
11630W        W30484   9.209   3.192   2.881 -0.1383 -0.0532  0.0591
11631W        W30485   0.252  13.322  13.982  0.0491  0.0216  0.0199
11632W        W30486   7.418   1.349   2.953 -0.0969 -0.0772 -0.1529
11633W        W30487   7.898   5.696   3.946 -0.1561 -0.0718 -0.1668
11634W        W30488  11.187   0.658   3.008 -0.3283  0.0169  0.0797
11635W        W30489   1.588   6.216   2.352  0.1668 -0.1960 -0.2129
11636W        W30490   8.133  15.768  11.098  0.2192 -0.2121  0.1282
11637W        W30491   3.324  15.669   2.068  0.3030 -0.2072  0.2109
11638W        W30492  18.626   4.040  13.125 -0.0290 -0.4113 -0.1262
11639W        W30493   6.208   8.290  11.562 -0.0477 -0.1416  0.2107
11640W        W30494  17.667   5.213   0.094 -0.2494 -0.0159  0.0276
11641W        W30495  11.980  17.747   1.652  0.0662  0.2134  0.0077
11642W        W30496  17.346  13.037  13.291  0.3315  0.3510 -0.0489
11643W        W30497   9.561  14.913   1.779  0.1644 -0.0910 -0.1059
11644W        W30498   9.112  17.029  10.735 -0.0989 -0.2608 -0.2279
11645W        W30499  14.344   8.891  14.232 -0.0587 -0.1335  0.2618
11646W        W30500   5.902  12.378   0.498  0.2501  0.4534  0.0251
11647W        W30501  15.915   4.987  14.117  0.2160  0.1410  0.0867
11648W        W30502   7.115   5.980   1.370  0.0373 -0.1551  0.0587
11649W        W30503   5.090  12.312   2.934  0.0721  0.0014 -0.0638
11650W        W30504   2.692  13.305  11.239  0.0167 -0.0237 -0.1366
11651W        W30505  16.303   5.739   2.429  0.1102 -0.1683  0.0376
11652W        W30506   2.226   5.345  12.873 -0.2438 -0.2264 -0.2692
11653W        W30507   3.037   1.255   4.148 -0.1047 -0.1741  0.0638
11654W        W30508  10.754   7.676  13.034  0.1703  0.1242  0.2640
11655W        W30509   8.338   0.514   1.196 -0.0562  0.3273 -0.0772
11656W        W30510  15.353  16.468  11.477  0.1181 -0.2549 -0.3064
11657W        W30511  12.464  16.574  12.631 -0.0019 -0.1643  0.1709
11658W        W30512  11.040  18.328  10.701  0.1962 -0.0046  0.2948
11659W        W30513  18.044   0.780   2.723 -0.2509  0.0656  0.1126
11660W        W30514   4.074  15.475  12.433  0.0658  0.0067 -0.5435
11661W        W30515  11.132  15.772   5.529 -0.0296 -0.1784  0.1167
11662W        W30516   2.110   8.289  13.599  0.0783 -0.0478 -0.0558
11663W        W30517  18.433   9.953  11.995 -0.1810  0.0607  0.0211
11664W        W30518   7.620   5.542   2.141 -0.5035 -0.0583 -0.0793
11665W        W30519   5.505   8.465   1.530 -0.3055  0.1503 -0.2062
11666W        W30520   5.389  16.549   3.300  0.2009 -0.4023  0.3351
11667W        W30521  17.791   1.777   0.883  0.4411  0.0359  0.1245
11668W        W30522   7.081  14.972   1.865  0.1330  0.3052  0.3164
11669W        W30523  15.194   3.901  14.533 -0.1540  0.1782  0.1949
11670W        W30524   3.107  15.012  12.767  0.1742 -0.3384  0.0592
11671W        W30525  11.733   7.591  13.201 -0.1627 -0.1683  0.0058
11672W        W30526   1.502  11.269   4.129 -0.3106 -0.0924 -0.0835
11673W        W30527   1.316   0.202   4.594 -0.0160  0.0776 -0.2270
11674W        W30528  11.598  10.205   4.800  0.1460  0.3067  0.0289
11675W        W30529  13.578  14.504  11.056  0.2761 -0.0203 -0.1090
11676W        W30530  16.761  14.601   2.376  0.0554  0.1242  0.0289
11677W        W30531   8.698  14.270  14.010 -0.1801  0.0430  0.0339
11678W        W30532   6.531  18.160  12.300  0.1988 -0.2502  0.1136
11679W        W30533  14.452  14.801   0.926 -0.0592  0.0398 -0.0192
11680W        W30534   8.218  12.368   1.538  0.3205  0.1299 -0.2197
11681W        W30535  16.002   9.733  12.443 -0.0969 -0.0726  0.0960
11682W        W30536  11.402   7.315  10.416  0.2009 -0.1829 -0.1122
11683W        W30537  10.908   8.755  13.003 -0.1720  0.1506 -0.2855
11684W        W30538   1.260  18.564  14.188  0.0376 -0.1245 -0.0779
11685W        W30539   5.619   8.918   0.624  0.1423  0.0853  0.2155
11686W        W30540   1.424   1.014   1.095  0.2312  0.0588 -0.0555
11687W        W30541   8.124  13.261  12.626 -0.0854 -0.0478  0.0129
11688W        W30542   9.452   9.441  14.584 -0.4426  0.1766  0.1250
11689W        W30543   1.892   0.803   2.756  0.2660 -0.2533  0.1479
11690W        W30544  11.301   9.347  10.749  0.0403  0.0937  0.1589
11691W        W30545   7.052  15.736  12.068 -0.1432 -0.1389  0.1203
11692W        W30546   3.192  17.974  13.472  0.2001 -0.0197  0.2750
11693W        W30547   1.906  14.507  12.297 -0.2300 -0.0528  0.0728
11694W        W30548  10.873  16.991  10.847 -0.1212  0.1050  0.1642
11695W        W30549   2.261   2.349   3.476 -0.3618 -0.1399 -0.4112
11696W        W30550  12.740   0.901   3.083 -0.0455 -0.1777  0.2481
11697W        W30551  16.262   2.126  13.290  0.0039  0.2271  0.1271
11698W        W30552  12.454  14.972   2.538  0.2783  0.2063 -0.1514
11699W        W30553   6.392   5.202   3.556  0.1308 -0.1173 -0.2528
11700W        W30554   5.937   9.639  13.769 -0.1986 -0.0035  0.2433
11701W        W30555  15.182  11.049  14.866 -0.3024  0.0559  0.2145
11702W        W30556  12.825   0.377  13.757 -0.0258 -0.3035 -0.0375
11703W        W30557   8.980   3.315  15.014 -0.1937 -0.0076  0.1242
11704W        W30558   0.660   3.164  13.469 -0.2205 -0.2133 -0.2134
11705W        W30559  17.497  12.567   4.826 -0.0566  0.1297  0.1102
11706W        W30560   7.590  10.087  13.101  0.3347 -0.2635 -0.0915
11707W        W30561   4.695  11.694   3.328 -0.3940  0.1755  0.1452
11708W        W30562  14.802  10.477  14.288 -0.0762  0.0460 -0.2093
11709W        W30563   5.505   5.706   0.773 -0.2145 -0.0924  0.1542
11710W        W30564   8.163  16.622  11.096  0.3681 -0.1209  0.3339
11711W        W30565   6.162  13.739   2.162 -0.1717 -0.1517 -0.0376
11712W        W30566  16.533  10.213  13.623 -0.1278  0.3335  0.1726
11713W        W30567  14.833   2.788   3.458 -0.0754 -0.0333 -0.2321
11714W        W30568   4.482  17.364  12.976  0.3837  0.2197 -0.1058
11715W        W30569  12.099   1.640   0.049  0.0295 -0.2187  0.0505
11716W        W30570  14.719   8.264   9.999  0.1355  0.2474 -0.1603
11717W        W30571   5.072  17.864  12.310 -0.1287 -0.1318  0.2386
11718W        W30572  17.676  16.339   1.401  0.1157 -0.2724  0.3165
11719W        W30573  10.839  15.120  14.459  0.0758 -0.1504 -0.5752
11720W        W30574  11.238  15.448  13.944  0.2557  0.0379 -0.1057
11721W        W30575  11.778   6.572  11.350  0.0550  0.0391  0.0912
11722W        W30576  11.719   5.258   3.367 -0.3586  0.2815  0.2657
11723W        W30577   6.647  15.989  12.998  0.1826 -0.1631 -0.0347
11724W        W30578   1.354   1.091  14.021 -0.0133 -0.1206 -0.2388
11725W        W30579  13.006   1.985   1.185  0.0885 -0.0993  0.0903
11726W        W30580   0.531   3.518   1.413 -0.0778  0.1017  0.1454
11727W        W30581  16.939   6.456   5.255  0.2139  0.1686  0.0471
11728W        W30582  11.249   3.319   1.859 -0.3249  0.1950 -0.1589
11729W        W30583   5.562   4.578  10.524 -0.1060 -0.2919 -0.1858
11730W        W30584   9.519   4.221   1.394 -0.0819  0.2827 -0.0150
11731W        W30585   7.158  18.424   3.222 -0.0051 -0.2465 -0.0701
11732W        W30586  11.386   6.005  13.178 -0.0302  0.2123 -0.3544
11733W        W30587   4.489  10.423  13.626 -0.0028  0.0785  0.0210
11734W        W30588   1.671  14.007  13.830 -0.2326 -0.2694 -0.0111
11735W        W30589   3.083   9.841  12.028  0.3026 -0.1072 -0.0790
11736W        W30590  13.524  12.778  12.271 -0.0096  0.0851  0.1011
11737W        W30591  13.768   0.628  13.952 -0.0620  0.0518  0.1029
11738W        W30592  13.873   9.753  14.567 -0.0279 -0.2050  0.0274
11739W        W30593  12.475   0.695   0.785  0.4239 -0.1344 -0.1859
11740W        W30594   4.918  14.098   1.669 -0.2667  0.1594  0.0224
11741W        W30595  15.959   9.667  10.522 -0.0707  0.1067 -0.2128
11742W        W30596   8.497   4.171  10.930 -0.1452 -0.0478  0.3805
11743W        W30597  18.631   6.069  14.874 -0.0647  0.2379 -0.2427
11744W        W30598  16.132   3.455   3.007  0.2739  0.0359  0.0340
11745W        W30599  12.288   2.989   0.685 -0.4422 -0.0470  0.0119
11746W        W30600  16.912   8.388   4.608  0.2716  0.2387  0.0043
11747W        W30601  14.881   0.618   1.887  0.1232 -0.1993 -0.2863
11748W        W30602  11.475   1.092   1.980 -0.0742 -0.2649 -0.0519
11749W        W30603   2.599   7.878   4.403  0.2929  0.2985  0.0511
11750W        W30604   5.106   1.217   3.645  0.4148 -0.1023  0.0103
11751W        W30605   8.778   2.435   1.768  0.0408  0.2492 -0.0189
11752W        W30606   7.575   8.011  14.804 -0.1700  0.1396 -0.0479
11753W        W30607   2.824   1.654  12.275 -0.2477 -0.1089  0.0278
11754W        W30608  13.101  13.381   2.670  0.3000 -0.1106 -0.0657
11755W        W30609   4.472   2.638  12.549  0.0531 -0.2375 -0.0292
11756W        W30610  18.570  10.171   3.302  0.0587  0.1453  0.2385
11757W        W30611  13.233   1.706   0.382  0.4245 -0.0699  0.0094
11758W        W30612  17.330  16.538  12.211  0.0172 -0.2257 -0.0515
11759W        W30613  15.006   8.997   4.153 -0.1028  0.4585 -0.1539
11760W        W30614  15.018   4.030   0.477  0.1120 -0.0132 -0.1605
11761W        W30615   9.404  14.814  13.573  0.0741 -0.1340  0.0846
11762W        W30616   3.959   0.429  12.129  0.0658  0.4028 -0.1196
11763W        W30617   3.815  15.747  13.351  0.1206 -0.2257 -0.2259
11764W        W30618   6.285   5.929   1.223 -0.0900 -0.1384 -0.0798
11765W        W30619  18.218   7.198  12.384  0.0739  0.3530  0.1326
11766W        W30620   3.038   9.282   3.239  0.2043  0.1691 -0.0775
11767W        W30621   9.399   7.167   4.147 -0.1595 -0.0201 -0.1005
11768W        W30622   6.630   3.594  14.832  0.1097 -0.0650  0.0965
11769W        W30623   9.964  14.154  14.346  0.1530  0.0512  0.0971
11770W        W30624  12.591  18.507   0.838 -0.1725  0.1126  0.3346
11771W        W30625  15.096   0.707  10.841 -0.1416  0.1496  0.0599
11772W        W30626   9.061  11.928   2.092 -0.1143 -0.1455  0.0848
11773W        W30627   6.066   2.446  11.063 -0.3452  0.3336 -0.0163
11774W        W30628  14.464   6.371  14.224 -0.0840  0.0968  0.0543
11775W        W30629   8.393  12.325  14.842  0.3012 -0.2236  0.0467
11776W        W30630  12.999  18.574   4.189 -0.2005  0.1406 -0.1234
11777W        W30631  12.094   1.298   3.082 -0.0927 -0.0513  0.1575
11778W        W30632  14.688   9.823   0.061 -0.0461  0.2729 -0.0468
11779W        W30633  11.904  17.910   3.207 -0.1963 -0.0550  0.1813
11780W        W30634   9.725  13.128  12.616  0.2077  0.0230  0.3930
11781W        W30635  16.540   5.310   2.465  0.2718  0.0621 -0.1155
11782W        W30636  11.668  10.339  10.483 -0.0616 -0.0023  0.0345
11783W        W30637   6.228   1.137  11.169 -0.0711  0.0829 -0.3409
11784W        W30638  14.637  10.859  13.672  0.0210  0.1062  0.2254
11785W        W30639   4.760   7.770  14.632  0.0836  0.2250  0.0318
11786W        W30640   4.284   4.178  10.923 -0.1388 -0.1615 -0.3533
11787W        W30641  17.271  12.800   1.534 -0.2727 -0.0749  0.1264
11788W        W30642  13.122  12.930   0.151  0.0687 -0.0314 -0.0792
11789W        W30643  10.209   1.861  14.097 -0.1936  0.0180  0.3201
11790W        W30644  11.548   9.995   0.586  0.3234 -0.3216  0.1034
11791W        W30645  14.575   9.454   3.542 -0.1449  0.1352  0.6742
11792W        W30646   1.740   7.948  11.870 -0.0032  0.1460  0.0962
11793W        W30647  11.335  13.581   3.985  0.1283  0.3544 -0.0545
11794W        W30648  14.570  11.392  13.840 -0.1460 -0.0642 -0.1774
11795W        W30649  16.643   0.905  14.528  0.0077  0.0763  0.3197
11796W        W30650  10.787  14.701  12.030  0.2554  0.0405  0.1977
11797W        W30651  10.113   3.821   5.084  0.1757  0.2204  0.0628
11798W        W30652  14.002   1.108  12.924 -0.1645 -0.1744  0.0604
11799W        W30653   5.462   3.109   2.763  0.0915 -0.0581 -0.0020
11800W        W30654  15.654   8.048  14.015  0.3568  0.5180 -0.1928
11801W        W30655  10.728  16.000   2.582 -0.1044  0.1260 -0.0553
11802W        W30656   4.167   0.305  13.413 -0.1917 -0.0834  0.0073
11803W        W30657  18.411  11.037   0.736  0.0520  0.4075 -0.0264
11804W        W30658   9.770  10.771  10.899  0.2859 -0.2286  0.1332
11805W        W30659  12.828   3.478  12.711  0.1169  0.0415 -0.2105
11806W        W30660  15.599   7.646  11.529 -0.0344 -0.0203 -0.1652
11807W        W30661  13.334  11.374  13.712 -0.0021  0.2513 -0.2910
11808W        W30662   5.317   2.798  14.510 -0.3398  0.1439 -0.6521
11809W        W30663   1.063  16.153   0.740  0.1401 -0.1617  0.2409
11810W        W30664   1.540   6.549  14.594 -0.0080 -0.1347 -0.1305
11811W        W30665   4.181   2.353  14.701 -0.3318 -0.1100  0.0986
11812W        W30666   0.436   2.462   3.756 -0.0450 -0.1040  0.0614
11813W        W30667   4.594   0.970  11.741 -0.0098 -0.0403  0.0409
11814W        W30668   2.050   4.406   4.760 -0.1898  0.0532  0.1334
11815W        W30669  17.711   0.841   0.789  0.0964  0.0818 -0.3162
11816W        W30670  13.923   5.300   1.677 -0.2770 -0.1125  0.2782
11817W        W30671   5.140  14.710  11.251 -0.0770  0.3065  0.2412
11818W        W30672  14.277  12.889  13.990  0.1061 -0.3018 -0.0628
11819W        W30673   2.404  16.048  12.965  0.1496  0.0533  0.1500
11820W        W30674  14.628   6.569   1.690  0.0205 -0.1495 -0.0115
11821W        W30675  16.700   0.232   1.872 -0.2514  0.3325  0.2478
11822W        W30676  10.981  17.316  12.777  0.0514  0.4196 -0.1374
11823W        W30677   1.530   8.455   3.852 -0.1269 -0.0035  0.4030
11824W        W30678  10.703  15.795   3.141 -0.1951 -0.3048 -0.3299
11825W        W30679  12.066  11.325   2.591 -0.1053 -0.2665 -0.2087
11826W        W30680  12.768  13.763   2.853 -0.3436 -0.1902  0.0548
11827W        W30681   9.777   1.228  12.486 -0.0429  0.0575  0.0352
11828W        W30682  10.254   7.413   4.121  0.0428  0.0195 -0.0292
11829W        W30683  18.857   4.903   3.860 -0.1085  0.1691  0.2963
11830W        W30684  17.019   6.471  10.714 -0.2191 -0.0109 -0.1624
11831W        W30685  17.166   2.654  10.802 -0.0785  0.1397  0.1094
11832W        W30686   8.800  14.277   3.501 -0.0267 -0.3524 -0.0568
11833W        W30687   2.655  12.175  13.399  0.2063 -0.2503  0.1356
11834W        W30688   2.185  13.451  11.306  0.1082  0.0995  0.0665
11835W        W30689   4.982   1.191  10.737 -0.0829  0.1232  0.0303
11836W        W30690  18.473  14.781  12.741  0.0752  0.3880  0.0871
11837W        W30691   9.334  12.327   4.067 -0.1399 -0.1489  0.2179
11838W        W30692   0.748   0.190   2.158  0.2770  0.0675  0.0957
11839W        W30693   2.627  11.384  10.981 -0.2090 -0.2914  0.3750
11840W        W30694  14.337   4.590  12.638  0.1053  0.0187  0.1952
11841W        W30695  15.416  12.566   0.314 -0.3601  0.0814  0.0540
11842W        W30696   4.147   2.916  13.070  0.2406  0.1263 -0.0321
11843W        W30697  11.938  11.692   0.906  0.1925 -0.0650 -0.0987
11844W        W30698  14.032   9.837   5.495 -0.0067 -0.2787 -0.3162
11845W        W30699  14.287   0.840  13.728  0.1112  0.1948 -0.0642
11846W        W30700  17.099   6.181  14.646  0.0139  0.0427 -0.1450
11847W        W30701  12.896   1.334  14.089  0.1287  0.3100 -0.2570
11848W        W30702  10.112   8.795  11.070 -0.2099  0.1232  0.0935
11849W        W30703   4.866   7.908   3.353 -0.0131  0.0476 -0.0315
11850W        W30704   0.949   0.439  13.523  0.0495  0.0888 -0.2296
11851W        W30705  18.782   4.967  11.434  0.0530  0.0741  0.0380
11852W        W30706   2.104   5.268  12.216 -0.2823  0.3315  0.0640
11853W        W30707  17.351   1.720  10.924  0.1858 -0.2276 -0.1300
11854W        W30708  12.258   0.727   3.874  0.1053 -0.3492 -0.1383
11855W        W30709   0.043  18.452   4.794 -0.1210  0.0260 -0.1469
11856W        W30710   1.825   8.654   2.841 -0.1388  0.1195  0.4199
11857W        W30711   2.627   3.937   2.085  0.0172 -0.1657 -0.1754
11858W        W30712   3.639   8.833   4.359  0.5452 -0.0686 -0.1534
11859W        W30713   3.132  15.417   3.581 -0.3583 -0.1763  0.0488
11860W        W30714  15.999  16.973   0.262 -0.0176 -0.0377  0.0240
11861W        W30715  11.474  13.052   4.261  0.2858  0.2172  0.1809
11862W        W30716   6.188   9.097  11.712  0.0930  0.2620  0.1385
11863W        W30717   3.260   5.503  13.041  0.1116  0.2955  0.0147
11864W        W30718   2.538  12.263  11.262 -0.1694  0.0320 -0.1261
11865W        W30719   4.149   8.815  11.957  0.2542  0.0508  0.1699
11866W        W30720  15.007   7.418  13.824  0.0787 -0.0191 -0.0057
11867W        W30721   3.602  17.913   1.756  0.1870  0.0259 -0.1955
11868W        W30722   6.088   9.637  10.459  0.2020 -0.2616  0.1914
11869W        W30723  10.272   3.295   0.863  0.4592 -0.1208  0.1162
11870W        W30724  17.684   3.927  13.836 -0.3616  0.0257  0.1789
11871W        W30725  12.449   3.665   3.408 -0.3508 -0.1156 -0.0750
11872W        W30726   4.559   0.063  13.444 -0.1742 -0.0718  0.0804
11873W        W30727  12.531  11.640  12.865  0.1235 -0.1739 -0.1074
11874W        W30728  12.883   2.023   0.605  0.1510  0.0584 -0.0419
11875W        W30729  17.280  10.306  13.685  0.3566  0.3068  0.1421
11876W        W30730   2.999   7.745  13.704  0.5217  0.0281  0.0040
11877W        W30731   8.179   2.974  12.232  0.0442  0.4936 -0.2687
11878W        W30732   4.163   4.039   5.751  0.1318  0.0323 -0.0920
11879W        W30733   9.398  18.802  10.584 -0.2940  0.0219  0.0740
11880W        W30734   9.359  17.974  11.232 -0.0746 -0.5899 -0.2816
11881W        W30735  15.160  15.886  14.037 -0.3529  0.1684 -0.2064
11882W        W30736   5.544   0.124  11.567 -0.0891 -0.0810 -0.0746
11883W        W30737   1.651   6.070  14.893 -0.5127 -0.0927 -0.2075
11884W        W30738  11.537  10.149  10.993  0.1451 -0.0409 -0.0135
11885W        W30739   9.000   3.239  11.072 -0.1420  0.2695 -0.1486
11886W        W30740  11.200  10.230  11.310 -0.0278 -0.0658  0.0187
11887W        W30741   8.718  14.761  14.157 -0.2351 -0.3231  0.0951
11888W        W30742  11.229  13.951   3.640  0.1011 -0.2230  0.0495
11889W        W30743  10.969   8.632   4.324  0.4827  0.2054 -0.0735
11890W        W30744  17.216   3.850  13.847  0.1827  0.1306  0.1772
11891W        W30745  10.412  18.733  13.942 -0.1354 -0.2947 -0.3500
11892W        W30746   5.368   5.101  13.773 -0.0443 -0.0876  0.1939
11893W        W30747   5.014  12.509  10.949 -0.0338 -0.0574  0.3596
11894W        W30748  15.465   4.828   2.775  0.1591 -0.1974  0.2020
11895W        W30749  15.612  10.839  14.926 -0.0073 -0.2383 -0.0783
11896W        W30750   4.017   2.506  12.761  0.3233 -0.1192  0.0812
11897W        W30751  13.146   7.869  13.173 -0.0260  0.0186  0.0725
11898W        W30752  14.461   9.616  11.116 -0.0239  0.1516 -0.1799
11899W        W30753  13.028   5.150   4.881  0.1847  0.0943  0.0057
11900W        W30754  16.270   1.353   1.572  0.2007  0.0350 -0.1643
11901W        W30755   8.918   8.219   2.168  0.1364  0.0306  0.0469
11902W        W30756  12.293   0.685   2.274  0.1160 -0.2210  0.1867
11903W        W30757  10.517   5.269  12.712  0.0042  0.1581  0.1882
11904W        W30758  13.031   5.687  13.637  0.2933 -0.0031 -0.2593
11905W        W30759   7.560   0.769   2.931  0.4259 -0.0520  0.2080
11906W        W30760  10.838   4.337  12.731 -0.0366 -0.1766 -0.2934
11907W        W30761  17.068  15.717  14.636  0.0541 -0.0383  0.0448
11908W        W30762  12.593   2.226   1.346  0.2461 -0.0876 -0.0431
11909W        W30763  14.635   4.310  13.391  0.0673 -0.2028 -0.0237
11910W        W30764  14.505   1.489   3.347 -0.0488  0.1969  0.2576
11911W        W30765   8.535   2.867  14.919  0.1342 -0.0809  0.1211
11912W        W30766  17.095  15.670  13.301 -0.0331  0.1305  0.1126
11913W        W30767   2.241   4.998   0.367 -0.2954 -0.0850 -0.0183
11914W        W30768  11.000  12.138   2.793  0.2076 -0.1011  0.0011
11915W        W30769   8.462   4.722  12.916 -0.0896 -0.1042  0.4237
11916W        W30770  11.308  12.316   0.404 -0.1375  0.1295  0.3305
11917W        W30771   9.911   6.230   1.827  0.0100 -0.0511 -0.4169
11918W        W30772  18.575   2.912  14.313 -0.0604 -0.1550  0.1626
11919W        W30773   8.629   2.104   0.509 -0.1709 -0.1957 -0.1277
11920W        W30774   1.904   2.318  12.899 -0.0193 -0.0413 -0.2022
11921W        W30775  11.722   3.812  12.467  0.0786  0.0422  0.0458
11922W        W30776  15.652   8.759   1.379  0.1683 -0.3027  0.2605
11923W        W30777   8.061   2.181   0.250  0.2635 -0.0146 -0.1999
11924W        W30778  12.601  11.144  11.137 -0.2665 -0.0064  0.2430
11925W        W30779  11.116   8.611  12.192  0.2120  0.4961  0.0960
11926W        W30780   5.267   5.604  13.734 -0.2532 -0.2899 -0.0582
11927W        W30781   4.125   2.706   4.083  0.0967  0.2002 -0.1138
11928W        W30782  10.232  13.578  12.463  0.1919 -0.0523  0.0088
11929W        W30783   1.396  10.988  10.928 -0.1486 -0.1578  0.0397
11930W        W30784   9.892   9.282   0.780  0.0546  0.1437  0.0418
11931W        W30785  15.048  15.704  13.615 -0.0929 -0.0905  0.1842
11932W        W30786  10.127   2.633   2.760 -0.0878 -0.0671 -0.0419
11933W        W30787  18.238   6.215   0.048  0.1487  0.1800 -0.2055
11934W        W30788  13.353   1.257   1.906 -0.0634 -0.3271  0.3468
11935W        W30789  16.460   3.881   0.503  0.1965 -0.2142 -0.0404
11936W        W30790   5.938   3.428   2.847 -0.0053 -0.0038  0.1865
11937W        W30791   4.444  15.838   3.795 -0.1802 -0.1375  0.0391
11938W        W30792   2.574  18.598  12.513  0.3497 -0.0370 -0.0180
11939W        W30793   4.118  10.110  11.152  0.0268 -0.0009  0.0284
11940W        W30794   4.175   0.773   1.339 -0.3094  0.0876 -0.2196
11941W        W30795   6.950   6.563  13.947 -0.0570  0.0093  0.0189
11942W        W30796   8.085   9.389   2.378  0.1350 -0.0411  0.3568
11943W        W30797  10.663   0.565   0.375 -0.2374  0.0470  0.1254
11944W        W30798  11.236  12.508  11.045  0.1233  0.1475 -0.0648
11945W        W30799   4.605   1.941   3.553  0.0198 -0.1114 -0.0697
11946W        W30800   5.513  12.038  14.718  0.0457  0.0679  0.0665
11947W        W30801   4.968   4.694   3.547 -0.0204  0.0522  0.0133
11948W        W30802   9.248  15.404   0.781 -0.2387  0.1517 -0.1601
11949W        W30803   7.151   6.939   0.352  0.3379  0.4510  0.0957
11950W        W30804  15.741   9.350   1.432  0.1269  0.0850 -0.1897
11951W        W30805   5.276  15.753  14.201  0.1870 -0.0397  0.0768
11952W        W30806   3.064  11.386   3.492 -0.0451 -0.2441  0.0777
11953W        W30807   1.667   4.343  11.804  0.0768 -0.1309 -0.0453
11954W        W30808  12.755   2.400   0.940  0.2318  0.0360 -0.1737
11955W        W30809  10.617  11.855   2.505  0.3513  0.1673 -0.0578
11956W        W30810  14.833   0.004   0.693  0.2823 -0.1164 -0.3363
11957W        W30811   1.463   1.805  12.127  0.1150 -0.0831 -0.2384
11958W        W30812  13.640  14.261   2.072 -0.0700  0.3858  0.1573
11959W        W30813   9.406   3.478   0.848 -0.2233  0.0767  0.1541
11960W        W30814   4.490   8.811   3.092  0.2863  0.2951  0.0736
11961W        W30815   7.732  10.382  14.130  0.3667 -0.0919  0.1586
11962W        W30816  12.223  17.612   2.164  0.0479  0.0472  0.3060
11963W        W30817  16.600   1.258   3.989  0.0941  0.1315  0.1681
11964W        W30818   5.015  14.355  12.026  0.2076  0.2117  0.0933
11965W        W30819   5.913   4.604  15.093 -0.1859 -0.1589  0.2698
11966W        W30820  11.580   7.571   0.146 -0.0688  0.0783 -0.0784
11967W        W30821  16.441  11.245   2.394 -0.1726  0.2280  0.1133
11968W        W30822  18.328  14.492  14.845 -0.0186 -0.3938  0.1678
11969W        W30823  14.378   5.783   3.792  0.0304  0.2359 -0.4339
11970W        W30824  13.162   0.768   2.727 -0.1161  0.1006  0.4085
11971W        W30825   7.964  13.364  13.366 -0.0934  0.0755  0.0044
11972W        W30826   4.532  16.772   2.751 -0.2903 -0.1244  0.0373
11973W        W30827  12.814   4.117  15.110  0.0367 -0.3778 -0.2741
11974W        W30828   7.826   7.568  13.424  0.2602 -0.1329 -0.0302
11975W        W30829  10.838  15.870  13.668 -0.2037  0.0984 -0.2396
11976W        W30830   8.208   7.324  13.154  0.3707  0.1301  0.0513
11977W        W30831   8.669  16.104  14.937  0.3667 -0.0930  0.1578
11978W        W30832   9.013  17.969   1.831  0.1988 -0.1034 -0.0243
11979W        W30833  15.661  12.847  12.666 -0.0852 -0.2202 -0.0459
11980W        W30834  18.195  10.482  11.843 -0.2133 -0.1226 -0.0437
11981W        W30835   7.815   4.119   5.498  0.0484 -0.1714  0.1764
11982W        W30836  10.201  16.852   1.532  0.1183 -0.0704  0.1158
11983W        W30837  11.306   8.234  12.469  0.0522 -0.3354 -0.1369
11984W        W30838  15.813  12.331  11.412  0.0283  0.0566  0.0221
11985W        W30839  16.681   1.095  13.519 -0.1165  0.1034  0.2393
11986W        W30840  11.995  13.033  13.270 -0.1330  0.0448  0.0769
11987W        W30841   8.908   9.602  13.344  0.0986 -0.2986 -0.3131
11988W        W30842   7.847   3.879   3.795 -0.0829  0.0636 -0.2496
11989W        W30843  10.079  18.593  12.829 -0.0662  0.2602  0.2416
11990W        W30844   4.393  13.998  11.307 -0.3074  0.0605 -0.2074
11991W        W30845  15.789   7.718  14.397 -0.3773  0.0478 -0.1168
11992W        W30846   2.666  17.338   3.184  0.2970 -0.2395 -0.1178
11993W        W30847  13.449  17.545   1.486  0.2875 -0.0159 -0.3833
11994W        W30848  11.994  14.872   2.303  0.0642  0.1050 -0.4382
11995W        W30849   0.321  10.740   3.611  0.0102  0.3352 -0.1060
11996W        W30850  16.189  14.846  13.742 -0.0353 -0.2588  0.0998
11997W        W30851  16.639  16.271  11.196  0.0711 -0.0920  0.0967
11998W        W30852  11.325  12.973  11.617  0.2615  0.0719  0.0705
11999W        W30853   6.855  15.335   0.121  0.0733  0.1461  0.1567
12000W        W30854   7.528  15.818   2.230 -0.0510  0.0897 -0.1594
12001W        W30855   5.476  11.921   1.975 -0.2073 -0.0889 -0.4007
12002W        W30856  15.843   1.662  11.537  0.0088  0.3544 -0.4149
12003W        W30857   2.295   7.359   3.895  0.0745 -0.0881  0.1803
12004W        W30858  16.990  12.449   4.027 -0.2197 -0.2354  0.1531
12005W        W30859   9.048  13.440   3.335  0.1456  0.2373 -0.2367
12006W        W30860   4.541  11.028  11.115  0.1665  0.2034 -0.4294
12007W        W30861  11.892   6.335  14.040 -0.1006  0.0045 -0.2267
12008W        W30862   2.633   6.110   1.632  0.1289  0.1654  0.2449
12009W        W30863  13.600   6.648   0.563 -0.0782  0.1606  0.0961
12010W        W30864   9.598  10.342   2.658 -0.1520  0.2278 -0.0202
12011W        W30865  11.211  10.791  11.590  0.0724 -0.2305 -0.1255
12012W        W30866  14.048  11.141   4.272 -0.0547 -0.1110  0.0657
12013W        W30867   6.699  18.446   0.465 -0.1085  0.1509 -0.2176
12014W        W30868  10.661  18.160   9.417 -0.0257  0.1318  0.1448
12015W        W30869   5.661   9.963  12.700 -0.1912  0.1145  0.0564
12016W        W30870   6.061  13.487   0.427 -0.0874  0.0779 -0.0445
12017W        W30871  14.977   7.569   3.320 -0.1775 -0.1133 -0.1808
12018W        W30872  11.833  17.686  11.991 -0.2515 -0.0636 -0.1693
12019W        W30873   6.317   5.817   2.087  0.0686  0.3117  0.1715
12020W        W30874  18.013   6.276  13.771 -0.0940  0.1693 -0.0352
12021W        W30875   7.854   3.814   2.839 -0.2594 -0.1216  0.0649
12022W        W30876   0.862   7.257  13.462 -0.1320 -0.0933  0.2650
12023W        W30877  14.215   0.912  12.518 -0.0668  0.0017 -0.4000
12024W        W30878   4.121   8.035  10.758  0.0065 -0.0861 -0.1744
12025W        W30879   1.655  13.580   2.039 -0.1936  0.0222 -0.1008
12026W        W30880   1.716  17.747   2.632 -0.3432  0.0149  0.2117
12027W        W30881  12.508  17.210   0.779  0.3841 -0.2226  0.3362
12028W        W30882   4.351   2.704  11.016  0.2457  0.0365  0.1893
12029W        W30883   8.765   6.857   0.645  0.2273  0.1961  0.1031
12030W        W30884   4.055   4.474   2.140 -0.1759 -0.2057  0.0417
12031W        W30885   2.684   0.391  11.748  0.2003 -0.0600 -0.0739
12032W        W30886   4.606   0.829   1.845  0.1150 -0.1607 -0.0526
12033W        W30887  13.308   2.981  12.054 -0.1998 -0.3521  0.2713
12034W        W30888  15.460   1.820   1.207 -0.0482 -0.0750  0.2659
12035W        W30889   9.681   9.805   2.074  0.2793 -0.1399  0.0257
12036W        W30890  16.767  17.367   4.514  0.3787  0.0196  0.0682
12037W        W30891   3.018  17.846   1.831 -0.2745  0.0641  0.2184
12038W        W30892   8.929   3.368   0.499  0.0221 -0.0025  0.0737
12039W        W30893   1.434   2.012  13.699 -0.1882  0.2447  0.0599
12040W        W30894   6.236   0.227  14.099 -0.0052  0.2175 -0.1252
12041W        W30895   4.502  15.546  15.053 -0.1840  0.1043  0.4605
12042W        W30896  13.606   2.972   4.204  0.0928 -0.1621 -0.2376
12043W        W30897  16.048   6.415   9.750 -0.1928  0.0208  0.1347
12044W        W30898  15.352  18.335  15.012  0.0554  0.1954 -0.1041
12045W        W30899   3.205  18.152   1.116  0.1429  0.1485  0.3106
12046W        W30900   8.276  14.562   1.489  0.3182 -0.0058 -0.1590
12047W        W30901   2.813  11.104   3.095 -0.0139 -0.0916 -0.1346
12048W        W30902   1.720   2.062   2.607 -0.1848  0.2125  0.0861
12049W        W30903   0.947   6.936   1.397 -0.3206 -0.1889 -0.2115
12050W        W30904  12.281   1.234   2.406 -0.1673 -0.1234  0.0409
12051W        W30905   7.379   4.982   1.502 -0.2745  0.0886  0.2919
12052W        W30906   8.523   5.505   0.192 -0.3243 -0.3489 -0.3568
12053W        W30907  15.146  15.990  14.539  0.0381 -0.0699  0.0781
12054W        W30908   6.419   5.471   1.108 -0.0415  0.4421  0.1940
12055W        W30909   1.685   3.798  10.917 -0.1672 -0.2791  0.1106
12056W        W30910   9.006   3.528  12.170  0.1062 -0.2708  0.0967
12057W        W30911   3.354   6.961   0.623 -0.2211 -0.2445 -0.0075
12058W        W30912  11.665  12.575   0.224 -0.0100 -0.4164  0.1179
12059W        W30913   1.501  13.533  10.644  0.1298 -0.1093 -0.1359
12060W        W30914  13.261   6.738   4.776 -0.1277 -0.2185  0.0796
12061W        W30915  17.832   5.517   0.574 -0.0672  0.0470  0.0288
12062W        W30916   0.879  17.676   4.800  0.1169 -0.2250  0.1059
12063W        W30917  18.698   2.697   2.734  0.0816  0.0399 -0.2080
12064W        W30918  10.866   4.753  12.053 -0.0833 -0.1938  0.0804
12065W        W30919   4.414  13.777   5.017 -0.2135  0.1040  0.3886
12066W        W30920   6.211  17.264  14.742  0.0923 -0.1480  0.0959
12067W        W30921   4.437  16.179   2.957  0.1803 -0.1789  0.1417
12068W        W30922   7.982  10.888   2.030  0.1019 -0.0123  0.4077
12069W        W30923   6.168  13.499  11.384  0.1008 -0.1366  0.2460
12070W        W30924  10.389  11.448   2.707 -0.0907  0.0865 -0.1806
12071W        W30925   5.289   5.141  11.313 -0.0156 -0.0682 -0.5043
12072W        W30926   6.260   9.627  10.957  0.0804 -0.1230 -0.2133
12073W        W30927   4.012  18.545  13.062  0.0744  0.1536  0.0729
12074W        W30928   4.455  12.191  13.032 -0.3297  0.1785 -0.1324
12075W        W30929  16.259  12.334  11.870  0.0843 -0.0424 -0.2117
12076W        W30930   8.434  14.358  14.397  0.0930  0.0317  0.0393
12077W        W30931  12.183  16.372   2.319 -0.1835 -0.0095 -0.0131
12078W        W30932   9.676   5.215   2.953  0.1270 -0.1963 -0.0911
12079W        W30933  16.119  18.499  12.266 -0.1883 -0.2945  0.1286
12080W        W30934   7.723   3.332   1.923 -0.3194  0.1835  0.0622
12081W        W30935  10.984   0.934  11.384  0.3184  0.1303 -0.1073
12082W        W30936   1.127  12.056  13.499  0.1992  0.1279 -0.2195
12083W        W30937  12.240  18.597   0.534  0.0102 -0.0552  0.1440
12084W        W30938   0.703  13.326  12.905 -0.4379 -0.3414 -0.1265
12085W        W30939   4.203   5.524   3.792  0.0343 -0.0106  0.2447
12086W        W30940  18.842  13.358   1.440 -0.1318 -0.3472 -0.2379
12087W        W30941  13.006  14.983  12.506 -0.0329  0.3097 -0.1605
12088W        W30942  16.865  13.867  12.624  0.1273  0.1004 -0.4214
12089W        W30943  14.262  15.549  11.908 -0.2483 -0.2843 -0.1350
12090W        W30944   4.555   5.919  14.964 -0.1456  0.2260  0.1335
12091W        W30945  17.600  12.840   1.936 -0.1898  0.2796 -0.3567
12092W        W30946  16.779   2.216  12.019 -0.1437  0.2791 -0.1356
12093W        W30947   6.264  15.374  13.945 -0.0591 -0.0714  0.1727
12094W        W30948  18.736   2.695  11.373 -0.3154 -0.3378 -0.0977
12095W        W30949   5.833   6.588   0.874 -0.0192 -0.1393 -0.1297
12096W        W30950   8.089  17.288  11.279 -0.0279  0.1930  0.1171
12097W        W30951   1.619   4.058  12.945 -0.1896  0.0600  0.1892
12098W        W30952  17.272  17.766   4.507 -0.1106 -0.2032 -0.1309
12099W        W30953   5.125  11.190  11.757  0.0303  0.2858 -0.5888
12100W        W30954  15.614  13.246   3.165 -0.0038 -0.3489  0.1676
12101W        W30955   0.486   7.451  12.153 -0.4399 -0.0355  0.1924
12102W        W30956   6.388   1.632  11.150  0.0136 -0.1405 -0.0484
12103W        W30957   0.345  15.576  14.864 -0.4051  0.0480  0.3713
12104W        W30958  16.355   1.332  11.180 -0.1216  0.0179 -0.1352
12105W        W30959   3.830   8.574  13.853  0.2975 -0.1618  0.0842
12106W        W30960   7.034  14.007  14.358 -0.1244  0.2115  0.2763
12107W        W30961  13.354  10.111   4.244 -0.2839  0.2929  0.0770
12108W        W30962   1.948   2.761  12.607  0.0395 -0.2400 -0.4164
12109W        W30963   9.206   4.796   4.683 -0.0692  0.1055 -0.1561
12110W        W30964   2.154   6.389  12.869 -0.3338 -0.1112 -0.0812
12111W        W30965   1.280  16.252  13.294  0.2291 -0.1237 -0.2450
12112W        W30966  15.238   2.915  12.231  0.2879  0.0290 -0.2210
12113W        W30967  11.995   7.906   2.125 -0.1868 -0.4450  0.1654
12114W        W30968   1.392  14.548   0.262 -0.1937 -0.2722 -0.2449
12115W        W30969  14.711  13.372  11.089  0.0694 -0.0134  0.1314
12116W        W30970  17.906   0.722  13.125 -0.1264 -0.0981  0.2688
12117W        W30971   3.715   1.770  12.609  0.1419 -0.1999  0.0476
12118W        W30972   5.495  17.373   4.352 -0.0374  0.1899 -0.2295
12119W        W30973   2.885   0.125   2.297 -0.1022 -0.1560 -0.1220
12120W        W30974  15.828  10.589   3.368  0.0700 -0.1731  0.0612
12121W        W30975   9.150   9.811  11.053 -0.0743 -0.4785  0.0527
12122W        W30976  14.811   3.630  14.388 -0.0831 -0.0487  0.0169
12123W        W30977  11.340   7.335   2.332  0.1134  0.0088 -0.0896
12124W        W30978   5.090   0.959   1.727  0.1073  0.2425 -0.1392
12125W        W30979   4.112   0.969   3.822  0.2091 -0.2165 -0.2179
12126W        W30980   8.759  11.638  13.839 -0.0572  0.1976 -0.0641
12127W        W30981   8.688  14.001  14.626 -0.1717  0.4110 -0.1061
12128W        W30982   4.061  15.816  12.040 -0.2437 -0.1497 -0.1843
12129W        W30983  15.636   5.924   3.278  0.2496  0.2038 -0.0508
12130W        W30984   2.220  14.882   2.891  0.0130 -0.2010  0.1774
12131W        W30985  15.443  16.577  13.193 -0.2374  0.1399 -0.1095
12132W        W30986   8.111   2.491  14.951  0.1755 -0.1826 -0.1142
12133W        W30987   6.454  11.659  11.440  0.2181  0.0116  0.0923
12134W        W30988   0.211  12.023   3.121  0.0678  0.1643  0.0403
12135W        W30989   3.897  15.275  14.524  0.0326 -0.0801 -0.0098
12136W        W30990  14.314  10.236   0.720  0.2395  0.1315  0.1270
12137W        W30991  12.021  13.175   4.554  0.2408 -0.3249 -0.0649
12138W        W30992   9.096   8.751   0.523  0.1103 -0.0597 -0.2025
12139W        W30993   8.681   5.988   3.865 -0.1027  0.0266 -0.1815
12140W        W30994   9.420   8.572  14.373  0.3097  0.2235 -0.1454
12141W        W30995  12.825  16.496  14.845 -0.2748  0.1466  0.1517
12142W        W30996   0.069  15.112  15.093  0.1566 -0.0181  0.0893
12143W        W30997  12.700   9.661  11.353  0.0191 -0.2103 -0.0112
12144W        W30998   6.764   1.910  12.941 -0.0469 -0.0125 -0.0111
12145W        W30999  16.268   2.281  11.138  0.0678  0.5976 -0.0274
12146W        W31000  13.214   6.302  13.262 -0.0864 -0.2833 -0.0882
12147W        W31001  14.533   7.810   3.622  0.0340  0.1056  0.3398
12148W        W31002  14.795  14.568   4.098 -0.1125 -0.0318  0.2383
12149W        W31003  13.025  17.280   2.112 -0.0268 -0.3882 -0.0268
12150W        W31004  12.502  10.849  11.521 -0.4907  0.1456 -0.4459
12151W        W31005   1.762   4.799   4.420 -0.2291  0.2178 -0.1317
12152W        W31006  12.676   3.773   2.936  0.1378  0.2175  0.0251
12153W        W31007  14.366   9.598  12.668  0.0077  0.0904 -0.0914
12154W        W31008   7.472  13.050   1.831  0.0260 -0.1526  0.1226
12155W        W31009   5.396   3.083   3.730  0.1839 -0.0557  0.1112
12156W        W31010   6.453  10.326   2.396 -0.1899  0.4895 -0.1277
12157W        W31011   5.930  17.327  10.758 -0.0233  0.1575  0.1053
12158W        W31012   9.997  16.355   1.762  0.2214 -0.0888  0.0503
12159W        W31013   2.102   3.575  10.825  0.2187 -0.0450  0.2471
12160W        W31014  14.943   3.191   0.073  0.0146 -0.0682 -0.1170
12161W        W31015   0.028  13.741  14.185  0.2341 -0.2627  0.0755
12162W        W31016   1.511  13.385  13.115 -0.0159  0.0100  0.1208
12163W        W31017  11.121  13.702  11.476 -0.0204 -0.0814  0.0799
12164W        W31018   0.675   6.801  12.346  0.0154  0.0960 -0.0085
12165W        W31019  11.635   4.274  12.147  0.1533 -0.1482 -0.3223
12166W        W31020  15.641   3.130  13.982  0.4803  0.1388  0.0805
12167W        W31021   0.504  11.114   0.344  0.0915 -0.2796 -0.1649
12168W        W31022   2.729  15.965  14.159 -0.3234 -0.0464  0.2960
12169W        W31023   7.126  13.529   3.464  0.1639  0.0027 -0.0593
12170W        W31024   4.817  15.205  11.504  0.1215  0.0442 -0.2194
12171W        W31025   7.530  10.697  13.489  0.1602 -0.2717 -0.2283
12172W        W31026  15.069   4.359   4.193  0.3213 -0.0312  0.0259
12173W        W31027   1.560  14.485  10.587  0.0145  0.0727  0.1694
12174W        W31028  10.904   7.091   0.504  0.0409  0.3022  0.3916
12175W        W31029   6.388   9.301   4.353 -0.2789 -0.1156  0.3684
12176W        W31030  15.587   1.497  12.544  0.2389 -0.0136  0.3088
12177W        W31031  16.567  14.636  13.964 -0.1049 -0.3785  0.3727
12178W        W31032   6.547  11.178   4.184 -0.0855 -0.2910  0.2997
12179W        W31033   1.473   8.633  11.164  0.0021  0.0433  0.0660
12180W        W31034   6.646  11.646  10.827  0.1163 -0.2205  0.3411
12181W        W31035  11.486  16.360  11.790  0.1294 -0.2175  0.3863
12182W        W31036   6.253   6.377   3.772  0.2572  0.1132 -0.1539
12183W        W31037   7.369   3.603   4.277 -0.2160 -0.1015 -0.2448
12184W        W31038  16.140  17.031   2.146  0.1358 -0.1269  0.1443
12185W        W31039  15.926  13.327   1.420 -0.0514 -0.0502  0.1047
12186W        W31040   6.466  16.309   4.114 -0.3719 -0.2194  0.0182
12187W        W31041   6.240   0.175   3.148 -0.0307  0.1207 -0.1045
12188W        W31042  11.818  17.521  14.737  0.0814  0.0401  0.1444
12189W        W31043   8.414  13.059   1.944 -0.0642 -0.0398 -0.0014
12190W        W31044   8.778  10.344   0.287 -0.0678  0.0772 -0.1201
12191W        W31045   4.789  15.182  14.452  0.1139 -0.0965 -0.1779
12192W        W31046  10.790   8.461   2.504  0.0160  0.4488  0.1644
12193W        W31047   1.301  17.641  11.987 -0.1336 -0.0481  0.1560
12194W        W31048  17.998  17.700  11.893  0.1910  0.2252 -0.0361
12195W        W31049  10.130   3.592  12.224 -0.0013  0.3539 -0.2686
12196W        W31050  10.175   4.844   2.117 -0.0243 -0.0974  0.1377
12197W        W31051   8.742  13.703  14.093 -0.0492  0.2301  0.1581
12198W        W31052   6.602  16.689  12.517  0.0374 -0.0391  0.4235
12199W        W31053   8.960  12.994  11.090 -0.1035 -0.2728  0.2736
12200W        W31054   1.565   1.289  14.491 -0.1685 -0.0219 -0.1408
12201W        W31055   2.417  12.763  14.121  0.4960  0.0410  0.0188
12202W        W31056  10.499   0.888   3.259  0.3245 -0.2047 -0.0264
12203W        W31057   7.996   7.895   0.486  0.1970  0.0337 -0.1003
12204W        W31058  18.256   3.251   0.850  0.0133  0.2034  0.1031
12205W        W31059  16.666   8.466   3.605  0.0648 -0.0318 -0.1873
12206W        W31060  16.379   4.452  11.781  0.3205 -0.1750 -0.0474
12207W        W31061   1.369   7.387  14.370  0.1896 -0.1628 -0.1655
12208W        W31062  15.373  10.035  14.335  0.1953 -0.1329 -0.2479
12209W        W31063   5.043   9.381   5.127 -0.0126  0.2135 -0.0113
12210W        W31064  10.447  12.834  12.849 -0.0864 -0.3129 -0.0319
12211W        W31065   4.359  14.800  13.990  0.0021  0.1419  0.0681
12212W        W31066   5.144  16.139  12.806  0.2780 -0.0028  0.0466
12213W        W31067  15.742   1.131   1.650 -0.2425  0.0482  0.2137
12214W        W31068  18.229  10.527   2.213 -0.2337 -0.3234 -0.0190
12215W        W31069  18.623  18.739  13.550  0.2089 -0.0861 -0.1335
12216W        W31070   7.989  17.977   5.018  0.4508  0.2733  0.0820
12217W        W31071  14.223  15.183   1.249  0.0952 -0.0321  0.0941
12218W        W31072   4.767   9.406   0.920  0.2807  0.3529 -0.2636
12219W        W31073   8.793  14.887   4.873  0.1085 -0.1172  0.0771
12220W        W31074   4.251   3.706   2.489 -0.0981 -0.2691 -0.0237
12221W        W31075  11.771   4.415   0.122 -0.4273 -0.3635 -0.2130
12222W        W31076   0.388   9.378  13.632 -0.2655 -0.1513 -0.1178
12223W        W31077   8.892   1.219   2.759 -0.2290  0.3351  0.1189
12224W        W31078  14.525  17.596  11.867  0.0989  0.1433 -0.0992
12225W        W31079  13.263   8.198   1.872 -0.0475  0.1609 -0.1568
12226W        W31080   0.634   8.319  11.175  0.0925 -0.0633 -0.0591
12227W        W31081  16.706  10.842  14.818  0.2400  0.0612  0.0823
12228W        W31082   3.179   2.171  12.316 -0.0233 -0.0164  0.2875
12229W        W31083  14.105  13.968   2.250 -0.3447 -0.0683 -0.1958
12230W        W31084   3.512   2.141  11.068  0.2691  0.0680  0.0377
12231W        W31085  14.698   1.369  14.997  0.0704 -0.1081 -0.0636
12232W        W31086  17.106   4.655   2.793 -0.0055 -0.0702 -0.0076
12233W        W31087  16.051   2.604  11.564  0.0309  0.1347 -0.1309
12234W        W31088   9.092   4.422  10.956 -0.1870 -0.0106  0.3597
12235W        W31089  14.652   1.919   4.617  0.1486  0.2837  0.2259
12236W        W31090   9.950  17.159  11.482 -0.1700 -0.1444  0.0531
12237W        W31091  16.283  10.072  14.531  0.0853  0.0502  0.0998
12238W        W31092  11.026   2.596  11.544 -0.1531 -0.1597 -0.3023
12239W        W31093  15.559   3.507  14.369 -0.0571 -0.3639 -0.0517
12240W        W31094  13.513  12.344  13.880  0.2693  0.1654  0.1978
12241W        W31095  15.157  12.235   0.645 -0.1846 -0.2913  0.1717
12242W        W31096   1.194   6.286   2.027 -0.1289 -0.2093  0.0481
12243W        W31097   8.062   0.923  12.910  0.3863 -0.0460 -0.0394
12244W        W31098  14.501  11.021  12.775  0.1095 -0.1318 -0.1334
12245W        W31099  12.363   7.602  12.346 -0.0326  0.1904 -0.2314
12246W        W31100  10.538  12.944  11.760  0.0343 -0.1673 -0.1640
12247W        W31101   4.424  11.606   0.515  0.0234  0.0320 -0.1788
12248W        W31102   8.016   4.098  13.640  0.1009  0.2692 -0.3205
12249W        W31103   1.783  16.982  12.242  0.2484  0.0672  0.0875
12250W        W31104   9.184   6.177   3.976 -0.1160 -0.2486  0.2284
12251W        W31105   7.592  15.513   2.652 -0.0267  0.0485 -0.1224
12252W        W31106  17.606   9.222  11.503  0.3599  0.2083  0.0033
12253W        W31107  16.315   5.099   1.680  0.1830 -0.2393 -0.1152
12254W        W31108  12.415   8.873   1.883  0.4797 -0.2658  0.1175
12255W        W31109  10.451   2.469   5.008  0.3917  0.0750  0.0553
12256W        W31110   6.270   8.021   1.147 -0.0247 -0.0318  0.1420
12257W        W31111  12.016  13.785  12.561  0.1228  0.5269  0.0334
12258W        W31112   4.302  14.204   9.948  0.3563 -0.0605 -0.0006
12259W        W31113   0.633  17.085  11.858 -0.0348 -0.1438 -0.1673
12260W        W31114   2.005   0.832  12.558  0.1657 -0.2346  0.3061
12261W        W31115  13.607  16.477   4.698  0.2929  0.0635 -0.0832
12262W        W31116   8.184  10.119   3.167 -0.0029 -0.0268  0.1898
12263W        W31117   4.283   4.973   3.742  0.2701  0.0135 -0.2168
12264W        W31118  15.527   4.465  12.329  0.1369 -0.2136  0.0237
12265W        W31119  15.701  16.616  13.671  0.2677 -0.0863  0.1203
12266W        W31120  13.886   4.551  11.879  0.1461  0.1208 -0.2494
12267W        W31121  11.751   5.550  13.018 -0.1939 -0.2673  0.0572
12268W        W31122  11.146  12.855  14.626  0.1848 -0.1846  0.2890
12269W        W31123   2.804  13.942   1.747  0.0791  0.2026  0.0391
12270W        W31124  13.770   8.102  13.943 -0.0384  0.1198  0.2041
12271W        W31125   5.971   5.651   0.947 -0.1359 -0.2766  0.0605
12272W        W31126  18.255  13.538   2.110  0.0039 -0.0628 -0.0042
12273W        W31127  18.003  14.060  14.578 -0.1938  0.0314 -0.0772
12274W        W31128   8.874  15.952   2.271 -0.2018  0.1444  0.1724
12275W        W31129  11.897  18.309   2.809  0.5121 -0.1413  0.1136
12276W        W31130  13.948   7.915  11.303  0.1134  0.2136 -0.0225
12277W        W31131   5.991   2.255   2.115  0.0653 -0.2593 -0.2014
12278W        W31132   6.745   6.823  12.378  0.1940  0.3377 -0.1685
12279W        W31133   5.735   8.054   1.059 -0.0186 -0.0195 -0.3610
12280W        W31134  18.472   9.353   4.001  0.1871 -0.1055  0.0673
12281W        W31135   8.544  17.325  12.069 -0.1639 -0.2368  0.1901
12282W        W31136  13.873   5.701  11.932 -0.1834  0.0387 -0.0730
12283W        W31137   2.570  13.731  12.162 -0.2058 -0.0720  0.0414
12284W        W31138  11.075  18.574   3.253 -0.3182 -0.0813 -0.1862
12285W        W31139   1.916  10.183   1.566  0.1091 -0.1819 -0.1936
12286W        W31140  10.907   1.065   0.381  0.0541  0.1444  0.3216
12287W        W31141   8.279   9.703   1.453  0.1973  0.2177 -0.2465
12288W        W31142   0.166  11.240  13.278 -0.1062  0.0197 -0.2118
12289W        W31143   8.819   6.904   1.833 -0.1539  0.0093 -0.1573
12290W        W31144  16.382  18.703   2.895 -0.0012 -0.0817 -0.1058
12291W        W31145   2.479  17.380   3.824  0.1062  0.4395 -0.0239
12292W        W31146  10.270  14.480  14.630  0.0619  0.2409  0.0432
12293W        W31147   8.335   4.241  14.437 -0.4733 -0.3600 -0.0293
12294W        W31148  16.272   9.334  12.277  0.3169 -0.1381 -0.2164
12295W        W31149   6.357   5.762  11.337  0.1077 -0.0676  0.0170
12296W        W31150  10.304   3.189   3.951 -0.3414  0.1087  0.0179
12297W        W31151   4.921  12.856  14.517 -0.1885  0.1213  0.0831
12298W        W31152   4.216  11.580  12.782 -0.0400 -0.5003  0.1107
12299W        W31153   0.611   0.787   3.134  0.0464  0.0380 -0.2697
12300W        W31154  16.482   2.561  13.491 -0.0095  0.1348  0.2810
12301W        W31155   3.372   7.599  14.723  0.1366 -0.0385 -0.0683
12302W        W31156  15.323   2.689  14.836  0.2083  0.0282 -0.1324
12303W        W31157  15.323   4.725  12.798 -0.2496  0.1113  0.0287
12304W        W31158   5.368   7.788  12.570  0.1723  0.1019  0.0270
12305W        W31159   7.149   6.473   1.163  0.0401 -0.0633  0.0944
12306W        W31160   2.487   0.460   2.216 -0.1499  0.0883  0.3487
12307W        W31161   0.675   8.599   2.760 -0.0030  0.4057  0.0119
12308W        W31162  13.977  10.210  13.787  0.1038  0.0546  0.2223
12309W        W31163  15.618  16.109  13.952  0.0582  0.2480 -0.1490
12310W        W31164   6.942   4.387   0.000  0.0417  0.0300  0.0243
12311W        W31165   2.665  11.357  14.676  0.0383 -0.0984  0.0677
12312W        W31166   0.866  12.528   0.970  0.0290  0.0855  0.0909
12313W        W31167   7.641   7.288   5.316  0.0803  0.1427 -0.1281
12314W        W31168   9.235   7.073  12.306  0.1745 -0.0034 -0.3620
12315W        W31169   0.670  10.904  11.677  0.3129  0.0735  0.0699
12316W        W31170   7.435   2.993   2.610  0.1840 -0.4097 -0.0050
12317W        W31171  17.596   2.269   2.942 -0.4799  0.2566  0.0550
12318W        W31172  12.089   1.801   3.762  0.3034  0.1705 -0.5518
12319W        W31173   6.762  12.742   0.928 -0.0559 -0.0884 -0.2585
12320W        W31174   8.038   6.291   5.464  0.1832 -0.2489 -0.1746
12321W        W31175  15.682  16.458   2.641 -0.2053 -0.0190 -0.1356
12322W        W31176  16.436   8.007   2.726  0.1169  0.1704  0.0483
12323W        W31177   0.730  17.321  14.674  0.1694 -0.1059  0.1370
12324W        W31178  12.244   5.133  10.960 -0.1521  0.2678  0.0097
12325W        W31179  13.050   8.154   1.104  0.0120  0.1606 -0.1256
12326W        W31180  14.791  14.117   1.379  0.0605  0.0372  0.2228
12327W        W31181   5.216  14.444  14.308 -0.0238  0.5396 -0.0175
12328W        W31182  15.366   3.811  13.426  0.2162  0.0621  0.0843
12329W        W31183  14.353   0.687   3.359 -0.0066  0.1037 -0.2600
12330W        W31184   9.251   7.956  12.171 -0.0972 -0.0359 -0.1994
12331W        W31185   0.996   9.648   3.235  0.2303  0.4666 -0.0708
12332W        W31186   2.968  16.880   0.987 -0.0594  0.2737 -0.2120
12333W        W31187   4.790  14.688  10.896 -0.2578  0.0788  0.0271
12334W        W31188  15.769  14.812  14.995  0.0666  0.1941 -0.1244
12335W        W31189   3.008   6.492   1.957  0.0992 -0.1409  0.1929
12336W        W31190  18.377   2.325  12.517  0.1914  0.0519 -0.1448
12337W        W31191   5.451   4.923   4.616 -0.2975 -0.1007  0.0275
12338W        W31192  14.692  13.175   3.083  0.2179 -0.0657  0.0837
12339W        W31193  14.240  15.072  10.938  0.1163  0.0142  0.2489
12340W        W31194   2.948   3.926  13.179 -0.3915  0.0056  0.1806
12341W        W31195  18.019  14.786   3.086  0.0844  0.0160 -0.3024
12342W        W31196   3.832   0.867   4.403 -0.2942 -0.1086 -0.0218
12343W        W31197   7.016   7.882  10.773  0.2760  0.0990 -0.1261
12344W        W31198  16.723  15.312   3.548  0.0211 -0.1684 -0.2740
12345W        W31199  13.492   9.224  11.485  0.0947 -0.0568  0.1864
12346W        W31200  11.971   3.385  11.375 -0.1852  0.0823 -0.0701
12347W        W31201  16.399  12.517  12.357  0.0818  0.2624 -0.0559
12348W        W31202   2.499  13.286  14.005  0.2495 -0.0110 -0.0381
12349W        W31203  12.229  17.555  13.310  0.1421 -0.0965 -0.1717
12350W        W31204  13.926  10.689  13.613  0.0240  0.1400 -0.1702
12351W        W31205  18.148   8.900   2.641  0.1999 -0.3012  0.1560
12352W        W31206  12.080  13.405  13.584  0.0919 -0.0520  0.1376
12353W        W31207   2.915  12.473   2.637  0.1584 -0.0715 -0.1465
12354W        W31208   8.752   6.325   2.413 -0.1113 -0.2141  0.1356
12355W        W31209  12.679  11.258  10.649  0.2529  0.0277 -0.0993
12356W        W31210  13.975  11.011   1.756  0.0104 -0.0604 -0.0960
12357W        W31211  10.937   9.774  11.543  0.2823 -0.0786 -0.2628
12358W        W31212   8.232   1.664  13.039 -0.0295 -0.2159  0.0836
12359W        W31213  10.850   6.275  11.039 -0.1053  0.0535 -0.2013
12360W        W31214   3.844  13.067   3.124  0.1642 -0.1230  0.0842
12361W        W31215   8.913  15.429  13.173 -0.1407 -0.1182 -0.2214
12362W        W31216  18.739  16.388  13.324 -0.1250 -0.3521  0.1306
12363W        W31217  11.348  18.083   0.161  0.0536  0.1212  0.0314
12364W        W31218  14.159  16.339   0.933  0.1045  0.2982 -0.0532
12365W        W31219   8.254   8.059   4.263  0.1871  0.1318  0.1740
12366W        W31220  18.525   3.817   2.106 -0.1162  0.2764  0.0620
12367W        W31221  18.274   8.137  11.755 -0.1441 -0.2233  0.2412
12368W        W31222   9.145   7.554   4.559 -0.2697 -0.1415  0.1490
12369W        W31223   1.782   2.622  13.946  0.1994  0.0203  0.2461
12370W        W31224   4.679  10.232  13.161  0.4631 -0.1977  0.1810
12371W        W31225  16.589  18.461  11.988 -0.0660 -0.0544  0.0776
12372W        W31226   4.102  18.398   0.146 -0.0036 -0.2561  0.3295
12373W        W31227   5.699   4.875   1.490 -0.3392  0.1025 -0.1388
12374W        W31228  12.876   7.034   1.039 -0.1578 -0.1479  0.2628
12375W        W31229  16.513   2.866  12.536  0.5127  0.3607  0.5300
12376W        W31230   4.991   3.789   5.436  0.0384  0.0972  0.1673
12377W        W31231  16.743  11.626  11.472  0.2729  0.1213  0.0366
12378W        W31232   8.321   7.039   3.895 -0.0049  0.0263  0.2249
12379W        W31233   2.034   9.576  11.154  0.1133  0.2114  0.0798
12380W        W31234   7.095  18.714  12.772 -0.0011  0.2553 -0.1639
12381W        W31235  16.792   6.000  11.053 -0.1655  0.0101 -0.0545
12382W        W31236  14.301   7.671  12.809  0.2030  0.2203 -0.0356
12383W        W31237  13.764  15.617  15.056 -0.2262 -0.0487  0.1131
12384W        W31238   3.187   0.621   0.459  0.0588 -0.0374  0.0477
12385W        W31239  15.861   9.194  13.267  0.1146  0.3034 -0.0506
12386W        W31240   9.418  11.812   3.391 -0.0814  0.1179  0.0505
12387W        W31241  10.021  12.040   1.767 -0.0601 -0.0586 -0.2328
12388W        W31242  10.580  12.930   0.027  0.2779 -0.0265 -0.0426
12389W        W31243  17.191   0.613  11.862 -0.3354 -0.3119 -0.0599
12390W        W31244  15.267  10.517  13.105 -0.2053  0.0406 -0.1295
12391W        W31245   1.384  16.795  12.602 -0.0456 -0.0576  0.0841
12392W        W31246   3.670   9.647   1.517  0.3282  0.1308 -0.0842
12393W        W31247   7.278  18.574  12.331  0.1074 -0.1918 -0.0563
12394W        W31248  11.149  15.518   3.418  0.0127 -0.0686  0.0029
12395W        W31249  13.554  10.544   2.477  0.0146 -0.1211  0.1022
12396W        W31250   6.248   0.491  13.625  0.5329 -0.1246 -0.2832
12397W        W31251  17.158  10.510  13.198 -0.3398  0.2996 -0.0342
12398W        W31252   5.454   1.231   2.003  0.1291 -0.1182 -0.0986
12399W        W31253  13.100   7.292  14.102 -0.0466  0.0881 -0.0963
12400W        W31254   3.647  17.763   2.760 -0.0452 -0.0856 -0.1163
12401W        W31255  18.375   8.599   4.307 -0.1590  0.4865 -0.0212
12402W        W31256  17.176   7.380   0.865  0.0481  0.0400  0.1009
12403W        W31257   4.588   1.883  11.608  0.1407  0.0294 -0.0047
12404W        W31258   9.909   2.829  13.130  0.0349  0.0120 -0.0688
12405W        W31259  17.532   5.191  14.344 -0.0758  0.1528 -0.0677
12406W        W31260  12.781   9.333   3.197 -0.2965  0.0447  0.2558
12407W        W31261   3.343  11.096   2.259  0.1301 -0.1108 -0.2989
12408W        W31262   8.334  15.364  14.924  0.0242  0.0578  0.1893
12409W        W31263  18.267   8.384  12.772 -0.0456  0.1046  0.2465
12410W        W31264  12.385  11.875  11.604 -0.2661  0.1067 -0.0901
12411W        W31265  13.271  12.633  14.248  0.1333 -0.1223  0.0077
12412W        W31266   2.741   5.473  12.929  0.0974  0.0331 -0.1010
12413W        W31267   4.503  11.248   3.425 -0.4621  0.3620  0.6452
12414W        W31268  12.227  10.676   3.846 -0.0098  0.1037 -0.1958
12415W        W31269   7.261   3.747  10.279  0.0038  0.0730  0.1432
12416W        W31270   6.506  18.499   2.498 -0.1278  0.0065  0.1383
12417W        W31271   4.440   0.415   1.520 -0.2664  0.1483 -0.2376
12418W        W31272  13.350  17.665  14.042  0.5356  0.2648  0.1172
12419W        W31273   5.210  11.707  12.993  0.0988  0.0255 -0.1285
12420W        W31274  12.153   9.025   1.435  0.0327 -0.0137 -0.0753
12421W        W31275  11.464   9.241   0.797 -0.2165 -0.2500 -0.1884
12422W        W31276  16.182   0.941   0.299 -0.0579 -0.1220 -0.1763
12423W        W31277   2.285  18.569   1.110 -0.1505  0.2083 -0.1172
12424W        W31278  11.071  15.019  13.331 -0.1224  0.2212 -0.2774
12425W        W31279   2.589  14.857   3.446 -0.0608 -0.2611  0.0871
12426W        W31280   7.227   9.620   2.068 -0.0394 -0.0093  0.0860
12427W        W31281  16.849  16.517  11.997 -0.0191  0.2340 -0.1807
12428W        W31282   6.895  15.691   3.073 -0.0465  0.2195 -0.2533
12429W        W31283  10.476  15.303  11.536 -0.0202  0.0817  0.0924
12430W        W31284   2.078  18.322   2.032 -0.3193  0.1065  0.0785
12431W        W31285   1.208  18.813  13.624 -0.1221  0.1863  0.1455
12432W        W31286  14.918  14.158  14.655 -0.0433  0.0071  0.2271
12433W        W31287  12.312   5.397  13.632  0.1750  0.1025  0.0747
12434W        W31288  17.284   9.438  12.930  0.0278  0.1079  0.4469
12435W        W31289   9.510  14.965   0.746 -0.1207 -0.1294  0.1512
12436W        W31290  13.845   9.601  11.906 -0.0243 -0.0179  0.0223
12437W        W31291   9.414   6.626  10.665 -0.0543  0.2473 -0.2252
12438W        W31292  11.959  11.965  12.903 -0.0470 -0.1653 -0.1432
12439W        W31293   5.761  11.900  11.973  0.1081 -0.1478  0.5451
12440W        W31294   9.776   5.486   2.213  0.0148  0.0274  0.0311
12441W        W31295   7.106   7.780  15.078  0.2715  0.1691 -0.3188
12442W        W31296  17.758   1.645   2.226 -0.0746  0.1951  0.1567
12443W        W31297   3.124   0.089   1.751 -0.0441  0.1540 -0.4040
12444W        W31298   9.637  15.450   3.200  0.1464  0.2586 -0.0648
12445W        W31299  18.271  17.046  14.107  0.0682  0.1595 -0.0953
12446W        W31300   7.585   2.692   3.013 -0.2067 -0.2346 -0.2607
12447W        W31301   1.221   2.040  14.183  0.2101 -0.1733 -0.0397
12448W        W31302   6.691  17.971  14.690  0.0075  0.0641 -0.0606
12449W        W31303  16.506  17.537  11.655 -0.2216 -0.2277  0.0275
12450W        W31304  12.053   1.061   4.170 -0.0146 -0.2437 -0.0442
12451W        W31305   9.227   8.354  11.257  0.0057 -0.0358 -0.1292
12452W        W31306   1.837  18.733   2.577 -0.2401 -0.1409  0.3232
12453W        W31307  15.940   9.984   0.883  0.0299  0.0139 -0.0261
12454W        W31308   1.362   5.498  11.580  0.1316 -0.2038  0.1089
12455W        W31309  11.317   6.902  11.213 -0.1916 -0.0652 -0.2328
12456W        W31310   2.443  18.102  10.225  0.0368  0.4162  0.1516
12457W        W31311  10.010  13.921  14.744 -0.1802  0.0095  0.1059
12458W        W31312  14.265   6.737  10.823 -0.0124 -0.1989  0.1436
12459W        W31313  13.821   6.576   2.400 -0.2249  0.3896 -0.1540
12460W        W31314  12.268   4.038   1.996 -0.1037  0.0408  0.0736
12461W        W31315   9.164   4.660   1.248  0.2958 -0.2042 -0.0087
12462W        W31316   5.455  11.225  11.214  0.3164  0.0252 -0.0091
12463W        W31317   5.749   5.150  13.225  0.0789 -0.0621 -0.0245
12464W        W31318   0.597   0.835  11.074 -0.3197 -0.0993 -0.0035
12465W        W31319   3.996  15.881  14.182  0.0548  0.0288 -0.1416
12466W        W31320  18.550  11.485  14.615 -0.0884 -0.0787  0.2356
12467W        W31321  13.977   2.688   2.956  0.0437 -0.0517 -0.1063
12468W        W31322  10.618   8.997   4.141  0.1163 -0.1508  0.0523
12469W        W31323   2.270  13.348  11.967 -0.3524 -0.0495 -0.0297
12470W        W31324   6.989  10.177  12.729 -0.0991 -0.0200  0.0802
12471W        W31325   1.208  17.659  12.535 -0.0591  0.2215 -0.2665
12472W        W31326  15.105  17.021   3.087  0.3290  0.0296 -0.2892
12473W        W31327   1.595   3.979  11.449  0.2397  0.1606  0.2779
12474W        W31328   6.203  13.100   3.355 -0.0520 -0.4002  0.1305
12475W        W31329   8.366  16.563  14.403  0.1311  0.0021 -0.0643
12476W        W31330   2.212  15.720  11.799  0.0772 -0.1678 -0.2572
12477W        W31331  11.022  13.773  14.807 -0.1476  0.1788 -0.3865
12478W        W31332  15.291  13.015   1.591  0.3234  0.0489 -0.1484
12479W        W31333   6.061  16.261  10.043 -0.0929  0.1982 -0.2832
12480W        W31334   4.320  11.246  13.291  0.1361  0.0261 -0.2663
12481W        W31335  17.554   6.631   2.984  0.0693  0.3062  0.2064
12482W        W31336   0.165   0.747  13.050  0.0795 -0.4260 -0.0525
12483W        W31337   0.493  12.225  14.503 -0.0441 -0.3390 -0.0070
12484W        W31338   8.325   5.424  14.185 -0.0596 -0.1820 -0.3706
12485W        W31339   9.003   2.110  14.830 -0.0129 -0.1106  0.1521
12486W        W31340   8.503  13.222  12.283  0.2668  0.1291 -0.1411
12487W        W31341   3.199  14.066   2.347  0.0689  0.0301  0.0534
12488W        W31342   5.533   3.211   5.017 -0.2135 -0.0643  0.1556
12489W        W31343   0.374  13.354  10.832  0.3992  0.1347  0.0986
12490W        W31344  11.561   9.764   2.078 -0.0654  0.1292 -0.2021
12491W        W31345  10.605  15.653   3.737 -0.2308  0.0039  0.2298
12492W        W31346  17.876   1.282  15.119  0.0097  0.1234  0.2689
12493W        W31347  14.588   3.808   2.730  0.1725 -0.3348 -0.0352
12494W        W31348   9.844   5.025   2.522 -0.3657  0.1725  0.2856
12495W        W31349   5.743   7.220  14.105 -0.2434 -0.1421 -0.1925
12496W        W31350   6.691   6.278  12.144  0.0739 -0.0179  0.1046
12497W        W31351  18.046  13.005  11.527 -0.0378 -0.1796 -0.5415
12498W        W31352   3.105   1.944  11.247  0.0339 -0.1080 -0.1026
12499W        W31353   0.493  14.288  13.595 -0.1348 -0.2091  0.0752
12500W        W31354   6.943   1.722  13.856 -0.3761 -0.0469 -0.0031
12501W        W31355  11.270   5.861   3.692 -0.1972  0.0485  0.0168
12502W        W31356   0.932   6.986   2.760  0.3957  0.1060  0.0658
12503W        W31357  15.021  11.134  13.938  0.0209  0.1483 -0.1790
12504W        W31358   6.051   4.975   3.193 -0.0928 -0.0729  0.0225
12505W        W31359  18.666  18.716   1.904 -0.1537 -0.4726  0.0359
12506W        W31360   7.691   4.847   2.840  0.1228 -0.0526  0.1876
12507W        W31361   2.098  15.721  14.200 -0.1178  0.4020 -0.0571
12508W        W31362   4.542  13.952  12.688 -0.1663 -0.0414 -0.3077
12509W        W31363  14.395  12.534  11.202  0.0259  0.0711 -0.0891
12510W        W31364   9.467   0.519   3.742 -0.1136  0.2469  0.0601
12511W        W31365  14.815  10.763   0.564 -0.1850 -0.2531  0.0969
12512W        W31366   6.569   6.886  14.189 -0.1487 -0.2911  0.0554
12513W        W31367  14.286  12.012   0.163 -0.3600  0.3092 -0.0285
12514W        W31368   8.282  12.512   2.013  0.0700 -0.0968 -0.1075
12515W        W31369  15.888   7.809   3.965 -0.1099 -0.0798  0.0451
12516W        W31370   3.936   4.041  14.158 -0.1430  0.1234 -0.1724
12517W        W31371   8.992   5.627   4.129  0.2263  0.5010 -0.1539
12518W        W31372  11.555   7.953   1.608 -0.2298  0.3805 -0.1731
12519W        W31373   7.970  16.005  11.637 -0.2010 -0.1508 -0.0127
12520W        W31374   3.465  14.380   3.370 -0.1512  0.1051 -0.0224
12521W        W31375  13.943  13.753   3.584 -0.3731 -0.1073 -0.2131
12522W        W31376   1.202   4.172   0.283  0.0375 -0.1664  0.0951
12523W        W31377  14.418  16.670   4.128  0.2313 -0.2185 -0.1931
12524W        W31378   8.849  18.236  13.719 -0.3029 -0.3547  0.0838
12525W        W31379   1.674   7.076  13.330  0.1016 -0.1492 -0.0169
12526W        W31380   2.432  18.435   1.614 -0.0944 -0.0803 -0.2072
12527W        W31381   0.398   1.319  11.949  0.0612 -0.2626  0.1091
12528W        W31382   2.768  10.139   3.318  0.0695 -0.1623 -0.2386
12529W        W31383  12.950   9.017  13.846 -0.0145 -0.0332 -0.4206
12530W        W31384   8.631  16.241  13.279 -0.1454  0.0356 -0.1198
12531W        W31385  10.394  17.397  14.286  0.0284 -0.1235 -0.3276
12532W        W31386   2.077   0.891  11.401  0.1796  0.1110  0.1203
12533W        W31387   5.340  16.657  13.787 -0.0267  0.3003  0.1867
12534W        W31388  13.339  16.731   2.773  0.0907  0.0250  0.0798
12535W        W31389   8.356   6.164  13.692  0.1788  0.0112 -0.3327
12536W        W31390   4.427   6.279   3.440 -0.2372  0.0209 -0.0827
12537W        W31391   1.876   0.696   4.146 -0.1460 -0.1960  0.1321
12538W        W31392   7.472  15.466   3.717  0.1166 -0.2689  0.0554
12539W        W31393  12.258   0.274   4.229 -0.3209  0.0191  0.1594
12540W        W31394  13.851   8.065  14.396 -0.3580  0.0958  0.0515
12541W        W31395   6.844   0.990   3.781 -0.0008 -0.4426  0.0130
12542W        W31396   1.070   8.341  14.110  0.1697  0.1163  0.1681
12543W        W31397  11.078   4.555   0.457 -0.1726  0.0681 -0.3507
12544W        W31398  12.406  11.163   4.023  0.3515 -0.3342 -0.1863
12545W        W31399   5.184   4.264  13.623 -0.2167 -0.5173  0.3242
12546W        W31400  12.023   4.282   0.529  0.0299 -0.1766 -0.0749
12547W        W31401   7.656  11.995  13.190  0.1868 -0.0618  0.0485
12548W        W31402   5.016   6.307   2.202 -0.1875  0.0017 -0.2285
12549W        W31403   7.165  11.801  13.302  0.2191  0.1414  0.1590
12550W        W31404  12.355  16.954   1.634 -0.2869  0.1201  0.0602
12551W        W31405  16.792  17.495   4.014 -0.0211 -0.2386 -0.0685
12552W        W31406   2.769   5.600  13.742 -0.0486 -0.2878 -0.1310
12553W        W31407  17.026  16.857  13.835  0.1823 -0.1279 -0.2581
12554W        W31408   5.347   7.958  11.565  0.1774  0.0248 -0.0714
12555W        W31409  11.595   6.955   2.124 -0.0675 -0.2130 -0.2991
12556W        W31410   5.154  17.893  11.058 -0.1334  0.2390 -0.2122
12557W        W31411   3.579   2.143  11.541  0.0361  0.0538  0.2943
12558W        W31412  16.983  11.335  13.596  0.4097  0.2362 -0.1200
12559W        W31413   5.414   8.467   4.056 -0.1366 -0.1580  0.1638
12560W        W31414  16.881  17.785   0.413  0.2714  0.0830 -0.1181
12561W        W31415  18.225  18.077  11.593  0.0028 -0.2564  0.1696
12562W        W31416   0.318   1.342   1.041  0.0287  0.0862  0.0130
12563W        W31417   4.251   7.869  15.080 -0.1069 -0.0530  0.0047
12564W        W31418   2.112   0.369   2.524  0.1533 -0.0453  0.1120
12565W        W31419   0.814  14.109   3.063 -0.0381  0.1288 -0.0487
12566W        W31420  10.393  18.739   4.187 -0.2276 -0.2272  0.2085
12567W        W31421  18.236  10.360   1.698 -0.1917 -0.0079  0.2758
12568W        W31422  15.386  17.451   2.273  0.0277  0.5169 -0.1028
12569W        W31423  18.795  12.872  15.018 -0.0968 -0.0685 -0.4764
12570W        W31424  16.165   7.570   2.626  0.0229 -0.1828  0.1506
12571W        W31425   0.846   6.419   0.111  0.0554  0.1410 -0.3081
12572W        W31426  15.825  10.034   4.474 -0.1049 -0.3457  0.0141
12573W        W31427   1.301  18.157  13.921 -0.0490  0.1362 -0.5411
12574W        W31428   7.367  10.069  14.279  0.0865  0.2465  0.0677
12575W        W31429  15.282   5.669  14.875 -0.2703 -0.0790  0.2522
12576W        W31430   4.189   8.384  12.174 -0.0156 -0.0329  0.0322
12577W        W31431   5.738  12.628   3.991 -0.0080 -0.0400 -0.2457
12578W        W31432   7.313   0.790  11.778 -0.0936  0.0400  0.2165
12579W        W31433   0.337  12.060  13.954 -0.0091  0.0213 -0.0420
12580W        W31434  14.396   7.396   3.402  0.2564 -0.1429  0.0669
12581W        W31435   4.355   0.034  12.926 -0.1061 -0.1525 -0.2530
12582W        W31436  12.356  12.366   4.017  0.0484 -0.3244  0.0910
12583W        W31437   5.190  18.055  11.819  0.1522  0.1890  0.1888
12584W        W31438  17.896   7.399   4.813 -0.1923 -0.0431  0.0317
12585W        W31439  13.157  12.891   2.536  0.0847  0.0438 -0.1278
12586W        W31440  16.406  12.178  11.059  0.0057 -0.0273  0.0603
12587W        W31441   4.237   3.310   0.234 -0.1832  0.1403 -0.0755
12588W        W31442  16.084   6.622  10.275  0.2964 -0.1251  0.0478
12589W        W31443  17.977  15.104   2.093  0.1346 -0.1798 -0.0151
12590W        W31444  13.081  12.396   2.931 -0.2897 -0.0733  0.4064
12591W        W31445  15.296   8.491  10.591  0.3072  0.1455  0.0491
12592W        W31446   6.379  15.947  14.730  0.1130 -0.0754 -0.0461
12593W        W31447   6.298   5.536  11.901 -0.0491 -0.0521  0.0418
12594W        W31448   2.682   5.352  14.288  0.3296  0.0665  0.1525
12595W        W31449   8.560  11.296   1.838 -0.0165  0.1448 -0.1184
12596W        W31450  14.465   5.171   0.113 -0.0669 -0.0726  0.0705
12597W        W31451  13.185  11.842  11.186 -0.2442  0.0529 -0.0026
12598W        W31452  18.379  11.003   2.416  0.2966  0.3031 -0.1138
12599W        W31453  17.852  11.245   4.028  0.0075 -0.0738  0.0878
12600W        W31454   0.687  11.639   2.475 -0.1053  0.2154 -0.0240
12601W        W31455   8.436   4.569   1.561 -0.1183 -0.4222 -0.0886
12602W        W31456  14.233  15.665  12.415 -0.2418 -0.2750 -0.1273
12603W        W31457   0.147   0.795  10.815 -0.0870 -0.1096  0.2687
12604W        W31458  13.082  14.806   4.246 -0.2383 -0.0440  0.0202
12605W        W31459   8.707  12.261   3.350 -0.3980  0.3535 -0.1957
12606W        W31460  10.895   7.097   2.240  0.0542 -0.2396  0.0797
12607W        W31461   6.111   5.753   2.986  0.2768  0.0477  0.0212
12608W        W31462  17.016  17.022   2.355  0.0332  0.1858 -0.2808
12609W        W31463   2.020   2.427   1.165  0.5112  0.3995  0.3344
12610W        W31464  16.555   3.256   0.067  0.2781 -0.1358 -0.0621
12611W        W31465   4.177  16.524  12.502 -0.1241  0.0085 -0.0781
12612W        W31466   0.029  18.211   0.034  0.0550 -0.0512 -0.0956
12613W        W31467   3.862   5.937  14.335 -0.1450 -0.2084 -0.0330
12614W        W31468  18.058   4.610   1.969  0.0680 -0.1637  0.1827
12615W        W31469   2.970   1.046  13.766  0.0692 -0.1835  0.3579
12616W        W31470  10.660   0.640  14.259 -0.1785  0.3909 -0.0742
12617W        W31471  13.698   5.598  11.047  0.1362 -0.1211  0.2534
12618W        W31472  18.540   3.105  13.348 -0.0799  0.1315  0.2221
12619W        W31473  13.989  12.215  10.969 -0.2780 -0.1400 -0.0457
12620W        W31474   4.301   8.640   1.201 -0.0035 -0.1627 -0.0614
12621W        W31475  15.243   0.946   1.162  0.0939  0.1318  0.1698
12622W        W31476   6.075   7.316  12.455 -0.0274  0.0948 -0.0654
12623W        W31477  13.301   3.309  13.907  0.0381 -0.2123  0.1638
12624W        W31478   0.444   5.330  14.541  0.0003  0.0145 -0.2084
12625W        W31479   3.962   5.569   2.151 -0.0273  0.0832 -0.2003
12626W        W31480   8.001  16.134  10.812 -0.3175  0.1057 -0.1525
12627W        W31481   3.710   2.521  10.909  0.0681  0.1474  0.1135
12628W        W31482  18.231   9.208   0.012  0.0780  0.2308 -0.0488
12629W        W31483  14.787   2.851   1.637  0.1431  0.0000  0.1177
12630W        W31484  10.165  18.588   2.002 -0.0532  0.0406  0.1697
12631W        W31485   0.611   7.546  15.011  0.3005  0.1402 -0.0685
12632W        W31486  10.154   0.461   3.194  0.2541  0.1216  0.1069
12633W        W31487  10.285   3.443  14.982  0.1658 -0.0483 -0.0295
12634W        W31488   4.794  10.054  13.724 -0.2045  0.4112  0.1020
12635W        W31489  16.077  15.171   0.220  0.0845 -0.0995 -0.3680
12636W        W31490   8.315  18.565  10.765 -0.2246  0.0994 -0.4035
12637W        W31491   5.442   6.408   1.181 -0.0364 -0.0136  0.1988
12638W        W31492   1.564   2.965   2.209  0.0141  0.0086  0.0689
12639W        W31493   8.540  11.394   3.231  0.0532  0.1975  0.1440
12640W        W31494   9.276  11.271  14.775 -0.0350  0.1424  0.3519
12641W        W31495  16.224  14.668   0.041  0.0379  0.1115  0.0203
12642W        W31496  15.222  11.544  12.589 -0.3544  0.1898  0.0221
12643W        W31497   5.564   8.824  11.265  0.1401 -0.1219  0.0483
12644W        W31498  14.484  16.212   4.351  0.1285  0.0075  0.2557
12645W        W31499   9.694   7.329   3.379  0.3062 -0.0348  0.3406
12646W        W31500   7.863   4.760  11.757  0.0442  0.1507 -0.3336
12647W        W31501  14.234   1.201  12.070  0.0408 -0.0228  0.1596
12648W        W31502   2.019  14.649  10.418  0.3094 -0.1866 -0.3281
12649W        W31503  12.455   4.972  14.971  0.2132 -0.1492  0.2074
12650W        W31504   3.804   8.113   0.152 -0.2792  0.2199  0.1958
12651W        W31505   5.563   6.608   2.575 -0.0899  0.0579  0.0391
12652W        W31506   3.636  12.750   3.931  0.0038  0.0654 -0.0769
12653W        W31507  14.184  13.404   0.947  0.0706 -0.0141 -0.1188
12654W        W31508  14.229  13.694  10.990 -0.0668  0.2030 -0.0663
12655W        W31509  12.313  17.536  12.760 -0.0960  0.2730  0.0809
12656W        W31510  12.952  16.642  11.567 -0.1319  0.0970 -0.1520
12657W        W31511   7.937  11.633   1.203 -0.1351  0.3407 -0.1281
12658W        W31512   1.547  15.507  15.092  0.2427  0.0741 -0.1490
12659W        W31513   8.181   5.370   1.900  0.0315 -0.1793 -0.0589
12660W        W31514   2.152  15.705   0.589 -0.3264 -0.0674  0.0423
12661W        W31515   0.626   1.511  14.294  0.0674  0.0943  0.1255
12662W        W31516  11.206  16.240  13.520  0.5219 -0.2156 -0.0526
12663W        W31517  14.177   4.200   1.455  0.1620 -0.0622 -0.0474
12664W        W31518   2.641   8.398  11.667 -0.1780  0.6415 -0.0321
12665W        W31519   5.698   7.417   0.376  0.2894 -0.1150 -0.0573
12666W        W31520  14.246   4.974   1.924 -0.1612 -0.1844  0.0732
12667W        W31521  11.175  14.834   0.685  0.0761  0.2977 -0.1728
12668W        W31522  11.878   1.340   0.322  0.1251 -0.0559 -0.1084
12669W        W31523   2.388   9.994  12.015  0.0832 -0.2048  0.6612
12670W        W31524  15.127   2.010   3.842  0.1676  0.0404 -0.0193
12671W        W31525  12.515   6.800   2.825 -0.0356  0.0977  0.3275
12672W        W31526   6.219   7.923   4.875 -0.0973 -0.3028 -0.1965
12673W        W31527   8.524   5.073  12.165  0.1205  0.0677  0.3130
12674W        W31528  11.985  10.355  13.141 -0.1957  0.1025 -0.2867
12675W        W31529   6.730   3.658   0.462  0.0029 -0.1674  0.0583
12676W        W31530  14.725   2.468  11.474  0.0141 -0.0462 -0.4044
12677W        W31531  16.062   5.935   1.823  0.1300  0.1023 -0.2888
12678W        W31532  10.686   1.911  14.880 -0.0187 -0.0221  0.0288
12679W        W31533   0.100   9.220   2.883  0.1390  0.0950  0.2509
12680W        W31534  17.468   0.705   4.268  0.0286 -0.0481 -0.4359
12681W        W31535   2.230   1.462   2.696  0.0835 -0.2449  0.0178
12682W        W31536   9.089  10.110   0.013 -0.1274 -0.0336 -0.1816
12683W        W31537  16.730   3.412  11.748 -0.1841 -0.1162  0.1561
12684W        W31538  18.822   0.383   1.099  0.2519 -0.1695  0.3185
12685W        W31539  11.043   1.944  11.270 -0.0269  0.0477 -0.0557
12686W        W31540   5.084  17.571   0.255  0.0739 -0.0194 -0.0112
12687W        W31541   2.932  18.657   1.372 -0.4801 -0.0053 -0.0523
12688W        W31542   0.756   2.862   0.762 -0.2188 -0.1772 -0.1311
12689W        W31543  12.216   6.625  13.212  0.2325 -0.0157 -0.0036
12690W        W31544  10.566  12.701   1.980  0.0115 -0.1412  0.0488
12691W        W31545   5.664   7.188  13.259 -0.0256  0.2313 -0.0251
12692W        W31546  18.135  13.377   0.450  0.0974 -0.0247  0.0113
12693W        W31547  14.738  10.211   0.468 -0.1258 -0.0651  0.0796
12694W        W31548   1.935   4.519   1.745 -0.1110 -0.1057  0.0385
12695W        W31549  15.372   0.502  11.734  0.1222 -0.2053 -0.1320
12696W        W31550   0.921  17.420   1.030 -0.1169 -0.0298 -0.0394
12697W        W31551  17.390  11.083   4.062 -0.0180 -0.1191 -0.2432
12698W        W31552  16.946  15.860  11.501  0.0654  0.1790  0.0892
12699W        W31553  10.731  17.401  10.587 -0.0148 -0.0371  0.3085
12700W        W31554   3.169   8.977   4.235  0.0666 -0.0979 -0.2233
12701W        W31555  10.942   3.539   4.432 -0.2632  0.0314 -0.0079
12702W        W31556   1.209  18.391   2.066 -0.2167  0.2554  0.0816
12703W        W31557  11.795  12.167  12.317 -0.0257 -0.0772  0.0788
12704W        W31558  16.069  15.349  13.713  0.3509  0.2789  0.0451
12705W        W31559   7.153   7.124   1.863  0.3173  0.3922 -0.1896
12706W        W31560  18.147  11.178   2.034 -0.1941 -0.1763  0.0842
12707W        W31561   8.970  14.123  11.863 -0.0671 -0.1807  0.0498
12708W        W31562   8.748  15.149   0.046  0.0824  0.1959 -0.0256
12709W        W31563  13.398   7.553   0.274 -0.1382  0.0189  0.1475
12710W        W31564  11.442   9.575  14.074 -0.0165 -0.1007  0.1522
12711W        W31565  12.829  10.074  11.607  0.0566 -0.0778  0.0259
12712W        W31566  13.051  10.335   3.840  0.1428 -0.2673  0.2566
12713W        W31567  18.442  16.671  11.055 -0.1522  0.3093  0.3257
12714W        W31568   0.902  16.494  11.801  0.0165 -0.0685 -0.2380
12715W        W31569  17.719  16.099   0.234 -0.0079  0.0378  0.1832
12716W        W31570   8.830   8.870   2.305  0.2111 -0.0976 -0.0365
12717W        W31571   4.282   4.373   1.549  0.2559  0.1378 -0.0008
12718W        W31572   3.319   8.507   2.194 -0.0143 -0.2524  0.0630
12719W        W31573  16.683   2.993   1.724 -0.2334  0.0546  0.0369
12720W        W31574  11.840   3.927   0.262 -0.0947 -0.3057 -0.2452
12721W        W31575  12.076   5.742   1.403 -0.1070  0.3264 -0.1325
12722W        W31576  14.868   5.605  14.582  0.0851 -0.2302  0.0198
12723W        W31577  16.813  12.122  13.590 -0.3244 -0.0796 -0.3956
12724W        W31578  15.033  10.041   2.900 -0.3027 -0.0347 -0.0012
12725W        W31579  11.391  18.682  10.562  0.0998 -0.0735  0.2035
12726W        W31580   4.426  14.470   4.053 -0.0982 -0.0016 -0.4361
12727W        W31581   1.571   7.775   0.145  0.2106  0.1461  0.0641
12728W        W31582  13.960  17.855  13.699 -0.0572  0.0015 -0.2226
12729W        W31583   4.030   3.541  13.889 -0.2440 -0.1376  0.2073
12730W        W31584  11.175  15.349   0.575  0.0722 -0.2903 -0.1424
12731W        W31585  16.732   1.119   0.172 -0.0357 -0.4260  0.0880
12732W        W31586   6.776   9.282  11.083  0.0548 -0.0868 -0.1643
12733W        W31587  16.516  11.290   3.378  0.1621  0.1162 -0.0803
12734W        W31588  13.938   4.592   3.900  0.3084 -0.0576 -0.1948
12735W        W31589   8.931   8.648  14.188 -0.0022 -0.1519 -0.0089
12736W        W31590   8.228   5.663  13.761  0.2148 -0.1027  0.2332
12737W        W31591  13.180  16.791   2.207  0.3068  0.1297  0.2810
12738W        W31592   8.840  13.782   1.447 -0.0734 -0.2784 -0.1275
12739W        W31593   0.652  13.997   1.528 -0.1134 -0.3603 -0.0086
12740W        W31594   0.689  15.554  13.488 -0.0991 -0.0443  0.0956
12741W        W31595  13.473   2.814   1.436 -0.0828  0.1618 -0.0774
12742W        W31596   1.094   6.116   5.294  0.1749 -0.2306 -0.0867
12743W        W31597   2.225   8.351   0.267  0.1825 -0.2784  0.3145
12744W        W31598  14.767  14.016   2.537  0.2447 -0.1623  0.2033
12745W        W31599  18.449   5.817   1.639  0.0572 -0.4429 -0.0921
12746W        W31600  16.033  11.709   0.563  0.2170 -0.0513 -0.1291
12747W        W31601  15.913   2.979   4.055 -0.0304 -0.1440 -0.0330
12748W        W31602   2.360  17.713  10.624  0.1071 -0.2568  0.0949
12749W        W31603   6.419   4.065   4.397  0.3459  0.2608  0.3059
12750W        W31604  16.081  10.066   0.319  0.1241  0.0395 -0.2603
12751W        W31605   8.662  16.753  11.858  0.1273  0.0656 -0.3201
12752W        W31606   1.987  18.063   3.342  0.0025 -0.2134 -0.1323
12753W        W31607   2.569   5.250   4.550 -0.2566  0.0151  0.0410
12754W        W31608   3.516   8.095   1.459 -0.1347  0.1785  0.0593
12755W        W31609  16.043  18.180   0.886 -0.0114  0.2626 -0.0148
12756W        W31610   9.428   6.126  12.666  0.2782 -0.1799  0.3670
12757W        W31611  11.961   6.103   1.055  0.0678  0.0166  0.1972
12758W        W31612   7.959  12.010  11.299 -0.0124 -0.0308 -0.1028
12759W        W31613   4.388   8.358  12.637  0.2449  0.1701 -0.0103
12760W        W31614  11.642   1.272  14.911 -0.2074  0.1499 -0.0806
12761W        W31615   5.654   8.351  13.413 -0.1912 -0.3532  0.0529
12762W        W31616   8.197  15.803   1.292 -0.2909  0.0763  0.1398
12763W        W31617  17.315   7.767  11.016  0.1588 -0.1543  0.2039
12764W        W31618  18.224  16.837   1.804  0.0471 -0.0332  0.1249
12765W        W31619   3.668   8.209  10.810  0.0341 -0.2648 -0.1111
12766W        W31620  17.403   2.242  13.793  0.1329  0.1293 -0.0081
12767W        W31621   2.445   1.629  14.078 -0.0400 -0.1245  0.0230
12768W        W31622  10.595   7.816   1.465  0.3299  0.0620  0.0423
12769W        W31623  13.282   7.172  12.271  0.0159  0.1560  0.1897
12770W        W31624   1.633   9.620   1.243 -0.1066  0.2236 -0.2836
12771W        W31625   5.023   1.070  11.438 -0.0873 -0.1812  0.0619
12772W        W31626   3.091   4.983  12.960  0.0480 -0.1313  0.3660
12773W        W31627   4.430   5.363   1.785  0.0867 -0.2068 -0.0331
12774W        W31628  18.483  13.365   3.022  0.2419  0.1094  0.1831
12775W        W31629   9.432   9.638   0.744 -0.0711  0.0376 -0.0401
12776W        W31630   9.401   3.270   0.309  0.2486  0.2354  0.2147
12777W        W31631  15.847   3.580   1.035 -0.0903  0.1611 -0.1272
12778W        W31632  10.860  12.455   0.272  0.0393  0.0396 -0.1759
12779W        W31633  18.017   7.126   0.071  0.2618  0.1507 -0.1901
12780W        W31634   2.115  18.857  14.084 -0.5932 -0.0895  0.1158
12781W        W31635   1.592  11.365   1.110 -0.1267 -0.0644  0.0614
12782W        W31636   3.403  12.744   4.364  0.1565 -0.0258 -0.0382
12783W        W31637   0.852  16.370   0.168 -0.2844 -0.4156  0.0729
12784W        W31638   5.317   5.376   2.114 -0.2069  0.1761  0.0151
12785W        W31639  12.930   4.583   4.093 -0.1905  0.1699 -0.0153
12786W        W31640  11.308   4.448   3.383 -0.1584 -0.0153 -0.0405
12787W        W31641   7.605  17.299  10.693  0.0054  0.1852  0.0507
12788W        W31642  18.252  16.740  11.996 -0.1839 -0.0581  0.1138
12789W        W31643  17.877   4.241  10.513  0.0308 -0.0004  0.0608
12790W        W31644  18.361  14.097   0.060 -0.0324  0.0581 -0.1431
12791W        W31645  17.060  17.986   1.716  0.0926 -0.1092 -0.4635
12792W        W31646   5.228   3.337  14.701 -0.0959  0.1656  0.0925
12793W        W31647  15.986   2.048  12.586  0.0505 -0.2636  0.0247
12794W        W31648  18.140   0.768   1.019 -0.1536 -0.0267  0.0590
12795W        W31649   5.284   6.541  15.061 -0.0450 -0.0320  0.0453
12796W        W31650   4.188  12.957   1.194  0.0103 -0.2824 -0.0954
12797W        W31651   4.527   4.059   3.781  0.3942  0.0942  0.1387
12798W        W31652  17.964   7.938   4.078 -0.1378  0.1700 -0.2076
12799W        W31653   9.346   1.030  14.059 -0.0097  0.0867 -0.0326
12800W        W31654   3.323  13.900  10.278 -0.0684  0.0752 -0.1167
12801W        W31655  10.530   1.102   2.079 -0.0914 -0.0045  0.1984
12802W        W31656   5.554   6.451  12.852 -0.2159  0.0089  0.2162
12803W        W31657  10.039  16.668  10.343  0.2798 -0.3823  0.0067
12804W        W31658  12.078  16.750  14.267 -0.2573 -0.0138  0.1265
12805W        W31659  12.784  12.136   4.305 -0.0378 -0.1152  0.2357
12806W        W31660  15.816  17.603  13.261 -0.1692  0.0893 -0.1435
12807W        W31661  15.920   1.025  14.034 -0.1020 -0.3549  0.1097
12808W        W31662   7.360   3.433   1.514 -0.2532  0.3040  0.1114
12809W        W31663   6.877  12.992  12.349 -0.0823  0.1520 -0.0009
12810W        W31664   3.511  12.215  13.523  0.0718 -0.2252 -0.0207
12811W        W31665   8.110   7.956   1.583 -0.0075 -0.0757  0.0239
12812W        W31666  11.159  13.307   4.908 -0.0300 -0.0082 -0.0469
12813W        W31667   7.123  10.274  13.185  0.4237  0.0961  0.1343
12814W        W31668  11.742  10.310   5.265 -0.0805 -0.1120  0.0479
12815W        W31669   7.599   5.061  12.549  0.2144 -0.1253 -0.0090
12816W        W31670  15.317   6.630  12.265  0.3366 -0.0078  0.1831
12817W        W31671  14.608   0.623  10.909  0.0961  0.0487 -0.2506
12818W        W31672   1.213  13.646  11.017 -0.1790 -0.0841  0.0766
12819W        W31673  14.710  16.129  14.808 -0.2309 -0.3107  0.0526
12820W        W31674  13.508  14.446  11.960  0.0799  0.1860 -0.0860
12821W        W31675  16.625   9.740  14.300 -0.5355 -0.4287  0.3432
12822W        W31676   8.536   7.226   2.139 -0.2005  0.1366 -0.0852
12823W        W31677  15.806  15.209  14.605  0.2023 -0.1299 -0.2736
12824W        W31678   2.281  13.993   4.036 -0.1980  0.2605 -0.1206
12825W        W31679   5.501  15.805  14.646 -0.0889  0.0563  0.7269
12826W        W31680   2.961  12.726   3.415 -0.3810 -0.2303 -0.0728
12827W        W31681  13.949  17.501   0.705 -0.3597  0.0520  0.0002
12828W        W31682  10.229  17.625   2.931  0.3917  0.1017  0.2330
12829W        W31683   8.137  16.872  12.721 -0.3529 -0.1905  0.0518
12830W        W31684   5.888   9.689  12.393  0.2341  0.0316  0.1452
12831W        W31685   0.304   9.136  11.326 -0.1439  0.0395 -0.0700
12832W        W31686   6.209   9.693   0.067 -0.0192 -0.4255 -0.0721
12833W        W31687  15.821  13.651   4.060 -0.1905 -0.1239 -0.3877
12834W        W31688   7.606   1.967   0.892  0.2259  0.1610  0.3044
12835W        W31689  18.065  10.968  13.009  0.0218  0.1459  0.2347
12836W        W31690   7.065  12.113   3.955 -0.1097 -0.0326  0.0074
12837W        W31691  11.455   5.193   3.936 -0.1929  0.1825  0.1240
12838W        W31692  14.503   8.687  11.532  0.2434  0.1287  0.0055
12839W        W31693  14.786   1.508  13.416  0.0416 -0.3934  0.0176
12840W        W31694  17.855  18.178   1.935  0.0800 -0.1016 -0.0692
12841W        W31695  12.121   3.154  14.429 -0.0771  0.2577  0.2136
12842W        W31696   2.653  12.725  12.528  0.4405 -0.1033 -0.2259
12843W        W31697   7.218   0.913   9.960  0.3710 -0.4803 -0.3113
12844W        W31698  10.763   8.342   3.047  0.4006  0.2946 -0.0404
12845W        W31699   6.169  18.006  14.441 -0.0887  0.1000  0.0138
12846W        W31700  11.799   3.388   2.786  0.0474 -0.0036  0.2632
12847W        W31701  15.565  12.333   0.915  0.0632 -0.1644  0.0055
12848W        W31702  14.291  11.598   1.519 -0.0827  0.0125  0.0037
12849W        W31703   9.926   0.488  11.617 -0.2365  0.2147 -0.1263
12850W        W31704   9.965   0.283   3.738  0.1231 -0.3747  0.1374
12851W        W31705  10.528  16.562  11.034  0.0528 -0.4092  0.2888
12852W        W31706  17.959   5.667  11.266 -0.0263 -0.1616  0.0360
12853W        W31707   2.670  12.776  11.201 -0.0665  0.0274 -0.2672
12854W        W31708   6.846   5.357  14.574  0.0884  0.1785  0.0966
12855W        W31709  11.142  10.178   1.275  0.0067  0.1780  0.0392
12856W        W31710  11.782   3.667   1.280  0.2636  0.1817 -0.0108
12857W        W31711   4.337   7.592  13.297 -0.0259 -0.0318  0.1328
12858W        W31712  16.008   3.115   0.956 -0.1198  0.1795 -0.4153
12859W        W31713  15.335  18.504   2.737  0.0936 -0.0087 -0.2692
12860W        W31714  13.379   2.441  11.592 -0.0550 -0.0945 -0.6309
12861W        W31715   4.902   1.982   3.170  0.1505  0.0796  0.0954
12862W        W31716   6.381  10.113  12.458  0.0194  0.0347 -0.1526
12863W        W31717   6.177   3.213   3.650  0.3498 -0.3787 -0.0144
12864W        W31718   3.452   8.186  11.715 -0.2377 -0.2507 -0.0498
12865W        W31719  16.228   2.634  14.337 -0.0075  0.0676 -0.3131
12866W        W31720   9.585   1.450   1.260 -0.0355  0.1151  0.1528
12867W        W31721   8.045  11.518  12.282  0.0383  0.3394 -0.2001
12868W        W31722   9.094   4.396   3.605  0.0644 -0.2560 -0.2403
12869W        W31723  10.355   6.821   2.926  0.3641  0.0606 -0.1119
12870W        W31724   6.386  10.369  12.870  0.0733 -0.0225 -0.1515
12871W        W31725  17.584  16.012  11.261 -0.0169  0.1078 -0.1896
12872W        W31726  18.640  13.982   2.977  0.1616 -0.1750 -0.1863
12873W        W31727   1.299  16.738   3.089  0.2291  0.0081 -0.0850
12874W        W31728   6.059   5.487   3.930 -0.1688  0.4599 -0.1141
12875W        W31729  14.989   8.989  13.684 -0.0923  0.2695  0.1242
12876W        W31730   7.277   8.946  10.799 -0.2391  0.1495 -0.2236
12877W        W31731  17.910  11.836  12.923  0.0870 -0.1586  0.1895
12878W        W31732   5.206  10.858   3.478  0.0503  0.0515 -0.2582
12879W        W31733  10.129  16.157  11.880  0.4409 -0.5330 -0.0139
12880W        W31734   8.419   9.426   0.972 -0.3869 -0.2979 -0.0906
12881W        W31735  14.483   3.446   5.596 -0.0862  0.1969  0.0095
12882W        W31736  17.041  16.958  12.173 -0.0688  0.1790 -0.0752
12883W        W31737   2.375   0.636   4.342  0.2934 -0.1016  0.0760
12884W        W31738  17.588   2.239   0.878  0.2172  0.2107  0.1570
12885W        W31739  16.279   8.338  13.276  0.0786 -0.1769 -0.2160
12886W        W31740   9.541  18.807  13.857 -0.0544  0.3228  0.1712
12887W        W31741  11.886  10.755   4.210 -0.4100 -0.0502 -0.1223
12888W        W31742  11.377  11.527  11.121  0.3142 -0.1544 -0.3258
12889W        W31743  11.665  12.875   5.217 -0.0343 -0.1528  0.3701
12890W        W31744  18.262  14.379   1.455  0.0006 -0.3041 -0.2212
12891W        W31745  14.283  10.889   3.441  0.2600  0.4325  0.1241
12892W        W31746   1.922   1.932  13.318  0.2752  0.0494 -0.0438
12893W        W31747  12.618  10.757   1.697  0.3418 -0.0799  0.2124
12894W        W31748   5.282  17.984   2.118 -0.0598 -0.0894 -0.0493
12895W        W31749  10.276   4.011  11.968  0.0849 -0.3952  0.0145
12896W        W31750  16.987   2.986  11.668  0.1727 -0.0960  0.2310
12897W        W31751   8.950   8.732   1.683 -0.2648  0.3405  0.2669
12898W        W31752   1.300  17.947  13.044  0.0545 -0.0284 -0.2524
12899W        W31753   9.871   9.745  11.721  0.3835  0.2663 -0.1939
12900W        W31754  14.555   3.355   1.830  0.0618  0.1178  0.0573
12901W        W31755   8.722  13.054  13.953 -0.1672 -0.1593 -0.1514
12902W        W31756  13.178  12.679   3.374  0.1555 -0.0364  0.1578
12903W        W31757   4.588   5.647   0.697  0.0723  0.0629 -0.1873
12904W        W31758  14.895   8.245  13.665 -0.2863  0.2089 -0.2329
12905W        W31759  10.577  17.270   1.383  0.2016  0.0783 -0.1019
12906W        W31760   7.217   9.929  11.015 -0.1275  0.1122  0.0893
12907W        W31761  18.760  11.406   4.629  0.0466 -0.2318 -0.3366
12908W        W31762   6.351  17.198   0.566 -0.2192 -0.1311 -0.0282
12909W        W31763   3.419  12.544  10.803 -0.1292 -0.2085 -0.0697
12910W        W31764  15.697  18.490   3.984 -0.1281 -0.2736  0.0437
12911W        W31765   5.025  13.462   1.920 -0.2144  0.0901  0.0608
12912W        W31766   0.764  13.317  13.899  0.1164  0.1987  0.4836
12913W        W31767   7.706   2.311   4.567 -0.0541 -0.0582  0.1483
12914W        W31768  17.933  16.159   3.937  0.1503 -0.2080  0.2350
12915W        W31769   5.616  17.530   0.264 -0.0998  0.0581 -0.2246
12916W        W31770   4.860  12.967   1.832  0.2526 -0.0514  0.6138
12917W        W31771   6.032   0.527  12.175 -0.1059 -0.1740  0.1146
12918W        W31772   7.977  14.095  13.078  0.0601 -0.0239  0.0420
12919W        W31773   4.947  11.290   0.897 -0.1021 -0.1796 -0.4116
12920W        W31774  17.136   1.798   2.746 -0.0120  0.0823  0.2150
12921W        W31775  17.417   8.429   3.075 -0.0669 -0.0775 -0.1713
12922W        W31776   6.974   7.584   2.962 -0.2734  0.2417  0.4035
12923W        W31777   2.637  12.492   1.064 -0.2912  0.2155  0.0769
12924W        W31778  17.834  14.579   4.450  0.1350  0.2553 -0.2291
12925W        W31779  11.877   6.146  13.070  0.0672  0.1272  0.1372
12926W        W31780   0.427  14.399   1.182  0.0542  0.0694 -0.1526
12927W        W31781  16.130  14.978   2.730  0.0359 -0.0384 -0.2243
12928W        W31782   9.680   5.946  14.138 -0.1083 -0.0567  0.1911
12929W        W31783   8.060   1.399   2.288 -0.0197 -0.1875  0.0225
12930W        W31784  12.712  13.880   4.384 -0.0828  0.0059  0.0526
12931W        W31785  13.023  17.455   1.560  0.3569 -0.0435  0.0052
12932W        W31786  11.981  14.282   4.199  0.2483 -0.1651  0.1781
12933W        W31787   1.190  16.040   4.082  0.4618  0.3204  0.2222
12934W        W31788   3.272  14.366   0.758  0.1069 -0.3323 -0.1103
12935W        W31789   0.535  18.655   2.937  0.0226  0.0416  0.0197
12936W        W31790  10.597   4.691  11.233 -0.1017  0.1106 -0.0130
12937W        W31791  17.279   5.409  10.581 -0.0638  0.1463  0.0769
12938W        W31792   7.635   4.573   3.382  0.1552  0.0113 -0.1654
12939W        W31793  12.719   9.042  12.685  0.1389  0.2763 -0.2371
12940W        W31794  17.094  16.807   1.923  0.0874  0.1259  0.0467
12941W        W31795   5.391  15.785   0.419 -0.0767 -0.0231  0.0836
12942W        W31796   6.475  11.249   2.735  0.0241  0.0553 -0.0183
12943W        W31797   4.872  18.849  13.877  0.0571  0.2182 -0.0238
12944W        W31798   1.579  17.672   3.115  0.0545 -0.0716 -0.1533
12945W        W31799   3.611   5.451   0.754  0.0087 -0.0260 -0.0595
12946W        W31800   1.908  16.702   4.102 -0.0325 -0.3139 -0.1512
12947W        W31801   7.506   8.058  12.014  0.0936 -0.3161  0.0681
12948W        W31802  17.610   5.196   3.993  0.1657  0.0811 -0.0491
12949W        W31803   6.739   1.880  12.368  0.1473  0.3125 -0.1590
12950W        W31804   3.118  18.558  11.603 -0.4077  0.2142  0.0669
12951W        W31805  16.074   6.182   2.661  0.1627 -0.1777  0.1061
12952W        W31806  14.203  17.141  11.907 -0.0171 -0.2247 -0.1306
12953W        W31807   4.310  17.975  12.278 -0.0210 -0.1112 -0.0449
12954W        W31808  18.263  10.663   4.226  0.1185  0.1474  0.0122
12955W        W31809  18.557  12.653   9.699 -0.0302 -0.1862 -0.0567
12956W        W31810   4.584   6.552  14.318 -0.0264 -0.0114  0.0627
12957W        W31811   8.723   4.169  11.913  0.0322  0.3661  0.0012
12958W        W31812   6.600   1.301  14.726 -0.1757 -0.0158  0.0789
12959W        W31813  14.584  17.563  12.909 -0.0467  0.0958  0.2195
12960W        W31814   7.975  18.056   0.258 -0.0586 -0.1406 -0.1898
12961W        W31815  13.946   7.522   2.268  0.0963 -0.1565 -0.2959
12962W        W31816   4.389  15.177  13.574 -0.1315  0.4085  0.2234
12963W        W31817  15.470  15.887   0.367  0.0701  0.1938  0.1149
12964W        W31818   9.495  14.294  13.684  0.1932 -0.1689  0.1895
12965W        W31819  18.289   7.804  13.601 -0.3183  0.0421 -0.1760
12966W        W31820  14.090  16.550  12.297 -0.1380 -0.0334 -0.0247
12967W        W31821  16.681  17.526   3.006  0.1755  0.0673 -0.0403
12968W        W31822   5.060  16.991  14.070  0.0070 -0.0235 -0.4044
12969W        W31823  17.939   5.682   2.757  0.1422 -0.1224 -0.1428
12970W        W31824   9.970  17.828   4.327  0.2677 -0.0855  0.1276
12971W        W31825  13.665   9.513   2.001 -0.0369 -0.0015  0.0634
12972W        W31826   8.461   1.407  11.704  0.1779  0.2167 -0.2293
12973W        W31827   9.907  15.466  13.070 -0.2893 -0.0135 -0.1561
12974W        W31828  14.103   6.646   0.420  0.4029 -0.1024 -0.0110
12975W        W31829  17.447  17.352  13.120 -0.0174 -0.4478 -0.1538
12976W        W31830  14.528  12.067  12.497  0.1745 -0.0807 -0.3304
12977W        W31831  14.499   4.997   1.118  0.0355  0.0679  0.2977
12978W        W31832  18.394   3.083   0.373 -0.1199 -0.1199  0.0134
12979W        W31833   9.945  16.967  12.543 -0.1461 -0.0358  0.0144
12980W        W31834  11.511  11.944   2.613 -0.2188  0.0396  0.0119
12981W        W31835  10.670  13.861   2.318 -0.0870 -0.1757 -0.1182
12982W        W31836   6.926  11.254  10.683  0.1910  0.0009 -0.1076
12983W        W31837  16.593   7.012   0.445  0.0905  0.3119 -0.0292
12984W        W31838  16.594  13.780  14.779 -0.3206 -0.0702 -0.1227
12985W        W31839   2.561  18.334  12.999  0.3990  0.2021 -0.5032
12986W        W31840   7.624   6.448  12.472  0.1180  0.2560  0.0675
12987W        W31841  13.994   6.819  13.751  0.1802  0.3208 -0.0124
12988W        W31842   8.484  10.759   0.347 -0.0544  0.1678  0.2306
12989W        W31843   1.514   5.436  11.109  0.5097  0.3353  0.0971
12990W        W31844   6.060  14.414  14.719 -0.0120  0.1849  0.1386
12991W        W31845   1.033   7.250  14.841 -0.2420 -0.2653 -0.0629
12992W        W31846   3.423   3.018  12.107  0.0228  0.2450 -0.0238
12993W        W31847   2.529  14.629  10.941  0.0989 -0.1321  0.3766
12994W        W31848  15.833  10.002   2.415  0.1229 -0.0698  0.1457
12995W        W31849   0.045   2.765  12.874 -0.2166 -0.1981 -0.1380
12996W        W31850   6.738   5.738  11.820 -0.1278  0.1025 -0.1939
12997W        W31851  10.028  18.316   1.537  0.2553  0.1028  0.1630
12998W        W31852  11.358  13.364  14.566 -0.3166  0.2161  0.2591
12999W        W31853  18.183   0.861   1.941 -0.1840  0.0153  0.0415
13000W        W31854   2.609  18.683  10.748  0.0205  0.1101  0.3373
13001W        W31855  13.904   8.961   2.629 -0.2490 -0.0743  0.1514
13002W        W31856   5.290   0.760   1.335  0.1316  0.1911  0.1911
13003W        W31857  14.795   2.399   4.700 -0.2471 -0.2388  0.0397
13004W        W31858  12.924  10.534  11.852  0.0334  0.1077 -0.0997
13005W        W31859  18.642  16.638  11.687  0.1733  0.0010 -0.0303
13006W        W31860  15.885   8.753  10.463 -0.0591 -0.0157 -0.0637
13007W        W31861   2.374  17.677   3.417  0.2372  0.2086  0.2700
13008W        W31862  15.029  14.313  13.316  0.2036 -0.1037  0.2469
13009W        W31863  18.412  13.645   3.727 -0.2923  0.2023  0.2625
13010W        W31864  15.614   8.333   1.695  0.0411 -0.2170 -0.1149
13011W        W31865   8.154   8.666   9.882 -0.0594  0.1497  0.2524
13012W        W31866   7.047  16.973   2.286 -0.0978  0.3115 -0.0712
13013W        W31867  12.187  16.790   3.178 -0.1313 -0.1096  0.3688
13014W        W31868  14.026   3.347   2.551  0.4362  0.2006  0.1259
13015W        W31869  10.699  17.669   1.693  0.2429  0.2232  0.0995
13016W        W31870   0.565   4.896   0.821 -0.0347 -0.0799  0.0751
13017W        W31871  17.497   7.998   3.889 -0.3547  0.0029 -0.1481
13018W        W31872   1.197   4.232   5.129  0.3175  0.4497  0.1922
13019W        W31873   6.429   7.375  14.608 -0.0370  0.3668 -0.1365
13020W        W31874   6.877   5.355   0.182 -0.1463  0.1655 -0.0813
13021W        W31875  17.345  11.572   1.986  0.0866 -0.0317 -0.0299
13022W        W31876   8.826  10.353  12.230  0.0802  0.0734  0.0112
13023W        W31877  11.357   5.351  11.960  0.1007  0.0872 -0.0392
13024W        W31878   1.393   1.753  13.125  0.1469 -0.2373  0.1129
13025W        W31879  17.470  13.470   3.462 -0.0959  0.0055 -0.2840
13026W        W31880  15.657  16.038  14.459  0.1098 -0.3899 -0.1612
13027W        W31881  15.930  15.776  10.888 -0.0473 -0.0998  0.0963
13028W        W31882   7.322   0.738  14.165  0.1562 -0.0443  0.3420
13029W        W31883  18.368  17.445   4.165 -0.0620  0.1883 -0.0459
13030W        W31884   3.459   0.031  12.851 -0.1509 -0.1759 -0.4229
13031W        W31885   3.215  16.559   0.556  0.0456  0.1054 -0.1070
13032W        W31886  13.382  10.472  12.066 -0.3202  0.1229 -0.2631
13033W        W31887  16.716   1.984  13.052  0.1096 -0.0277 -0.2314
13034W        W31888   2.128  16.618  12.152 -0.0227  0.2468 -0.1643
13035W        W31889  16.676  14.481   4.955  0.1071 -0.1727  0.0499
13036W        W31890   4.296   0.775  14.555 -0.0814 -0.0278 -0.1960
13037W        W31891   2.101  11.663   3.177 -0.0122  0.2444 -0.1204
13038W        W31892  15.202  12.544   4.312  0.0981  0.2104  0.0242
13039W        W31893  18.702  10.391  11.682 -0.0724 -0.1037 -0.2961
13040W        W31894  10.864   3.856   1.216 -0.0158  0.1302  0.1145
13041W        W31895   8.789  11.081  14.122  0.0365 -0.2068 -0.1852
13042W        W31896   7.126   5.999   0.041  0.0023 -0.1395 -0.1853
13043W        W31897  18.191  13.691   0.841  0.0832  0.2976  0.1664
13044W        W31898  10.741  11.457   0.435  0.3076  0.0912  0.3526
13045W        W31899  14.011   3.019   3.931 -0.2152  0.0942 -0.0973
13046W        W31900   7.018  17.843   2.207 -0.1609  0.2578  0.0076
13047W        W31901   1.096  14.097   1.235 -0.2724 -0.1836 -0.0921
13048W        W31902   6.008  17.455  12.730 -0.0854 -0.4030 -0.0826
13049W        W31903   7.974   4.212   2.349  0.2763 -0.0819  0.0652
13050W        W31904  14.989   8.657  11.438  0.1081 -0.3125 -0.0883
13051W        W31905  14.914   6.139   2.346 -0.2710 -0.0178  0.0639
13052W        W31906  14.435  17.123   4.319 -0.0618  0.0851 -0.1444
13053W        W31907   5.473   5.533  12.893  0.1233 -0.0709 -0.0820
13054W        W31908  12.375  16.358   3.341 -0.2334 -0.0749  0.0510
13055W        W31909  12.352   3.190   2.539  0.0624  0.1067 -0.2234
13056W        W31910  14.360  10.524  12.735 -0.2143  0.0879 -0.0061
13057W        W31911   7.703   9.017   2.964  0.1330 -0.1628  0.0031
13058W        W31912   4.218  10.661   2.380  0.2710 -0.0181  0.0433
13059W        W31913   3.951   2.247  11.844 -0.0778  0.3089  0.1227
13060W        W31914   6.311  12.041   0.522  0.0923 -0.0858 -0.1526
13061W        W31915  14.965   4.611  13.579  0.0332  0.3010 -0.0377
13062W        W31916  18.621   4.210  14.973  0.0792 -0.0408 -0.0851
13063W        W31917   4.227  10.054   0.773 -0.0099 -0.1085 -0.1967
13064W        W31918   2.022  13.979  14.270  0.2197 -0.2277  0.2404
13065W        W31919   3.289   8.625  11.961  0.2047 -0.0156 -0.1521
13066W        W31920   9.851  17.285  14.322 -0.1555  0.1468  0.2698
13067W        W31921  10.737   8.191  11.666 -0.0471  0.0958 -0.1681
13068W        W31922  17.732   9.240  14.746 -0.0763  0.0646 -0.3858
13069W        W31923   3.967   9.689  10.854  0.0223  0.0580 -0.0170
13070W        W31924  18.101  10.762   2.790 -0.0430  0.0041 -0.2624
13071W        W31925  17.956   9.213  10.604  0.0906  0.1500 -0.2977
13072W        W31926  10.188  13.977   2.068 -0.1735 -0.1169 -0.4455
13073W        W31927   9.181   2.952  14.291 -0.1243 -0.2422 -0.0010
13074W        W31928   8.657  16.633   1.133  0.0776 -0.2620 -0.1381
13075W        W31929   0.219  14.085  12.713 -0.3221  0.0656  0.0455
13076W        W31930   8.462   7.904  15.063 -0.0682  0.0188  0.1068
13077W        W31931  18.639   1.139  14.449  0.0533  0.0933 -0.0690
13078W        W31932   0.065  17.809  13.325 -0.0063 -0.2098 -0.1083
13079W        W31933   3.596  13.427   9.871  0.0169 -0.1155 -0.1986
13080W        W31934   7.778  18.213   3.501  0.1481 -0.0578  0.1012
13081W        W31935   4.934  17.552   3.068  0.1568 -0.2077 -0.2557
13082W        W31936  15.163  11.505  14.526 -0.0491 -0.0465  0.0539
13083W        W31937   0.598   5.295   3.059  0.0398 -0.2213  0.2693
13084W        W31938  12.069   6.289  11.777  0.2662  0.0710  0.0528
13085W        W31939  14.733  18.487   1.563  0.3347 -0.1896 -0.3182
13086W        W31940  16.372   2.926  14.789 -0.1029 -0.1702  0.0814
13087W        W31941  16.490  12.497  13.777  0.1767  0.0220 -0.0670
13088W        W31942   7.970  15.756   0.531 -0.2635  0.1119  0.1588
13089W        W31943  14.981  16.585  14.594 -0.1527  0.1245  0.0630
13090W        W31944   8.435  10.753   4.246 -0.0729  0.2275 -0.0374
13091W        W31945   1.545   5.685   1.409  0.1264 -0.1057 -0.4777
13092W        W31946  18.726  11.359   2.521 -0.2383 -0.3824  0.0577
13093W        W31947  12.614   3.419   1.634  0.1434  0.4268  0.0218
13094W        W31948   8.156   7.323  10.731 -0.2526 -0.0473  0.0533
13095W        W31949   2.132  15.559   2.268  0.2450  0.0872  0.1497
13096W        W31950  17.392   9.418   0.429 -0.0623 -0.0749  0.0233
13097W        W31951  11.343  17.183   3.731  0.1760 -0.0543  0.2054
13098W        W31952  11.569  15.950  14.244  0.0562 -0.1457 -0.1539
13099W        W31953   6.986  11.321   0.815  0.3439 -0.1040  0.4922
13100W        W31954  11.789  13.806  13.682  0.1350 -0.0611 -0.1561
13101W        W31955   1.856   8.361  11.442  0.0693  0.0814  0.1497
13102W        W31956   5.739  17.411   3.474  0.3287 -0.1897  0.0308
13103W        W31957  18.376   3.734   0.344  0.1369  0.0241  0.3372
13104W        W31958   6.652   5.279  14.108 -0.1567 -0.2217 -0.4497
13105W        W31959   3.082  11.036   2.693 -0.0079 -0.1846 -0.2377
13106W        W31960   2.176   4.998  13.958 -0.0766  0.0090  0.2164
13107W        W31961  12.773   3.761   4.118  0.1271 -0.0143 -0.0707
13108W        W31962  13.437   3.878   3.593  0.2027 -0.0124 -0.0989
13109W        W31963  11.317  13.544  11.911 -0.2504  0.0344 -0.2211
13110W        W31964  16.509  16.300   5.543 -0.0102  0.1815  0.1849
13111W        W31965   0.979   6.371  12.534  0.0570 -0.1615 -0.1561
13112W        W31966   2.981   3.699   1.875 -0.0153 -0.2137  0.2576
13113W        W31967   2.791   0.526   3.128 -0.4626 -0.0645 -0.1239
13114W        W31968   4.447   6.770  14.735  0.0005 -0.2017 -0.0566
13115W        W31969  15.233  14.891   0.907 -0.0141 -0.0818 -0.1188
13116W        W31970   0.029   9.712   2.171  0.0482 -0.2033 -0.0913
13117W        W31971  17.566  11.970   2.142  0.1036 -0.1742 -0.1524
13118W        W31972  15.696  18.211   2.608  0.1742 -0.0390 -0.1166
13119W        W31973  17.432   0.992   2.932  0.1190  0.1677 -0.0092
13120W        W31974   4.010   1.391   0.092  0.3734  0.1437 -0.1354
13121W        W31975   7.289   0.416  10.980 -0.2530  0.0425 -0.0195
13122W        W31976  12.960   4.125   3.776 -0.0920  0.3842  0.0169
13123W        W31977   4.476   7.823  12.810  0.4650 -0.2304 -0.2096
13124W        W31978  10.763  12.321   2.397  0.1561 -0.0588  0.1381
13125W        W31979   0.393   3.535   0.088 -0.2500  0.0884  0.0568
13126W        W31980  11.186  16.180   3.959  0.3329  0.0458  0.1000
13127W        W31981  12.400   2.219   3.553 -0.0710  0.2707  0.2590
13128W        W31982   8.829   0.157   3.062 -0.0668  0.3374 -0.0877
13129W        W31983  10.134  17.282  13.458 -0.1168 -0.1430 -0.0568
13130W        W31984   4.581   3.624   2.906  0.0159  0.1583 -0.2050
13131W        W31985  17.523   1.353   0.736  0.1478 -0.0114  0.0789
13132W        W31986  16.375  17.584   0.248  0.0770  0.3035  0.0892
13133W        W31987  16.078   8.529  12.720  0.3821  0.0683 -0.2947
13134W        W31988  16.930   1.598  12.759 -0.0251  0.4051  0.3992
13135W        W31989   1.311   6.321  13.484  0.0372 -0.1592 -0.0424
13136W        W31990  11.655  11.597  14.024  0.2547 -0.3131  0.0734
13137W        W31991   2.704  16.779   1.800  0.1000 -0.1201  0.2000
13138W        W31992   8.786   3.528   4.353 -0.0101 -0.1464 -0.0160
13139W        W31993   5.166  18.450  14.193 -0.0035  0.2902 -0.0746
13140W        W31994   0.865   9.853  12.619 -0.4087  0.1030  0.0660
13141W        W31995  10.756  17.964  10.906  0.1157  0.0334  0.0568
13142W        W31996   0.001   9.760   4.239 -0.0286  0.2007  0.2302
13143W        W31997  18.697  18.678  12.144  0.1335  0.0950 -0.0438
13144W        W31998  11.255  17.000   0.619  0.1837  0.0010  0.2519
13145W        W31999  16.854   7.892  11.227  0.2466 -0.2162 -0.0590
13146W        W32000   6.498   2.223  13.339  0.0968 -0.0061  0.1763
13147W        W32001   3.561   5.246   1.708 -0.3241  0.0180 -0.1490
13148W        W32002  14.322  12.253   3.915  0.2028  0.0783 -0.0840
13149W        W32003  14.738  12.324   1.466  0.2183 -0.3040 -0.1945
13150W        W32004   2.769   5.720   4.496  0.0844  0.0131  0.0809
13151W        W32005  15.408  17.158   1.612 -0.2261  0.0513 -0.0376
13152W        W32006  11.381  15.235   3.833 -0.1044 -0.0309 -0.3870
13153W        W32007  14.522   9.021  12.580 -0.0498 -0.2993 -0.0689
13154W        W32008   3.056   6.571   3.326  0.3593  0.2030 -0.0258
13155W        W32009   6.088   8.959   2.210  0.1227  0.1883 -0.0473
13156W        W32010   0.217  11.349  14.728  0.2082 -0.0963  0.2822
13157W        W32011  14.558   6.232   3.210  0.3061  0.1644 -0.1258
13158W        W32012  18.671   5.039  12.380 -0.1601 -0.0468 -0.1453
13159W        W32013   5.753  14.300   4.096  0.0811 -0.0007 -0.0716
13160W        W32014   3.800  11.812   3.783 -0.0054 -0.0105  0.0547
13161W        W32015   9.376   0.367  12.637 -0.1641 -0.2870  0.1500
13162W        W32016  14.280  14.770   2.255 -0.1525  0.0408  0.1311
13163W        W32017  17.403   8.308   0.248 -0.1455 -0.0925  0.1521
13164W        W32018  10.773   9.519  13.015  0.3557 -0.2312  0.0211
13165W        W32019   3.234  12.253  12.292 -0.1312 -0.0627 -0.0579
13166W        W32020   2.848   6.002  14.081  0.2872  0.1531  0.0217
13167W        W32021   9.834   7.740  11.425 -0.0571  0.2661 -0.0898
13168W        W32022  15.667   4.212   4.650 -0.1238  0.1495 -0.1500
13169W        W32023   4.496  11.050   2.603  0.0376  0.1484 -0.0558
13170W        W32024   9.951  11.929  11.197  0.0554 -0.4285 -0.0222
13171W        W32025   3.023  15.539  14.975 -0.0182 -0.0156 -0.0898
13172W        W32026   7.990   5.414   3.527 -0.1825 -0.0502  0.0307
13173W        W32027  10.374   1.365   2.990 -0.0798  0.0283  0.0968
13174W        W32028  13.146   8.334  13.114 -0.3123  0.0754 -0.0468
13175W        W32029   0.752   2.604  11.521  0.4062 -0.2970 -0.0315
13176W        W32030   2.421  10.545  14.491  0.0801  0.0506 -0.4286
13177W        W32031  14.417  11.673   0.619  0.0979  0.0145  0.1424
13178W        W32032   9.873   5.548   5.038 -0.0898  0.1637  0.1134
13179W        W32033  17.148   4.340  14.759  0.0542  0.0635  0.0592
13180W        W32034  18.528   1.531  14.034 -0.2368 -0.3376  0.3035
13181W        W32035  10.547  10.354  12.759  0.1195  0.2527  0.0317
13182W        W32036  12.019  18.076  13.599 -0.1003 -0.0873  0.0438
13183W        W32037   4.635  12.154   3.044  0.1947 -0.2435 -0.2466
13184W        W32038   2.178   9.716   1.484 -0.1633 -0.1316  0.1862
13185W        W32039  15.039  16.451   1.111 -0.2836  0.1019  0.0949
13186W        W32040   8.505   9.191  11.515 -0.3463 -0.2065 -0.0607
13187W        W32041  10.416  16.158  10.650 -0.1627 -0.1623  0.1734
13188W        W32042  18.022   0.765  11.361 -0.1201 -0.1028  0.0717
13189W        W32043  18.588   8.017  10.678 -0.0818  0.1760  0.1006
13190W        W32044   3.156  14.020  13.877  0.1003 -0.0370 -0.1717
13191W        W32045  18.242   9.161  14.672 -0.1190 -0.0090  0.4525
13192W        W32046   8.517   2.089  15.088  0.0525 -0.0645 -0.3257
13193W        W32047  17.470  16.881   3.620  0.0792 -0.1107  0.1233
13194W        W32048   1.200  17.159  14.571 -0.3145  0.2534  0.1339
13195W        W32049  12.884   2.234   3.734  0.2353 -0.0204 -0.0725
13196W        W32050   3.897   1.480   3.666 -0.0710 -0.3008  0.2359
13197W        W32051   9.364   1.086  11.338 -0.0066  0.0420 -0.1209
13198W        W32052   6.878  16.977   0.298  0.0320  0.0233  0.1035
13199W        W32053   6.121   6.048   1.674  0.1641 -0.2915 -0.0945
13200W        W32054  14.277   2.256  13.414 -0.2013  0.0609 -0.2760
13201W        W32055   2.585   9.163  12.312 -0.0133  0.0433  0.3139
13202W        W32056   1.747  17.777  12.711  0.1276  0.3657 -0.2734
13203W        W32057   6.001   8.441   1.745 -0.1978 -0.0358  0.0398
13204W        W32058   3.446  15.360  14.829  0.1611 -0.1301  0.1925
13205W        W32059  12.720   1.835   3.070  0.0172  0.2749 -0.1344
13206W        W32060  16.804  13.577   4.209  0.0008  0.2104 -0.1731
13207W        W32061   4.154   1.891   4.444 -0.0177 -0.4308  0.0933
13208W        W32062   7.862  16.694  14.527 -0.0912  0.0473 -0.2699
13209W        W32063  17.911  16.088   2.752 -0.1558 -0.0958 -0.1931
13210W        W32064   1.756   0.446   3.805 -0.1386  0.3795  0.2706
13211W        W32065  16.981   3.757   4.247 -0.0218 -0.1331  0.0711
13212W        W32066  18.129  10.052   2.058  0.0074 -0.0918  0.5268
13213W        W32067   8.886   0.145   0.604  0.0364 -0.0451  0.2843
13214W        W32068   5.507  16.292   0.601 -0.0246  0.0044 -0.1472
13215W        W32069   5.209  10.531   1.524  0.2006  0.1829 -0.2467
13216W        W32070  17.989  12.260  10.450  0.0487  0.1252 -0.2146
13217W        W32071   2.556  10.287  11.579 -0.0666 -0.2494  0.0800
13218W        W32072   5.378  11.364   0.141 -0.0847  0.2155  0.0630
13219W        W32073   7.199  13.211   2.179 -0.0149  0.1015  0.0817
13220W        W32074   6.831   9.119  12.889  0.1130  0.1483 -0.1704
13221W        W32075   2.672   5.225   9.706  0.2584 -0.0211  0.1952
13222W        W32076   4.587   4.539   1.035  0.2411  0.1118  0.0391
13223W        W32077   3.323  17.551  13.696 -0.2406 -0.3172 -0.1077
13224W        W32078   6.433  17.739  13.415 -0.0801  0.0201 -0.2244
13225W        W32079   7.405  12.029  12.781  0.1029 -0.1492 -0.3767
13226W        W32080   1.110  13.802   2.707  0.1052 -0.0572  0.0807
13227W        W32081  14.251  18.715   0.275  0.1411  0.0234  0.1147
13228W        W32082   5.546  16.089  13.151 -0.0026 -0.3349  0.0585
13229W        W32083  15.612  17.265  12.887 -0.1680 -0.2912  0.0029
13230W        W32084  18.605  12.204   0.018  0.1383 -0.1202  0.0669
13231W        W32085  12.973  17.484  13.691  0.1538 -0.0020  0.1983
13232W        W32086  12.824  16.572  13.481  0.0659 -0.0909  0.2051
13233W        W32087   5.969   4.184  13.024 -0.0487 -0.0555 -0.0248
13234W        W32088   1.725   3.434   2.060  0.0034 -0.0721  0.0637
13235W        W32089  15.330  18.064  11.127  0.3913  0.1186 -0.2853
13236W        W32090  11.166  15.123  14.798 -0.2736 -0.2587 -0.1664
13237W        W32091  13.050   3.563   3.737  0.2331  0.2131 -0.0338
13238W        W32092   8.585  10.236   3.480 -0.0885  0.0733  0.0095
13239W        W32093  11.298  10.311   3.028 -0.1462  0.0104  0.1373
13240W        W32094  18.387  12.535  13.809 -0.1998 -0.2247 -0.0760
13241W        W32095  14.867  10.308  11.749 -0.1844 -0.0330  0.0008
13242W        W32096   6.728   7.521   9.941  0.0380  0.1104  0.1970
13243W        W32097   7.196   3.264  14.348 -0.1146 -0.3887  0.0918
13244W        W32098   7.886   3.843   4.362  0.1651  0.2047 -0.0959
13245W        W32099   0.704   1.033   2.089  0.0087  0.0394  0.0610
13246W        W32100   2.403   0.959   2.586  0.1671 -0.0548 -0.1235
13247W        W32101   4.205   4.705  11.703 -0.1468  0.0752 -0.0923
13248W        W32102  10.551   6.010   1.960 -0.0065  0.0127 -0.0722
13249W        W32103   7.886   0.282  12.795 -0.2745  0.0537  0.1492
13250W        W32104  12.572   2.701  11.865  0.0478  0.4038 -0.1167
13251W        W32105   6.977   0.213  13.104 -0.2792  0.0017 -0.1711
13252W        W32106  17.905  12.884   1.365  0.1742  0.1236 -0.0529
13253W        W32107  10.780  13.671   3.015  0.0853  0.1956  0.1076
13254W        W32108  15.660  14.042   1.123 -0.3605  0.0122 -0.3084
13255W        W32109  16.216   7.445   0.326  0.0445  0.0988 -0.2379
13256W        W32110   0.013  13.552  10.495 -0.2024 -0.0012 -0.0011
13257W        W32111  17.035   4.968  14.595  0.0556 -0.1349 -0.1516
13258W        W32112   4.556  15.719   2.808  0.2968 -0.1471  0.0957
13259W        W32113  14.135   5.026   0.792 -0.0142  0.4793 -0.1497
13260W        W32114   9.950   4.393   2.201  0.2171 -0.1902  0.1129
13261W        W32115   7.512  15.340   3.172  0.0312  0.0262 -0.0070
13262W        W32116  13.406  15.234   4.540 -0.0936 -0.0897  0.5102
13263W        W32117  18.142  18.788   0.295 -0.1762  0.3359  0.2007
13264W        W32118   1.922   6.022   4.609 -0.1342 -0.1035 -0.0253
13265W        W32119   4.079  17.097   3.055 -0.1933  0.4355 -0.0616
13266W        W32120  13.490   9.743   5.568  0.1579 -0.4798  0.2286
13267W        W32121  14.942  18.818  13.386 -0.1990  0.0183  0.0475
13268W        W32122   5.801  14.354  11.652  0.1059  0.2006  0.0412
13269W        W32123  14.926  16.741   1.743 -0.2012  0.0818  0.2295
13270W        W32124  11.372  18.130   3.984  0.0739 -0.1270  0.2156
13271W        W32125   6.041   3.528  13.617  0.3168  0.1382 -0.1849
13272W        W32126  13.318  17.122  12.317 -0.1896  0.1011 -0.1774
13273W        W32127   9.730  11.443   0.881 -0.0753 -0.2324  0.3716
13274W        W32128  11.092   2.525  12.044  0.1998  0.2016 -0.1401
13275W        W32129  12.401   4.078   3.747 -0.1886  0.0716 -0.0469
13276W        W32130  17.195  18.683  10.231 -0.0502  0.1708  0.1315
13277W        W32131   1.183  12.947  12.296 -0.0510 -0.5487 -0.3804
13278W        W32132  11.914  11.854  11.382 -0.3078 -0.1830 -0.1037
13279W        W32133   5.054  14.297  13.864 -0.0576 -0.2783 -0.1581
13280W        W32134   6.897  16.201   3.757 -0.2866 -0.1682  0.0104
13281W        W32135   0.898   5.948  11.777  0.1201 -0.1613  0.0102
13282W        W32136  14.260  16.248   2.875  0.0887 -0.1199 -0.3305
13283W        W32137   1.555  15.830   1.444 -0.0971  0.1449 -0.4216
13284W        W32138  10.240   2.102   2.445  0.1060 -0.0772  0.0329
13285W        W32139   7.651   2.708  14.854 -0.1007 -0.3186 -0.0442
13286W        W32140  10.284  11.728  13.881  0.0388  0.1579 -0.0499
13287W        W32141   2.018   6.501  14.820 -0.0867 -0.3935  0.0097
13288W        W32142  16.683  15.322   1.173  0.1367  0.2166  0.3650
13289W        W32143  10.113   6.726  14.193 -0.2226 -0.1696 -0.2486
13290W        W32144  16.399   8.602   0.946 -0.1155  0.1728 -0.1488
13291W        W32145   4.457   1.570  15.095 -0.3286  0.1204  0.0111
13292W        W32146  10.027  13.472   0.830  0.2672  0.0855 -0.1944
13293W        W32147  11.294  14.573   3.020  0.4221 -0.1114 -0.0917
13294W        W32148  13.424   2.495   3.027  0.3910 -0.0136  0.1462
13295W        W32149   4.709   9.014   1.311 -0.2811 -0.0563  0.1705
13296W        W32150   3.283   8.278  12.463 -0.2277 -0.2487  0.1893
13297W        W32151   1.033   1.150  12.660 -0.3976 -0.0858 -0.3240
13298W        W32152   0.948   5.468   0.217  0.0171 -0.0512  0.0592
13299W        W32153  11.300   8.613   3.889  0.0846  0.3533  0.2189
13300W        W32154   2.487   4.059   4.355  0.1036  0.0856  0.1991
13301W        W32155   7.868  12.655  10.453 -0.1362  0.0345 -0.0502
13302W        W32156  12.360  14.383  13.608  0.2537  0.1039  0.1127
13303W        W32157  16.283  17.372   2.668  0.2135 -0.0571 -0.2994
13304W        W32158   1.300   3.205   1.129 -0.2005  0.4122  0.0770
13305W        W32159  17.785  11.502   2.158 -0.0826 -0.1687 -0.0618
13306W        W32160   6.686   4.007  12.059  0.1498 -0.2026  0.0641
13307W        W32161   7.930  10.383  10.972 -0.2122 -0.0729 -0.0266
13308W        W32162   9.675   3.003  14.380  0.0698 -0.1238  0.0769
13309W        W32163  16.996  18.366   1.456 -0.3370 -0.3033  0.0843
13310W        W32164   5.579  18.168   2.538 -0.0070  0.0086 -0.0723
13311W        W32165  13.629  16.252  10.794  0.0265 -0.2079  0.2507
13312W        W32166  14.229   5.426  13.202  0.3777  0.3278  0.1284
13313W        W32167  18.090   3.103  13.083  0.2174  0.0249  0.0933
13314W        W32168  10.865  16.715  14.250 -0.0392  0.3272 -0.0511
13315W        W32169   3.302  17.494   2.047  0.2123 -0.0477  0.1649
13316W        W32170  18.244   6.204   3.601  0.6741  0.0030  0.2782
13317W        W32171  18.855   8.501   1.558  0.2066  0.1972  0.2620
13318W        W32172   3.764  17.574  12.945  0.1377  0.0815  0.2968
13319W        W32173   4.505  16.531   4.402  0.1651 -0.1785  0.3988
13320W        W32174   2.282   0.532  12.820  0.0786 -0.2617 -0.3149
13321W        W32175   1.952  11.866  10.614 -0.0401  0.0123 -0.2911
13322W        W32176  11.688  16.051  11.389  0.1657 -0.1402  0.1077
13323W        W32177   5.205   7.555  11.133 -0.2881 -0.1769 -0.3280
13324W        W32178   1.652   9.852  13.946  0.0899 -0.2100 -0.2366
13325W        W32179   2.426   1.070  13.945 -0.2563  0.3017  0.1496
13326W        W32180  13.996  16.234  11.729  0.2039  0.0953  0.1970
13327W        W32181   1.068  16.053  12.777  0.0984 -0.2604  0.0071
13328W        W32182   2.517  10.678  10.200  0.1314 -0.0466 -0.0183
13329W        W32183   6.841   3.009  13.166  0.0177  0.0068  0.2253
13330W        W32184  10.751  15.617  14.126  0.0698 -0.0687 -0.2546
13331W        W32185   9.640   5.072   4.086  0.2291 -0.1126 -0.1316
13332W        W32186  14.478   8.208  11.957 -0.3934 -0.4195 -0.1233
13333W        W32187   9.455   5.209  11.482  0.1141  0.1541 -0.0041
13334W        W32188   7.680   1.865  14.805  0.0886 -0.2407  0.0756
13335W        W32189   4.936   3.762   4.019  0.1691 -0.0835  0.1117
13336W        W32190  18.395   2.556   3.581 -0.1305 -0.1739 -0.0463
13337W        W32191  16.907  11.817  14.897 -0.1034  0.1494 -0.1381
13338W        W32192   8.061  17.195  12.232 -0.0714  0.0866  0.2184
13339W        W32193   2.455  16.907  11.895 -0.1598 -0.1478 -0.1150
13340W        W32194   2.150  14.879   1.180 -0.0045  0.1219 -0.2307
13341W        W32195  13.424  15.777  12.357 -0.0933 -0.1683  0.1393
13342W        W32196   6.137  15.457   5.411 -0.0324 -0.0412 -0.0154
13343W        W32197  10.827   5.064  15.010  0.1678 -0.0205  0.2803
13344W        W32198   9.108  18.443   1.725  0.0171  0.1153  0.2785
13345W        W32199  12.495   8.013   2.245  0.1340 -0.0496  0.0907
13346W        W32200   5.292   6.024   3.492 -0.0486  0.1813  0.0395
13347W        W32201   3.780  18.649   2.378 -0.1580 -0.1168 -0.1000
13348W        W32202  14.278   3.010   0.759 -0.0547  0.3822 -0.0912
13349W        W32203  16.520   9.425   3.391 -0.1106 -0.1542  0.1849
13350W        W32204   4.307  17.406  14.318  0.2656  0.3687  0.1782
13351W        W32205  16.778   3.850  13.535  0.0205  0.3429  0.0960
13352W        W32206  16.726  13.713   0.228  0.1561  0.1439  0.0819
13353W        W32207  13.814   2.006   1.637 -0.0330 -0.0219 -0.0705
13354W        W32208  12.684  13.504  12.060  0.2114  0.0259  0.2796
13355W        W32209   8.948  13.011  13.528 -0.1287 -0.0313 -0.1906
13356W        W32210  12.572  13.775   1.515 -0.0857 -0.0267 -0.0164
13357W        W32211   7.806   1.621   5.234 -0.3995 -0.0050 -0.0305
13358W        W32212  10.644   7.205   3.761  0.1142 -0.0473  0.1029
13359W        W32213   9.948   8.162   0.544 -0.1515 -0.2253  0.0151
13360W        W32214   4.584   9.006  14.155  0.0155 -0.2029  0.1775
13361W        W32215  17.031  14.070  13.428  0.1540 -0.0308 -0.0498
13362W        W32216  16.959   7.654  13.342 -0.3209 -0.1164  0.1333
13363W        W32217  10.186  16.561  12.833  0.1147 -0.3276 -0.0232
13364W        W32218  17.699  18.558   3.330  0.3079 -0.0776  0.3703
13365W        W32219   4.596  14.053   0.400 -0.0393  0.2808 -0.1474
13366W        W32220  10.543  16.780   2.647 -0.0874  0.0405  0.1005
13367W        W32221   6.573  16.204  14.220  0.0972 -0.0082 -0.3078
13368W        W32222  14.912   0.493  11.443  0.1171 -0.0473  0.2707
13369W        W32223  16.609   4.352   2.715  0.0873  0.0863 -0.0133
13370W        W32224   6.777  16.597  12.095 -0.0359 -0.0729  0.0377
13371W        W32225   7.091   7.643   4.518 -0.2203  0.2158  0.4409
13372W        W32226   9.002   7.562   4.032  0.2492  0.1885  0.0053
13373W        W32227  10.266  11.613   1.631 -0.0450 -0.0704  0.3714
13374W        W32228   5.356   4.460   5.521  0.3566 -0.0239  0.2499
13375W        W32229   2.059   8.012   1.739 -0.1765 -0.1483 -0.0201
13376W        W32230  16.572  16.323  14.822  0.1502 -0.2797  0.1122
13377W        W32231   3.385   2.663  12.450 -0.4068 -0.0193 -0.3183
13378W        W32232  15.372   6.397  13.171 -0.4188  0.0337  0.3704
13379W        W32233   7.088  15.703   1.391  0.3073 -0.3495 -0.0148
13380W        W32234   4.393   5.027  14.505 -0.3772  0.1790  0.0769
13381W        W32235   0.847  14.208  12.222 -0.1049  0.2564 -0.0161
13382W        W32236   9.550   3.220   4.370  0.1136 -0.1145  0.2502
13383W        W32237   8.989  17.086  12.015 -0.3853  0.0620 -0.0157
13384W        W32238   0.097  14.745  12.514  0.1535 -0.0965 -0.0361
13385W        W32239  16.333   9.515  13.303  0.0179  0.1306  0.3603
13386W        W32240   8.596   1.830   1.785 -0.1617  0.0816 -0.0917
13387W        W32241   9.406   0.357  13.624 -0.3311  0.1087  0.1879
13388W        W32242  14.487  13.206   1.606  0.0304 -0.1612 -0.1869
13389W        W32243  17.241   2.669   2.790  0.0197  0.0731 -0.1567
13390W        W32244   7.507   3.420   0.521 -0.0151  0.1594  0.0236
13391W        W32245   3.784  11.288   0.656 -0.0803 -0.0723  0.4093
13392W        W32246   4.435   5.146  11.395  0.1601 -0.0790 -0.0569
13393W        W32247   8.277  17.924  15.043 -0.1343 -0.2180 -0.1772
13394W        W32248  14.023   0.313  13.066  0.0116  0.3348  0.1094
13395W        W32249  18.114   9.220   0.969  0.0946  0.1169  0.1088
13396W        W32250   3.230   3.027  12.909 -0.0108 -0.1730  0.0249
13397W        W32251   5.308   2.549   2.934  0.2548 -0.2748 -0.1584
13398W        W32252  12.625  18.709   0.271 -0.3067  0.2350  0.1298
13399W        W32253  15.862  18.539   2.189  0.0967 -0.0768 -0.2474
13400W        W32254   3.545  14.888   3.959  0.3134 -0.1320  0.1545
13401W        W32255   3.795   7.718  14.939 -0.0459 -0.0002 -0.1548
13402W        W32256  18.026   6.850   1.163 -0.0889 -0.3678  0.0325
13403W        W32257   7.313   9.775  10.436 -0.1525 -0.0080 -0.1242
13404W        W32258  17.260  15.127  11.950  0.2658 -0.0215 -0.0706
13405W        W32259   9.574  15.721   0.546 -0.1384  0.0592  0.0057
13406W        W32260   9.040   5.403   0.053  0.0099  0.2457  0.1943
13407W        W32261   0.457  10.258   3.709  0.0096  0.1931  0.1322
13408W        W32262   6.964   1.502   1.183 -0.1896 -0.0395  0.0028
13409W        W32263  16.880  11.512   1.771 -0.2762  0.0017  0.1986
13410W        W32264  14.797   2.163   3.312 -0.3775 -0.0013 -0.1219
13411W        W32265   1.421   7.318   3.559  0.0359 -0.0534  0.1586
13412W        W32266   4.326   7.592  10.857  0.3685  0.1977 -0.1806
13413W        W32267   8.821   7.623   2.081 -0.1537 -0.2288  0.1341
13414W        W32268  16.576  15.692  13.344  0.1901  0.1025  0.0927
13415W        W32269   9.555  18.594   1.391  0.3445  0.3454  0.1169
13416W        W32270  14.042   7.172  12.918 -0.0610  0.0061 -0.1567
13417W        W32271   8.274   4.046  15.107 -0.0807 -0.0892  0.0506
13418W        W32272   1.352   7.188  11.930  0.0298 -0.2378 -0.2036
13419W        W32273   0.659  10.025  13.535  0.3807 -0.0602  0.1225
13420W        W32274   4.163   9.731  13.040 -0.1180  0.0729 -0.2534
13421W        W32275  15.978   1.011  12.220 -0.1047 -0.2262  0.2689
13422W        W32276   6.237  15.694   3.614  0.1793 -0.6303  0.0866
13423W        W32277   3.211   7.295   1.488  0.1990  0.0793  0.2018
13424W        W32278  13.904  14.191   1.093  0.0795 -0.1282  0.3186
13425W        W32279   6.899   3.050   1.774  0.2649  0.1074  0.0636
13426W        W32280   2.482  17.041   2.223 -0.0707  0.0778  0.2096
13427W        W32281   6.586   7.807   2.730 -0.2093 -0.1567  0.3653
13428W        W32282   5.332  16.196  13.666 -0.2074  0.0919  0.0118
13429W        W32283  15.631  15.145  12.074 -0.0014 -0.0773  0.0637
13430W        W32284  18.770  15.850   0.456 -0.0005 -0.0487  0.5159
13431W        W32285   1.829  11.684  12.861  0.1245 -0.0770  0.1484
13432W        W32286   5.796  17.729   2.123 -0.1112 -0.2129  0.0332
13433W        W32287   1.961   4.339  14.892  0.2513  0.0591 -0.0735
13434W        W32288   0.075   9.718  11.948  0.0321 -0.2235 -0.0025
13435W        W32289  17.484   5.842  12.875  0.3425 -0.0604 -0.1835
13436W        W32290   1.187  10.979   5.014 -0.0038 -0.0504 -0.4601
13437W        W32291   2.202  12.840   3.579  0.0145 -0.2386  0.3319
13438W        W32292  17.384  16.595   4.437 -0.0447  0.0620  0.1578
13439W        W32293  16.757   1.421   4.450  0.2775 -0.3302 -0.4603
13440W        W32294  18.682  14.418   1.206  0.0396  0.0288 -0.3714
13441W        W32295   7.079   7.057  13.893  0.0656 -0.2761 -0.0458
13442W        W32296   6.244   7.727  10.698 -0.0701  0.2718 -0.1320
13443W        W32297   2.448   8.521   5.075 -0.2173 -0.2925 -0.1241
13444W        W32298  10.701  12.870   1.128  0.1710 -0.0771  0.1788
13445W        W32299   9.087   2.245   3.983  0.0505  0.0414  0.2051
13446W        W32300   2.612  16.725  14.078 -0.0015 -0.1488 -0.1415
13447W        W32301  10.329  11.690   0.598 -0.0046  0.1697 -0.0809
13448W        W32302   9.072   2.864   1.641  0.0615  0.1055 -0.1686
13449W        W32303  11.997  12.411   1.891 -0.0005 -0.0512  0.3060
13450W        W32304   6.296   1.852  15.075  0.0585  0.0542 -0.1510
13451W        W32305   2.335  16.653   0.900  0.0495 -0.0134  0.2091
13452W        W32306  10.042  16.797  14.356  0.1624 -0.2313 -0.0008
13453W        W32307   6.130  10.536   0.462  0.0670 -0.2427  0.0541
13454W        W32308  10.165   1.433   1.259  0.3054 -0.0669  0.0703
13455W        W32309  15.278  13.975  12.961  0.0273 -0.1461 -0.5307
13456W        W32310   8.114   7.387   1.320 -0.0461 -0.2366 -0.1872
13457W        W32311  15.515   6.960   0.550 -0.2643 -0.3504 -0.0070
13458W        W32312  11.712   8.417  11.337  0.2521 -0.2375  0.0596
13459W        W32313   9.535   5.711  11.694 -0.1668 -0.1202  0.0501
13460W        W32314  12.662   0.781   1.256 -0.1313  0.0178 -0.1250
13461W        W32315  18.579   4.480  13.336 -0.1130 -0.2169  0.1045
13462W        W32316  11.852  18.855   4.469 -0.1270 -0.0632  0.2025
13463W        W32317   2.832  17.577   2.229 -0.0458 -0.0309  0.2483
13464W        W32318  17.880   2.295  14.208  0.1984  0.0027 -0.0840
13465W        W32319   8.887  17.444  11.675 -0.2338  0.0123  0.0467
13466W        W32320   6.238   7.348  14.164 -0.0207  0.0234 -0.2597
13467W        W32321  11.751   9.605   9.885 -0.3633  0.3032 -0.2134
13468W        W32322  13.730   3.839   2.758 -0.0314  0.3167 -0.0042
13469W        W32323   0.497  13.029  11.345 -0.1296  0.1361 -0.0077
13470W        W32324   6.007  12.666   2.514 -0.1054 -0.2660 -0.2661
13471W        W32325   2.582  16.456  11.826 -0.0300  0.1002 -0.0600
13472W        W32326  13.468  13.418   1.813 -0.1817 -0.0082 -0.1989
13473W        W32327  14.017   9.045   5.518  0.0695  0.0786 -0.1114
13474W        W32328   8.792  17.940  10.331 -0.4653  0.0762 -0.0343
13475W        W32329  12.304   7.918  11.849  0.2229 -0.0889 -0.2645
13476W        W32330  18.241   5.095   3.704  0.0628 -0.0021  0.0801
13477W        W32331  17.376  14.414   3.160  0.0471  0.1769  0.3233
13478W        W32332  15.991   4.892   2.677  0.1092  0.1623  0.4725
13479W        W32333   6.287   5.294  12.355 -0.0137  0.1918  0.0008
13480W        W32334   8.591   0.225  10.878  0.2212 -0.5393  0.0705
13481W        W32335   3.356   1.050  14.846  0.0701 -0.1839  0.0400
13482W        W32336  11.605   4.750  12.454 -0.2078 -0.1321  0.1277
13483W        W32337  16.668  12.921   2.542 -0.2457 -0.0438 -0.0253
13484W        W32338  15.927  15.490  11.737 -0.1042  0.1744  0.1074
13485W        W32339  17.645  17.632  12.256  0.0573 -0.3008 -0.1154
13486W        W32340   7.888   9.445  14.536 -0.2123  0.4496 -0.1893
13487W        W32341   7.971  11.328   3.063  0.0322  0.1480  0.0828
13488W        W32342   8.410   2.501  11.474  0.1318 -0.1045  0.2489
13489W        W32343   9.124   0.639  11.462 -0.0495  0.0462 -0.0890
13490W        W32344  14.924   8.061  12.225  0.1355 -0.0330  0.2557
13491W        W32345   8.375  16.624   2.986 -0.1540 -0.0906 -0.1967
13492W        W32346   2.457  18.841   2.647  0.0337  0.0554 -0.2648
13493W        W32347   0.120  14.035   1.356 -0.0545 -0.2171 -0.0124
13494W        W32348   6.184   5.096  10.217 -0.0319 -0.4020  0.1469
13495W        W32349  15.202   3.133   9.862  0.0971  0.0721  0.0096
13496W        W32350  12.097   6.216   3.543  0.0355  0.0298 -0.0630
13497W        W32351   7.854   7.266   0.491  0.2395  0.3437  0.4336
13498W        W32352   0.301   8.365   1.095  0.2955  0.1443  0.1962
13499W        W32353   7.526   6.025  13.374  0.0332 -0.2330 -0.1950
13500W        W32354   8.168  14.442  13.860 -0.0171 -0.1680 -0.2724
13501W        W32355  15.953   0.331   2.724  0.0320  0.0404  0.0221
13502W        W32356  10.428  15.176   0.965  0.2739  0.0685 -0.0339
13503W        W32357   7.037  15.700   3.958  0.0596  0.2817  0.1094
13504W        W32358  10.304   0.924   1.231  0.0843 -0.0007 -0.0557
13505W        W32359   8.785  14.716   5.360  0.0978 -0.1167 -0.1072
13506W        W32360   8.216  15.793  14.674  0.1067 -0.1956  0.1677
13507W        W32361  18.534   1.880   2.837 -0.2313  0.1701 -0.2613
13508W        W32362  17.045  18.208   2.241 -0.0991 -0.3421 -0.0382
13509W        W32363  14.954   5.061   0.295 -0.3776 -0.0872  0.1301
13510W        W32364   4.025  10.698  10.186 -0.2029 -0.0057  0.0632
13511W        W32365  16.437  17.957   0.658 -0.1176 -0.1015 -0.0298
13512W        W32366  12.604  10.908   5.309 -0.0513 -0.2020 -0.1294
13513W        W32367  16.913   8.169  12.691 -0.0098 -0.1684  0.0785
13514W        W32368   8.307   1.362  12.178  0.2171 -0.0762  0.3226
13515W        W32369  12.145   9.224  11.260 -0.1834 -0.1085  0.3059
13516W        W32370   4.885   5.064   1.822  0.1317 -0.0813 -0.0615
13517W        W32371  18.355   6.400  12.846 -0.1447 -0.0326  0.3136
13518W        W32372  12.923   4.454   1.843  0.1757 -0.3055  0.4055
13519W        W32373  17.655  13.533   4.563 -0.0949 -0.1741  0.2525
13520W        W32374  12.333  13.946   2.611  0.2807  0.0509  0.2239
13521W        W32375   1.674   8.275   9.999  0.0642  0.1487 -0.1464
13522W        W32376  10.220   3.914  13.180  0.0215 -0.1594 -0.0701
13523W        W32377   7.631  13.570   3.418 -0.1937  0.0303  0.1054
13524W        W32378  17.084  11.102  14.411  0.0601 -0.2261 -0.0288
13525W        W32379  18.105   5.418   3.144  0.0739  0.0439  0.0052
13526W        W32380  13.984   7.171  14.215  0.1494  0.0405 -0.0799
13527W        W32381  17.000   2.110   3.845  0.1158  0.1145  0.0442
13528W        W32382   8.235   6.548   3.688  0.1325  0.2088  0.3568
13529W        W32383   4.150   6.764   2.037  0.3207  0.1097  0.0779
13530W        W32384  16.273  17.027  10.361 -0.2820 -0.3840  0.0986
13531W        W32385   9.067   9.252   2.459  0.1507  0.1751 -0.2419
13532W        W32386  17.901   9.611  11.549 -0.2265  0.0622  0.2864
13533W        W32387  13.763   8.898   2.170  0.1805  0.0057  0.2791
13534W        W32388   9.897   8.918  12.783 -0.0413  0.3317 -0.1873
13535W        W32389  16.996   1.279  10.688  0.2621 -0.1159  0.1233
13536W        W32390   4.584  11.826   2.718  0.1055  0.0837 -0.0543
13537W        W32391   4.089   2.484  14.240 -0.4193  0.1676 -0.1248
13538W        W32392   7.429  11.788  12.315  0.2132  0.1279 -0.0568
13539W        W32393   9.418  15.143   1.234 -0.5716  0.1606 -0.0272
13540W        W32394   3.254  14.879   0.563 -0.0061 -0.0817  0.0254
13541W        W32395  12.322   7.295   0.128  0.2121  0.2436  0.3380
13542W        W32396  11.432   7.876  13.740 -0.1152  0.0933 -0.0344
13543W        W32397   5.409   1.298   3.217  0.0740  0.1696 -0.0373
13544W        W32398   9.208  18.793   0.989 -0.1922 -0.0805  0.0734
13545W        W32399  11.544   7.918  12.849  0.3334  0.2826  0.2457
13546W        W32400   1.623   4.330  13.371  0.0292  0.1291 -0.1598
13547W        W32401  12.587  12.580   1.638 -0.2947 -0.0357  0.1964
13548W        W32402  17.174  18.536  14.835 -0.1539 -0.0033  0.1618
13549W        W32403  10.465   5.730   2.948  0.0239 -0.0146 -0.4925
13550W        W32404  11.032  16.814  14.695 -0.2176  0.2121  0.0957
13551W        W32405   3.336   0.487  13.021 -0.0821  0.0319 -0.3113
13552W        W32406  15.818   2.510   3.918 -0.1360  0.1111 -0.0810
13553W        W32407  18.214  17.189  13.164  0.0127 -0.0697 -0.1191
13554W        W32408  15.013  17.602  12.007 -0.2252 -0.2090  0.0665
13555W        W32409   6.044  10.735  13.031 -0.0856  0.0968 -0.1636
13556W        W32410  11.574  14.487  13.922 -0.1584  0.1147  0.0807
13557W        W32411   0.204  16.670   1.965 -0.1541  0.1193 -0.1459
13558W        W32412   7.988  15.696   2.420  0.2284 -0.2322  0.0860
13559W        W32413  11.045   3.008   4.346 -0.1686  0.0410  0.2992
13560W        W32414  15.396  18.771   4.477 -0.2058  0.1424  0.0564
13561W        W32415   1.179  13.372   2.089 -0.3509  0.0990 -0.0544
13562W        W32416  13.877   3.697  11.364 -0.1292 -0.2141 -0.0799
13563W        W32417  10.031  10.960  13.316  0.1917  0.1717  0.2109
13564W        W32418   2.254  10.267   3.273  0.0015 -0.0472  0.3504
13565W        W32419  18.304   6.329  11.896  0.3368 -0.0188  0.1639
13566W        W32420   2.942  15.686  14.545  0.0238  0.0902 -0.0984
13567W        W32421  12.118  18.151  12.106 -0.1292  0.0935 -0.2880
13568W        W32422  11.794  11.020  14.780  0.2389  0.0066 -0.0624
13569W        W32423  10.903  11.056  12.967  0.0351  0.0919  0.0195
13570W        W32424   9.979   3.434   1.681 -0.1023  0.0510  0.2170
13571W        W32425   9.726  12.634  11.732  0.1978  0.0322 -0.1150
13572W        W32426  14.818   8.499   1.656 -0.0954 -0.0805 -0.1463
13573W        W32427   5.477   7.071  12.824  0.3872 -0.2871 -0.1672
13574W        W32428   7.020   9.658   3.846 -0.0034 -0.0358  0.0107
13575W        W32429  14.633  13.148  11.950  0.1331  0.0350  0.1576
13576W        W32430  12.289   7.625   4.914 -0.1001  0.3026 -0.3514
13577W        W32431  10.269  16.998   0.583 -0.0323 -0.0270  0.3099
13578W        W32432   1.234   8.102   4.091 -0.1806  0.0893 -0.1573
13579W        W32433  15.259   5.838  11.685  0.0687 -0.0228 -0.0454
13580W        W32434  15.551   3.724   1.431  0.0099  0.2851  0.0009
13581W        W32435   8.635   9.051  13.211  0.0881  0.0370 -0.1713
13582W        W32436  16.560   3.392  13.487 -0.0959  0.1959  0.1093
13583W        W32437  10.976   8.275  11.200  0.2972  0.4117  0.3450
13584W        W32438   5.194   5.444   4.626  0.0838 -0.4710 -0.1898
13585W        W32439   7.494  18.285  12.692  0.0665  0.4669  0.0470
13586W        W32440   0.642  13.749  13.342 -0.0849 -0.2562  0.0886
13587W        W32441  14.171  16.122   2.239  0.0459  0.0114  0.2286
13588W        W32442   0.267   7.587   2.281  0.0893 -0.1716  0.1123
13589W        W32443   8.271   6.179   2.825  0.2192  0.1279 -0.2192
13590W        W32444   6.103   8.367  13.097  0.1151 -0.0004  0.0318
13591W        W32445   6.430  10.402   2.935  0.1471  0.1159  0.4506
13592W        W32446   7.576   0.314  14.043  0.0044 -0.0001  0.1858
13593W        W32447   7.902   4.043  14.421 -0.1052  0.1197  0.0546
13594W        W32448  16.263   5.873  12.133 -0.0598  0.3362 -0.2811
13595W        W32449  16.736   5.162   2.043  0.1788  0.0543  0.2460
13596W        W32450  18.596  16.830  13.149 -0.1473  0.0935 -0.0537
13597W        W32451  18.795  12.538  12.029 -0.0749  0.0931 -0.0417
13598W        W32452   9.478   8.894  13.024 -0.1089 -0.1476 -0.3545
13599W        W32453   8.780   3.444  12.686 -0.1179  0.0242  0.1347
13600W        W32454   5.764   7.033   4.161  0.1382 -0.1536 -0.0242
13601W        W32455  10.406  13.761   2.714  0.0419  0.1768  0.1079
13602W        W32456   8.261   0.083   1.374  0.0636  0.2152 -0.0994
13603W        W32457  11.927  12.003  13.480  0.2571 -0.5569  0.2439
13604W        W32458   7.138   7.199  11.572  0.0276  0.1294 -0.5318
13605W        W32459  10.084   7.434  10.550  0.0393  0.4168 -0.2098
13606W        W32460  11.668  14.229  11.035  0.0726 -0.2827  0.0983
13607W        W32461   4.390   4.323  14.067  0.0814 -0.3459  0.1558
13608W        W32462   4.194   4.435   4.625 -0.0948 -0.2519 -0.0303
13609W        W32463   3.812   8.429  14.874 -0.2771  0.0157 -0.2677
13610W        W32464  11.286   3.283   4.632  0.2946  0.0460 -0.0830
13611W        W32465   3.632   5.850   0.451  0.0717 -0.1402 -0.1420
13612W        W32466  17.928  13.215  12.710 -0.3118  0.0735 -0.0644
13613W        W32467   9.563   8.836  11.208  0.0564 -0.3683  0.1322
13614W        W32468  10.558   3.789  11.463 -0.2546 -0.0570  0.4491
13615W        W32469   0.323  12.641  14.283  0.2349  0.0389  0.0497
13616W        W32470   8.524   8.479  13.202  0.1222  0.4638 -0.0572
13617W        W32471   1.815  15.078  13.602 -0.0526 -0.1506  0.0387
13618W        W32472   7.769  16.422   1.156  0.0105  0.0164  0.1148
13619W        W32473  12.350   4.572  13.506  0.0591  0.2685  0.4002
13620W        W32474   8.300  14.120   1.668 -0.1954 -0.0549  0.0562
13621W        W32475   5.509   5.401  11.007 -0.0546 -0.1650  0.1870
13622W        W32476  13.039   1.173   0.473 -0.0802  0.0835 -0.4161
13623W        W32477  10.363  12.414   0.031  0.3395 -0.2827  0.1788
13624W        W32478  12.214  12.844   1.875  0.0716 -0.0100 -0.3815
13625W        W32479   6.163  14.529  14.247  0.0363 -0.0045 -0.1418
13626W        W32480   6.584   2.592  11.489  0.1034  0.0071  0.0975
13627W        W32481   4.003   3.928  15.048  0.3095  0.0084 -0.0313
13628W        W32482  16.154  11.201   2.925  0.0422  0.1389 -0.2122
13629W        W32483   6.935  17.508   2.760 -0.4449  0.0002  0.1437
13630W        W32484   3.042   0.178  14.618  0.0889  0.1362 -0.0303
13631W        W32485   5.136   9.168   3.382 -0.0983 -0.2183 -0.0233
13632W        W32486   1.165  10.572  11.256  0.0887 -0.2169 -0.0656
13633W        W32487  12.935  14.625  14.875 -0.4589 -0.0732 -0.0648
13634W        W32488   9.887   3.642   3.528 -0.1759  0.1444  0.0652
13635W        W32489   5.378   9.783  10.851  0.1749  0.0493  0.2251
13636W        W32490  11.229  16.830  12.674  0.0709  0.0878 -0.1415
13637W        W32491  15.963  14.462   1.102 -0.1248 -0.2464 -0.3155
13638W        W32492  10.798   7.538  12.404  0.0602  0.0770 -0.0788
13639W        W32493  10.088   9.139   2.401 -0.1284 -0.1192  0.1065
13640W        W32494  18.848  12.013   1.960 -0.0500 -0.1984  0.4509
13641W        W32495  17.815   5.581   1.822  0.2310  0.0773  0.0066
13642W        W32496  17.424  12.463  11.365  0.1533  0.2380 -0.0208
13643W        W32497  14.799   6.846  15.057 -0.0622 -0.1363 -0.0928
13644W        W32498  10.128   6.045  10.737  0.0855 -0.0767  0.1548
13645W        W32499   4.652  14.117  10.344  0.0112 -0.1208 -0.1658
13646W        W32500   3.059  17.676   5.208  0.3501 -0.1178 -0.1450
13647W        W32501   4.855   6.303   1.236  0.0573 -0.0636  0.1883
13648W        W32502  11.012  16.433   4.495  0.1137  0.1573 -0.0141
13649W        W32503  14.119  14.821   4.340  0.0154  0.1920 -0.0914
13650W        W32504  10.427   6.002  11.154  0.0890  0.2286  0.0177
13651W        W32505   5.758   3.917   3.948 -0.0525 -0.1703  0.1513
13652W        W32506   9.061  11.971   0.462 -0.3455  0.0830  0.0492
13653W        W32507   1.195  12.161   0.891  0.2196 -0.0385  0.0827
13654W        W32508  18.287  10.101   0.037  0.0008  0.2130  0.0746
13655W        W32509   8.168   2.236   1.692 -0.0443  0.3819 -0.1126
13656W        W32510  18.393  14.431   3.164 -0.1034  0.4708  0.1424
13657W        W32511  11.642   1.384  12.469 -0.4162  0.2129 -0.0239
13658W        W32512  16.153   3.919  14.813 -0.0211  0.0695  0.1293
13659W        W32513   6.165  11.942   1.353  0.3845  0.0023  0.0075
13660W        W32514  15.274   7.067   0.156 -0.0389  0.1892  0.1527
13661W        W32515   1.858   8.472   3.322 -0.1993 -0.1322 -0.0092
13662W        W32516   1.696   2.087  14.076 -0.0015 -0.0054 -0.1201
13663W        W32517   0.077   3.250   1.188  0.2381  0.0845  0.1734
13664W        W32518  10.062  10.232  14.858 -0.2411 -0.0916  0.0775
13665W        W32519   4.385  13.162   3.956 -0.3158 -0.2069  0.0969
13666W        W32520  11.628  13.512  12.842 -0.0057 -0.1457 -0.1138
13667W        W32521  12.460  11.362  11.643 -0.1070  0.1043  0.2454
13668W        W32522   4.726   1.445  11.772 -0.1593 -0.1497  0.3551
13669W        W32523  16.767  17.763  11.989  0.0866 -0.0144  0.1716
13670W        W32524   8.543   1.519   2.181 -0.0203  0.0080  0.1595
13671W        W32525  10.270   9.245  14.821  0.1179 -0.0144 -0.1222
13672W        W32526   3.159   0.532  11.635 -0.1802 -0.0992 -0.0027
13673W        W32527   7.755  16.477  13.998  0.3421  0.0685  0.0613
13674W        W32528   3.322   9.291  13.366  0.1252 -0.0096  0.0907
13675W        W32529   7.444  10.290   0.549  0.0350  0.0829  0.0561
13676W        W32530  17.597   2.038  12.533  0.3926  0.1356 -0.0432
13677W        W32531  14.836   2.198  12.778  0.5746  0.1887  0.5009
13678W        W32532  12.283  10.436  12.679  0.3652  0.0718 -0.3029
13679W        W32533   6.138  14.589   3.515  0.3356 -0.0116 -0.3486
13680W        W32534   6.075   3.662   2.437 -0.2186  0.2257  0.3871
13681W        W32535  10.469   7.253   2.747 -0.1701 -0.0780  0.2529
13682W        W32536   8.046   5.732   2.294  0.1929 -0.0455  0.1397
13683W        W32537  16.605   9.104   2.916  0.2267 -0.3430 -0.1959
13684W        W32538   6.742   6.098  11.275 -0.0214 -0.0121 -0.0892
13685W        W32539   3.247   1.174  12.113 -0.1862 -0.1341  0.0761
13686W        W32540  10.184   5.805  14.564 -0.3373  0.2620  0.2117
13687W        W32541  10.109   7.120  12.073  0.3091 -0.0821  0.0943
13688W        W32542  12.849  12.476   4.790  0.1001  0.1366  0.1669
13689W        W32543   7.072  10.766  10.759 -0.0385 -0.1381  0.0590
13690W        W32544  12.370   3.955  13.267 -0.1878 -0.2517 -0.1171
13691W        W32545  15.644   8.850  14.766  0.0868  0.2981  0.1633
13692W        W32546   3.728  16.457  10.440  0.1629  0.0965 -0.3296
13693W        W32547   6.796  15.952  14.985  0.1030 -0.1273  0.3000
13694W        W32548   3.760   3.919  11.326  0.0822  0.3687  0.0302
13695W        W32549  18.769   9.281   2.004  0.0301 -0.0201  0.0539
13696W        W32550  15.725   8.985   2.573  0.1117  0.1645 -0.1134
13697W        W32551  13.499   8.979   4.328  0.0577  0.1410 -0.0934
13698W        W32552   6.173   9.154  10.517 -0.0525  0.1551 -0.0939
13699W        W32553   8.396  16.307   3.372  0.0212  0.2486 -0.1914
13700W        W32554  15.755   3.029  13.339  0.2879  0.1874  0.2415
13701W        W32555  13.772   0.313   2.627  0.1557  0.1890 -0.1076
13702W        W32556   8.818   6.510   4.694  0.1282 -0.0508  0.1046
13703W        W32557   1.089  11.102  13.139 -0.0850 -0.0846  0.0334
13704W        W32558   0.001   3.879  14.489  0.0244 -0.1724 -0.4995
13705W        W32559   1.556   2.470   1.346  0.0798  0.1917 -0.2259
13706W        W32560  14.107   3.475   0.876  0.0534 -0.1768 -0.0439
13707W        W32561  11.356   2.211  11.692  0.1611 -0.4287  0.0841
13708W        W32562   4.077   2.292  11.169 -0.1193  0.4333  0.2950
13709W        W32563  17.872   8.989   1.918  0.0760  0.1884 -0.1433
13710W        W32564   2.441  18.196  10.728  0.2603  0.0219  0.0946
13711W        W32565   4.275   7.049  12.225 -0.1532  0.2042  0.2381
13712W        W32566  18.314  16.997  12.565 -0.4762  0.1117  0.2037
13713W        W32567   8.009  12.593   3.669 -0.1413 -0.0262  0.0267
13714W        W32568   9.839  14.945  14.883 -0.0927  0.1105  0.0505
13715W        W32569   3.934  15.028  13.733 -0.2374  0.0772  0.1247
13716W        W32570  10.245  13.567   4.597 -0.0067  0.0572  0.0371
13717W        W32571  16.439   3.918   4.257  0.1251  0.0227  0.1201
13718W        W32572  11.837  14.493  13.101 -0.2725 -0.0429  0.2686
13719W        W32573   1.911  14.083   2.759  0.0210 -0.0565  0.1768
13720W        W32574   9.117  10.726   2.694 -0.1772  0.1930  0.0555
13721W        W32575   9.102  18.614  12.010  0.1436 -0.3368  0.0761
13722W        W32576   3.476   4.724   1.427 -0.2991  0.1035  0.0686
13723W        W32577  14.805   6.042  11.632  0.1645 -0.1366 -0.1457
13724W        W32578   9.996  15.242  11.824  0.0976  0.2274  0.2044
13725W        W32579  11.427   7.133  14.889  0.2435 -0.2521  0.0126
13726W        W32580   3.544   5.190  14.362 -0.2020  0.0270 -0.0066
13727W        W32581  15.809   8.547   4.553 -0.0866 -0.1388 -0.1297
13728W        W32582  12.481   4.936  11.373 -0.1381 -0.3339  0.2716
13729W        W32583   6.858   5.382  13.635 -0.0351  0.3033 -0.0501
13730W        W32584  15.937   7.575   1.607 -0.0445 -0.0060  0.0923
13731W        W32585   7.929   0.660  12.041 -0.3055 -0.2203 -0.1857
13732W        W32586   4.141  12.898   0.472 -0.1692  0.0320  0.0158
13733W        W32587  17.912   1.685  12.788 -0.0874  0.1632 -0.2589
13734W        W32588   8.357  16.833   4.524  0.1445 -0.1097  0.0861
13735W        W32589   6.427  12.302   1.613  0.1382  0.1611 -0.1750
13736W        W32590   1.692  11.479  10.684  0.1872 -0.3836  0.0040
13737W        W32591  16.846   9.952   2.632 -0.0567 -0.1651  0.1391
13738W        W32592   2.814   4.528   0.580 -0.0474 -0.2481 -0.0057
13739W        W32593   8.104   0.271   1.856 -0.1650 -0.2259 -0.2703
13740W        W32594   7.916  15.378   3.469  0.3789  0.1262  0.2716
13741W        W32595   3.156  16.063  11.168  0.0102 -0.2270  0.2156
13742W        W32596  13.897  17.894   0.392  0.2753 -0.0568  0.2199
13743W        W32597   7.800  10.932  12.500 -0.0586 -0.0002 -0.5306
13744W        W32598   4.138   4.126   3.401  0.1187 -0.3440 -0.4964
13745W        W32599   8.587   2.184   4.787  0.1759 -0.3161 -0.0343
13746W        W32600   1.017  14.259  11.117  0.3386 -0.3036 -0.0209
13747W        W32601   3.810   9.578  12.642  0.0450  0.2382  0.2779
13748W        W32602  16.399   3.763   2.070  0.1628  0.2228  0.0243
13749W        W32603   5.046  18.193  13.141  0.1020  0.2055 -0.3927
13750W        W32604  18.438  16.882   3.714 -0.1480 -0.2866  0.3179
13751W        W32605   2.779  14.782  11.408 -0.1549 -0.0286 -0.1594
13752W        W32606   8.203   3.357  14.328  0.1920  0.0808 -0.1847
13753W        W32607  11.051  18.008   1.580  0.1394  0.0290  0.1170
13754W        W32608  17.392   3.088  11.276 -0.2864  0.2170 -0.1164
13755W        W32609   8.983   3.555   3.311 -0.0835  0.0019 -0.2171
13756W        W32610  17.060  14.890  14.029 -0.2445  0.1965 -0.3201
13757W        W32611  15.614  11.434   3.807  0.2258 -0.0399  0.1145
13758W        W32612  17.630   2.412  10.850  0.1021  0.1128  0.1677
13759W        W32613   0.782  11.902  14.200  0.0376  0.5857  0.1485
13760W        W32614  17.690  10.140   3.360  0.2711  0.1178  0.2447
13761W        W32615   9.638  15.349   2.533 -0.2158  0.2578 -0.1518
13762W        W32616  10.420   6.876   2.370 -0.2468 -0.0458 -0.1025
13763W        W32617  10.925   0.114   3.563 -0.1128  0.2031  0.1214
13764W        W32618  10.702   2.933   2.276 -0.2587  0.0195 -0.0103
13765W        W32619  16.332  11.278  13.940 -0.0495  0.2529  0.3030
13766W        W32620   6.589  16.246   2.026  0.2328  0.2838 -0.0046
13767W        W32621   0.355   2.501  14.364 -0.1167 -0.2664  0.1879
13768W        W32622   9.426   5.205  10.792 -0.1619 -0.0227  0.0179
13769W        W32623   9.067  13.797  12.278  0.1403  0.1630  0.2320
13770W        W32624  11.927   8.067  12.332 -0.2513 -0.0413  0.0531
13771W        W32625   9.787  15.412   2.034 -0.1672 -0.0632  0.3036
13772W        W32626   9.599  10.356  12.769 -0.1376 -0.1940  0.0937
13773W        W32627   2.470   9.317  11.702  0.0190  0.0724  0.0785
13774W        W32628   3.110  10.579  12.747  0.2822 -0.0616 -0.1503
13775W        W32629   3.908  15.791   3.910  0.0577  0.1802  0.1439
13776W        W32630  16.749  18.800   2.329 -0.1511 -0.0172 -0.0625
13777W        W32631   1.574   8.971   0.545  0.0710  0.1581 -0.2246
13778W        W32632  16.174  16.013  11.816  0.1037  0.4059  0.0492
13779W        W32633   4.780   9.794   2.616 -0.1766 -0.0789  0.0970
13780W        W32634   2.792  17.780   1.026 -0.1429  0.0631  0.2657
13781W        W32635   2.005  16.705  14.351 -0.2994 -0.0098  0.2089
13782W        W32636  10.043  14.409   3.072 -0.3648 -0.1801 -0.2237
13783W        W32637   9.817   8.893   1.131  0.4990 -0.1657  0.0057
13784W        W32638   4.975  15.271   4.208  0.3314  0.2616  0.0996
13785W        W32639  13.959  14.325  13.292  0.2346  0.4178  0.1800
13786W        W32640  18.377  13.393  12.476  0.0361 -0.2084  0.0039
13787W        W32641   4.865   5.846   4.387  0.2882 -0.2754 -0.2415
13788W        W32642  10.763  15.976   5.236  0.0878 -0.2165 -0.0496
13789W        W32643   3.033  10.051  10.819 -0.0795  0.0018  0.0437
13790W        W32644  12.451  16.277   1.032  0.0944  0.0352  0.0862
13791W        W32645  10.075  16.917  13.138  0.3156  0.0385 -0.1101
13792W        W32646   3.077   1.374   3.689 -0.0135  0.1788 -0.1633
13793W        W32647   5.881   0.073  13.608  0.2965 -0.1044  0.2163
13794W        W32648  16.626  15.567   4.094 -0.0627  0.1343  0.2818
13795W        W32649   3.819   7.569  13.381  0.2346  0.0266  0.1761
13796W        W32650   1.120   4.713  12.564  0.0989 -0.1584 -0.1756
13797W        W32651   1.467   7.547  14.838 -0.0521 -0.1096  0.0576
13798W        W32652   3.055  11.147   1.038  0.3314  0.2492 -0.0238
13799W        W32653  10.255  11.619   3.742  0.0538  0.1594  0.3479
13800W        W32654  15.975   4.577   0.008 -0.0087  0.0834  0.0632
13801W        W32655   6.838   9.909  12.294 -0.3344 -0.2972  0.0549
13802W        W32656   8.674  13.197   0.497  0.0260  0.1039 -0.0000
13803W        W32657  13.711   0.062  14.637 -0.0125  0.0104 -0.1557
13804W        W32658   6.614   8.977   3.135  0.1950 -0.0010 -0.1000
13805W        W32659   7.608   7.169   1.567  0.0967  0.0494 -0.0835
13806W        W32660   6.692   1.738  10.810  0.0689  0.3438 -0.1230
13807W        W32661  17.059   5.626  10.156  0.2685 -0.0573 -0.1160
13808W        W32662   4.943   5.196  13.990 -0.2911 -0.2102 -0.1158
13809W        W32663  13.208  14.491   1.729 -0.1253  0.1511 -0.1347
13810W        W32664  14.404   8.653   5.532 -0.1664 -0.2446  0.1443
13811W        W32665   9.822   0.675   1.823  0.3254  0.0003 -0.0243
13812W        W32666   5.602   1.949  12.272 -0.2318 -0.2308  0.1695
13813W        W32667   7.947  13.503   3.848 -0.0271  0.1224 -0.0669
13814W        W32668   3.470  15.699   0.544 -0.2459  0.2358  0.0178
13815W        W32669   5.188   0.142  12.687 -0.1745 -0.1178  0.2086
13816W        W32670  11.482  12.507  14.389 -0.2783 -0.1638  0.4250
13817W        W32671  12.525   8.600  13.625 -0.0105 -0.0352  0.1502
13818W        W32672  16.351  15.492   1.906  0.2433  0.0947 -0.1750
13819W        W32673   1.412  16.829  13.631 -0.0326 -0.0140  0.1790
13820W        W32674  12.870   2.308  11.685  0.1225  0.1133  0.0295
13821W        W32675  14.802  13.861  14.261  0.1538 -0.2054  0.2047
13822W        W32676  17.879   7.200  11.945 -0.1139  0.3014 -0.0430
13823W        W32677   9.426   3.538   3.683  0.0167  0.1055 -0.0749
13824W        W32678  11.796   9.751   0.091 -0.0530  0.1519  0.0568
13825W        W32679   4.689   8.347   0.505  0.1889 -0.0514  0.0520
13826W        W32680  11.098   7.652   1.411 -0.1571  0.0937 -0.1088
13827W        W32681   4.344  14.442   1.612 -0.0666 -0.0891  0.1499
13828W        W32682   4.601  16.291   2.479 -0.2779 -0.0647  0.0736
13829W        W32683   1.713  11.282   3.217 -0.1602 -0.0261 -0.4076
13830W        W32684  10.533  18.636  10.957 -0.1367 -0.0825 -0.2397
13831W        W32685   1.867   8.272  14.583  0.0608  0.1751  0.1341
13832W        W32686  12.871  11.952   4.795 -0.1622 -0.0386 -0.0372
13833W        W32687   2.031   6.756   4.783 -0.2662 -0.2421  0.0028
13834W        W32688  17.341   5.852  14.949  0.0653  0.2739 -0.1903
13835W        W32689   8.838   8.968  10.949  0.1246  0.0284 -0.1141
13836W        W32690  14.828  11.143  10.911  0.2015 -0.1514 -0.0530
13837W        W32691  17.408  16.888  12.593  0.0053 -0.1156 -0.1161
13838W        W32692   3.114  16.524  13.396 -0.5042 -0.2946 -0.1283
13839W        W32693  12.499   9.203  13.727 -0.3520 -0.0772 -0.2913
13840W        W32694  14.796   9.617  10.473 -0.0025 -0.0429  0.1534
13841W        W32695  13.094  17.648   3.071 -0.1033 -0.1480 -0.0522
13842W        W32696   4.832   8.596  12.559 -0.0244  0.3336  0.0835
13843W        W32697   7.280  16.948  10.564  0.2220  0.2531  0.0918
13844W        W32698  18.325  14.820  13.426  0.0484 -0.0369  0.0036
13845W        W32699   2.997   2.414  14.746  0.0140  0.0327 -0.2591
13846W        W32700  15.094   8.690  14.599 -0.0782  0.3550  0.1117
13847W        W32701  17.559   7.700   2.000  0.1371  0.0932 -0.0507
13848W        W32702  18.304  16.149   1.082 -0.0835  0.3602  0.4261
13849W        W32703   4.251   2.691   0.012  0.1399 -0.1087 -0.2180
13850W        W32704  10.394   6.787  14.781  0.4061  0.0566 -0.1989
13851W        W32705   7.880  14.995  11.344 -0.1178 -0.2586  0.0044
13852W        W32706  14.639   6.134   4.094  0.1414  0.1868  0.2202
13853W        W32707   6.885  13.592   0.639  0.0452  0.2440 -0.2687
13854W        W32708  12.304   7.907  12.791  0.0087 -0.2418  0.0331
13855W        W32709   5.842   5.874  11.661 -0.0252 -0.0822  0.3656
13856W        W32710  11.401  12.184  11.895  0.1258  0.0106  0.0277
13857W        W32711   1.470  18.218   1.390 -0.2313  0.0166 -0.0582
13858W        W32712  10.191  12.683   3.844 -0.0498 -0.1361 -0.1953
13859W        W32713  13.792  16.841  13.793  0.0533 -0.0497 -0.1632
13860W        W32714   5.791   1.167  14.041 -0.1156  0.0427  0.3081
13861W        W32715  10.201   6.291  12.793  0.3086 -0.1976 -0.1713
13862W        W32716  11.577  11.790  12.691  0.2273 -0.0474  0.1479
13863W        W32717   7.688   5.729  14.775 -0.4517  0.1074 -0.1534
13864W        W32718   4.373   5.814   1.184 -0.2540  0.1853  0.1082
13865W        W32719   6.468   0.563   3.706  0.2626 -0.1517  0.1241
13866W        W32720  18.444  16.212  12.101  0.1844  0.0484  0.2289
13867W        W32721  15.132  14.896   3.899  0.3263 -0.0457  0.3013
13868W        W32722   3.893  11.822  10.780 -0.0861 -0.1231  0.0521
13869W        W32723   9.506  15.066  14.036  0.0286 -0.1925  0.3696
13870W        W32724  11.686   7.433   4.400 -0.2317 -0.2651  0.0138
13871W        W32725  11.271  10.862   2.951  0.0651  0.0459  0.0711
13872W        W32726   8.470   3.654   4.001  0.0121  0.2502 -0.1373
13873W        W32727   8.062  12.369  12.183 -0.0990  0.0184 -0.0824
13874W        W32728  17.633   9.470  13.821 -0.3990  0.0389 -0.1170
13875W        W32729  18.022   1.691  11.297  0.1013  0.1675  0.2578
13876W        W32730  18.742   6.896  12.750  0.0966  0.3301 -0.0073
13877W        W32731  13.617  12.695   0.049 -0.1282 -0.0776  0.1494
13878W        W32732   2.927   6.830  11.615 -0.1555 -0.0798 -0.1208
13879W        W32733   1.046   2.442  12.641  0.3430 -0.2094  0.1454
13880W        W32734  13.852  17.735  15.042  0.3596  0.2880 -0.0656
13881W        W32735   9.385   9.782   2.557 -0.3765  0.1855  0.0884
13882W        W32736   1.034  11.082   4.023  0.1114 -0.1970 -0.2586
13883W        W32737   1.472  16.472   3.965  0.4025  0.0301  0.3532
13884W        W32738   5.963  16.379   2.835 -0.0257 -0.0146 -0.1603
13885W        W32739  11.227  15.724   1.043 -0.0685 -0.2841  0.1527
13886W        W32740   0.053   2.940  10.411  0.0933 -0.1789  0.4475
13887W        W32741  16.485   3.827  13.115 -0.2217  0.2790 -0.0793
13888W        W32742   2.514   7.036  11.943  0.0303 -0.0186  0.1811
13889W        W32743   0.729   3.125  11.228 -0.1109 -0.1654  0.1837
13890W        W32744  10.179  13.444   2.296  0.0606 -0.3077 -0.0104
13891W        W32745   2.152  14.563  12.695  0.1912 -0.2181  0.1068
13892W        W32746  17.306   7.796   0.274  0.1352  0.0635  0.1794
13893W        W32747   0.160  16.697   4.261 -0.2535 -0.2612  0.0744
13894W        W32748  16.483  13.228  13.028 -0.1356 -0.2728  0.0124
13895W        W32749  14.441  12.331  13.924 -0.0243 -0.0458  0.0218
13896W        W32750  14.097   8.817  13.360 -0.1541  0.1354  0.0821
13897W        W32751  10.548  10.210  15.056 -0.0431 -0.0933 -0.0639
13898W        W32752   2.760   7.804  14.139 -0.0060 -0.1285  0.3402
13899W        W32753  13.565   5.628   2.464  0.1920  0.0797 -0.1280
13900W        W32754  14.810   6.222  13.847 -0.0001  0.3340 -0.0369
13901W        W32755  17.801  15.892   1.130 -0.2270  0.1960  0.3500
13902W        W32756  15.131  12.805  14.646  0.1765 -0.0696  0.0466
13903W        W32757  16.478  14.145   5.427  0.1726 -0.1982 -0.0438
13904W        W32758  11.999  12.553  13.648  0.0236  0.3045 -0.0778
13905W        W32759   8.149  15.250  10.648  0.2778 -0.0721 -0.1246
13906W        W32760  13.290  13.212  10.945 -0.3319  0.1121  0.0481
13907W        W32761  17.933  14.260   2.996 -0.2662  0.0823 -0.1947
13908W        W32762   0.962  12.086   2.421  0.0086  0.2934  0.0201
13909W        W32763  14.195   4.530  11.100 -0.0940 -0.1125  0.2061
13910W        W32764  16.908  15.238  12.230  0.1279 -0.1290 -0.2093
13911W        W32765  16.893   8.461  13.934  0.0087 -0.2269 -0.2656
13912W        W32766   4.620  11.401  10.454 -0.1650 -0.1949  0.1387
13913W        W32767   1.598   4.961   3.959 -0.0481  0.0118 -0.0130
13914W        W32768  14.317   3.465  11.129  0.1066 -0.0256 -0.0147
13915W        W32769  11.252  18.094  12.538  0.1149 -0.0565 -0.1532
13916W        W32770  18.013   6.518  11.280  0.0128  0.0439 -0.0009
13917W        W32771   9.674   5.648  13.670  0.2082 -0.0289 -0.0062
13918W        W32772   7.849   1.416   3.328 -0.2729 -0.3177 -0.1278
13919W        W32773  15.687  12.632   2.447  0.0230  0.1173 -0.1445
13920W        W32774   1.398   4.601  10.536 -0.1408 -0.3472  0.1754
13921W        W32775  11.576   9.893  13.613 -0.1165  0.0050 -0.0594
13922W        W32776   6.015  15.907   1.153 -0.0905 -0.1652  0.0567
13923W        W32777   0.792  10.157  14.514 -0.2705  0.0172 -0.3349
13924W        W32778  12.755  14.014  13.760  0.0368 -0.0010  0.0794
13925W        W32779  14.923  10.908   1.777 -0.0134 -0.0233  0.0400
13926W        W32780   3.158   7.091   4.176 -0.2565 -0.0587  0.0565
13927W        W32781   7.739   1.809   2.453 -0.2666 -0.0553  0.1113
13928W        W32782   8.258  18.059   3.551  0.1058  0.0960  0.0156
13929W        W32783  13.490  18.400   3.572 -0.0258  0.2006 -0.1789
13930W        W32784   8.387  10.591   3.113 -0.2143 -0.0005  0.1662
13931W        W32785   0.711   1.994   1.805  0.1090 -0.3914  0.0451
13932W        W32786  14.315   5.445   1.072  0.1134  0.2716  0.0164
13933W        W32787  16.923  15.273  12.730 -0.0949 -0.1701  0.1272
13934W        W32788   2.870   0.845  11.993  0.2435  0.1713  0.2063
13935W        W32789   3.635   3.182   4.523  0.1607  0.0127 -0.0941
13936W        W32790   7.239   6.245   3.482 -0.0311 -0.2551 -0.0938
13937W        W32791   1.500  12.012   3.662  0.2499  0.0836 -0.1115
13938W        W32792  12.643   0.638  12.749 -0.1310  0.2078 -0.3514
13939W        W32793   3.914   8.523  11.101  0.1699  0.1199 -0.1022
13940W        W32794   0.632  14.115   4.140 -0.0888 -0.1371 -0.4813
13941W        W32795   5.089   4.363   0.444 -0.0016 -0.0298 -0.1095
13942W        W32796   7.940  11.568  13.946 -0.0935 -0.0279 -0.1362
13943W        W32797   7.700   3.797  14.028 -0.0984  0.1702  0.1400
13944W        W32798   0.029  18.419   1.406  0.2286  0.1623 -0.1515
13945W        W32799   8.948  16.283  12.572 -0.1313 -0.0303  0.0465
13946W        W32800   3.454   4.508   2.026 -0.0772  0.0881  0.1579
13947W        W32801   8.865  13.868   0.874 -0.0151  0.1724  0.5947
13948W        W32802   0.223   2.714  13.371 -0.2489 -0.2661 -0.3042
13949W        W32803  15.143   2.156  11.361 -0.0419  0.0610 -0.0878
13950W        W32804  15.888  15.423   2.689 -0.0377 -0.2932 -0.1182
13951W        W32805   5.081   2.501   0.244 -0.0454 -0.0209 -0.0650
13952W        W32806   6.367   3.015  14.023  0.0659  0.1493 -0.1142
13953W        W32807  18.353   4.146   2.474  0.0239 -0.0809  0.1791
13954W        W32808   2.463   0.736  13.468 -0.2323 -0.2276 -0.1478
13955W        W32809  12.977   4.156   4.528 -0.1847 -0.1026 -0.0669
13956W        W32810  18.094  15.134   0.099 -0.0885 -0.2074 -0.0630
13957W        W32811  18.423  13.425  11.567  0.0477  0.2962  0.2007
13958W        W32812  13.120  12.642   1.337  0.1211 -0.2153 -0.1645
13959W        W32813   1.362   6.731  11.604 -0.2887 -0.0081  0.0305
13960W        W32814  15.023  12.199  13.866 -0.0836 -0.1516 -0.0547
13961W        W32815   1.066   3.295  13.120 -0.0544  0.0087 -0.0884
13962W        W32816   8.365   2.563  12.455  0.1799  0.0725 -0.0013
13963W        W32817  16.445   3.861   3.060  0.1091  0.0434 -0.2575
13964W        W32818   5.596   1.167   1.471  0.0436 -0.0637  0.2177
13965W        W32819  17.766  17.382  12.652 -0.1517 -0.1489 -0.2080
13966W        W32820  13.727   9.474   2.515 -0.2847 -0.1449  0.2322
13967W        W32821   0.087   0.464  12.612  0.0470  0.1197 -0.0018
13968W        W32822  17.874   8.383   4.344 -0.1380  0.0950 -0.2405
13969W        W32823   1.696   0.509  14.665  0.4516  0.0518  0.1087
13970W        W32824   9.650   3.806   2.513 -0.3471  0.0137 -0.0101
13971W        W32825  10.375   5.846   3.912  0.1243 -0.1789 -0.1646
13972W        W32826   5.110  11.496  14.439 -0.3060  0.0920 -0.2466
13973W        W32827   7.019   7.688   1.308 -0.0072  0.0425 -0.2495
13974W        W32828  13.508   4.887   1.499 -0.0818 -0.0545  0.1896
13975W        W32829   7.783  12.338  11.750 -0.0142 -0.0339 -0.2920
13976W        W32830   6.503   6.253   2.059 -0.1853  0.1047 -0.2262
13977W        W32831  17.259   9.369   4.944 -0.0123 -0.1439 -0.0244
13978W        W32832   0.179   1.281  14.094 -0.1096  0.0027 -0.0893
13979W        W32833  16.743  13.542   0.786 -0.2750 -0.1613 -0.1000
13980W        W32834  12.805   3.484   2.530 -0.2236  0.3890  0.1336
13981W        W32835   8.148  17.866  11.460  0.0086  0.0761 -0.0308
13982W        W32836   0.166   0.939  12.165 -0.0995 -0.0542  0.2910
13983W        W32837  16.824  13.700  13.134  0.1533  0.1109  0.1664
13984W        W32838   5.600  18.423  11.244 -0.0877 -0.1570  0.0432
13985W        W32839  15.543   7.303  11.895 -0.2387  0.1048 -0.0626
13986W        W32840   6.986  14.565  13.728  0.0927  0.1708  0.0512
13987W        W32841   2.437  14.506  13.898  0.1053 -0.2504 -0.1288
13988W        W32842   3.794  17.323  12.067 -0.0256 -0.7536  0.3468
13989W        W32843  16.021  14.264  10.807 -0.0715  0.0269  0.0659
13990W        W32844  12.093  17.381  11.738 -0.1255  0.3214  0.1194
13991W        W32845   4.095  18.266   4.434  0.1596  0.2029 -0.0802
13992W        W32846   7.673  12.418   1.290 -0.0562  0.2345 -0.3701
13993W        W32847  11.643  10.900   0.937 -0.2415 -0.1188 -0.1409
13994W        W32848   2.206   3.415   1.183 -0.0102  0.0485  0.0742
13995W        W32849  11.750   5.879   3.431  0.0336  0.0508  0.3696
13996W        W32850  17.214   1.846  14.689 -0.4533  0.3002  0.0690
13997W        W32851   6.244  14.926  14.832 -0.0189  0.0751  0.1038
13998W        W32852   5.668  13.240   3.144 -0.1647  0.1232  0.0686
13999W        W32853   4.735   1.483   3.291 -0.1452  0.2377 -0.1358
14000W        W32854  10.762  17.413   2.124 -0.1633  0.2513  0.1873
14001W        W32855  10.610  16.646   1.736  0.2252  0.0901  0.1306
14002W        W32856  16.048   9.549   3.718 -0.0802 -0.0758 -0.2025
14003W        W32857  14.774  11.811   1.462 -0.1217  0.4402  0.0310
14004W        W32858   9.677   4.283  14.319  0.0718  0.2174  0.0244
14005W        W32859   0.975   9.116   1.219 -0.1681  0.1932 -0.2009
14006W        W32860  10.186  13.609   1.667 -0.1646  0.0697 -0.0016
14007W        W32861  14.744   7.784  13.547 -0.1216  0.2282 -0.0339
14008W        W32862  15.174  10.151   1.313  0.0324  0.1888 -0.2164
14009W        W32863  18.822   3.509  13.240  0.1551 -0.0325 -0.2499
14010W        W32864  10.552   4.006  12.865  0.2666  0.4125  0.4521
14011W        W32865   8.443   1.670   0.295  0.0605  0.0679 -0.0031
14012W        W32866   5.491  18.686  14.997  0.0054 -0.4340  0.2455
14013W        W32867   0.704  12.552  15.002  0.2775 -0.0265 -0.0003
14014W        W32868   6.403   9.422  13.944  0.1980 -0.0458  0.1267
14015W        W32869   0.320   8.084   0.657  0.2047 -0.1975 -0.2476
14016W        W32870   9.294  18.566   2.562  0.2435  0.3468 -0.3151
14017W        W32871   5.841  12.323   2.169 -0.0178 -0.1532 -0.2644
14018W        W32872  11.810   9.603   0.814  0.0896 -0.0446  0.2642
14019W        W32873   5.961  14.285  12.182  0.0926  0.1036  0.0332
14020W        W32874   1.457  11.371  11.254 -0.1610 -0.0490  0.0923
14021W        W32875   2.157   7.943  12.184  0.1070 -0.0820  0.2698
14022W        W32876  13.983  18.588   3.514 -0.1599  0.0420 -0.2254
14023W        W32877  14.100   8.681  14.724 -0.1700  0.0350 -0.2984
14024W        W32878  11.803  12.680   4.408  0.2848 -0.1620 -0.1807
14025W        W32879  16.647  14.888  11.263 -0.1103  0.0154 -0.1141
14026W        W32880  10.861   0.901  12.813 -0.0264  0.1663  0.0967
14027W        W32881  16.823   2.361  12.551  0.0148 -0.2875  0.1323
14028W        W32882  14.960   0.165  11.012 -0.0535 -0.2207  0.1007
14029W        W32883   9.094  16.378   0.901  0.0856  0.1664  0.1490
14030W        W32884   4.867  14.564   5.051  0.0839 -0.3845 -0.3405
14031W        W32885   4.729   5.369   3.701  0.1835  0.2493  0.0429
14032W        W32886  14.282   8.179  14.673 -0.0982  0.0560 -0.0907
14033W        W32887  10.771   9.904   3.701 -0.2009 -0.0421 -0.2269
14034W        W32888   0.239  11.791   4.700 -0.4060 -0.2234  0.2255
14035W        W32889  16.885  13.414  10.968  0.1858 -0.1884  0.2459
14036W        W32890   4.701   3.080  12.736  0.0477  0.0174 -0.0361
14037W        W32891   3.770  10.965   3.386  0.2684  0.1864 -0.5404
14038W        W32892   4.781   9.238   2.332 -0.1005  0.1646  0.0144
14039W        W32893   7.426   6.537  13.620  0.1066 -0.0403 -0.1384
14040W        W32894   7.054  15.180  10.687 -0.2370  0.2113  0.2500
14041W        W32895  11.601   6.686  12.405  0.1415  0.1515  0.1465
14042W        W32896   1.791   5.123  10.560  0.1991 -0.1101 -0.2773
14043W        W32897  11.010  10.667  11.163  0.0988  0.2947  0.0615
14044W        W32898   3.871  11.634   4.884 -0.1295  0.2530 -0.0175
14045W        W32899   7.814  11.846   2.064 -0.2182  0.0199  0.3139
14046W        W32900  18.612  17.841   1.574  0.0264 -0.0624  0.0665
14047W        W32901   2.604   0.955  11.504 -0.1913 -0.2482  0.1258
14048W        W32902   2.035  18.528  11.816  0.2179 -0.1026 -0.2084
14049W        W32903  13.984   5.774  15.095 -0.3669  0.1039  0.1115
14050W        W32904   0.545   8.695  11.524 -0.1464  0.1158  0.1879
14051W        W32905   7.225  10.948  14.599 -0.0055  0.0620 -0.2311
14052W        W32906  18.606  12.701  10.219  0.0868 -0.2847 -0.0095
14053W        W32907   1.575  13.445   0.705 -0.3501 -0.0946  0.1486
14054W        W32908  18.109  12.355  12.067 -0.2607 -0.0800  0.0281
14055W        W32909   9.158   8.613   3.812 -0.0901 -0.1024 -0.2423
14056W        W32910   5.780   2.644   3.052  0.1405  0.0273  0.0451
14057W        W32911   6.978  10.536  15.106 -0.0245 -0.0554  0.3499
14058W        W32912   1.892  16.963   5.157 -0.2792  0.1030 -0.1483
14059W        W32913   2.656   6.798   2.146 -0.2196 -0.4059  0.1460
14060W        W32914  14.113   1.535   2.262  0.0199 -0.1924  0.0106
14061W        W32915  11.107   6.495   0.973 -0.1893  0.1006 -0.1528
14062W        W32916  12.016  15.952   4.526 -0.3392 -0.2234  0.1393
14063W        W32917   2.269  16.666   0.352 -0.0534 -0.0048 -0.2604
14064W        W32918  12.374  17.239  14.168  0.0038 -0.0335 -0.0393
14065W        W32919   0.234  11.886  14.959  0.0494 -0.0222 -0.0623
14066W        W32920  13.069   1.800   3.442 -0.1451  0.0547  0.1823
14067W        W32921   9.243   1.807   4.291 -0.1164  0.2668 -0.0776
14068W        W32922  14.633  17.996   0.260 -0.2542  0.4317  0.0023
14069W        W32923  16.398  12.674  10.889  0.0622  0.0354  0.0607
14070W        W32924   5.063   3.411   2.890 -0.0673  0.0293  0.1807
14071W        W32925   5.589   2.354  14.304  0.1850  0.0556  0.2445
14072W        W32926   7.882   4.679   4.181  0.0891  0.1823 -0.0608
14073W        W32927  16.523   0.602  12.492  0.1040 -0.2995  0.1394
14074W        W32928  16.894   4.439  11.871 -0.4213 -0.0368  0.0683
14075W        W32929  14.283  17.599   0.271  0.0675 -0.2140  0.0439
14076W        W32930  15.845   8.675  13.399 -0.1431  0.0407  0.1560
14077W        W32931  16.671   5.291  12.874  0.1417 -0.2146 -0.0918
14078W        W32932  16.296  14.767   2.332  0.0368 -0.0756  0.2001
14079W        W32933   8.649   7.080  14.600  0.2995 -0.0070  0.2758
14080W        W32934  17.984  11.206  13.433  0.1105  0.2831 -0.0639
14081W        W32935   7.615   4.307   1.982 -0.1658 -0.1598 -0.0828
14082W        W32936   5.922   6.536   1.389 -0.0728 -0.1870  0.1405
14083W        W32937  15.565  15.298   0.158 -0.2331 -0.0704  0.1818
14084W        W32938   9.101   9.241   1.478 -0.0986  0.1335  0.0171
14085W        W32939  16.205   0.978   1.891  0.1023  0.0919  0.1536
14086W        W32940  16.915  16.441   0.670  0.0966  0.0008  0.0641
14087W        W32941  17.586   0.945   0.335  0.0183 -0.1864 -0.2138
14088W        W32942   4.578   1.771   1.795 -0.0791  0.0477  0.4558
14089W        W32943   5.321   5.890   4.323  0.0650 -0.1856 -0.0879
14090W        W32944   1.908   2.842   2.691 -0.3741 -0.2096 -0.0300
14091W        W32945   9.457   1.371   2.596  0.1395  0.0040  0.0184
14092W        W32946   1.827  17.249  13.513 -0.0259  0.0323  0.0471
14093W        W32947  13.180   5.266  11.871  0.2591  0.2746 -0.0480
14094W        W32948  17.407  13.033   0.195 -0.2583 -0.0164  0.0582
14095W        W32949  16.166  18.575   1.142 -0.2545  0.0898  0.4305
14096W        W32950   1.688  13.200   1.148 -0.2731  0.0232 -0.0464
14097W        W32951  11.153   6.109  14.670 -0.0255 -0.1951 -0.3297
14098W        W32952   4.808   9.881   1.802 -0.1765 -0.2955 -0.1832
14099W        W32953  13.951   3.321  15.003  0.0740 -0.0198  0.1207
14100W        W32954   9.762   1.411   3.440 -0.2157  0.1271  0.0258
14101W        W32955  11.519   0.202   2.801  0.0952 -0.0580 -0.0605
14102W        W32956  11.928  10.091   2.026  0.0408  0.0448  0.0436
14103W        W32957   7.895   4.844  14.912  0.2980 -0.1141 -0.2409
14104W        W32958  10.936  16.649  13.352  0.2390 -0.0734  0.0130
14105W        W32959   1.518   7.397  12.962  0.0043 -0.3940 -0.1974
14106W        W32960  12.689  17.545   0.168  0.2020 -0.0189  0.1104
14107W        W32961  14.874   1.363   3.731  0.2616  0.1024 -0.2775
14108W        W32962   3.998   6.146   1.293 -0.2340 -0.1351  0.0244
14109W        W32963  13.781  18.761  11.557  0.5181 -0.0212 -0.0740
14110W        W32964  14.291  18.510   2.970  0.0414  0.1103 -0.1187
14111W        W32965   8.961  17.448   3.914 -0.2234 -0.2675  0.1469
14112W        W32966   8.894  14.156   0.399 -0.0834  0.3363  0.1113
14113W        W32967  11.425   9.922  11.808 -0.0050  0.1333 -0.0581
14114W        W32968   2.974   7.995   3.430  0.2126 -0.1240 -0.0803
14115W        W32969   0.850   5.614   4.491 -0.0768  0.1961  0.0650
14116W        W32970  15.153  16.366   2.221 -0.3551  0.1662  0.1632
14117W        W32971  11.009  11.736  12.469 -0.1826  0.1524  0.2539
14118W        W32972  17.274   4.252  12.706 -0.1697 -0.2549  0.1662
14119W        W32973  16.177   2.047   1.934  0.0753  0.0440 -0.3909
14120W        W32974  16.020  16.716   0.723 -0.2353 -0.0879 -0.0424
14121W        W32975  16.298   7.204   1.787  0.0688 -0.0709 -0.3837
14122W        W32976  12.712   5.862   2.373 -0.2000  0.0070  0.2310
14123W        W32977  14.348  11.049   1.446 -0.1554 -0.1592 -0.1139
14124W        W32978   1.802   7.553   0.561 -0.2215 -0.0110  0.1347
14125W        W32979   4.832  16.982  14.817 -0.0380  0.0351  0.3387
14126W        W32980   4.792  17.504  13.966  0.4392  0.0251 -0.0206
14127W        W32981  13.707   7.556  12.202  0.2036 -0.1152 -0.2415
14128W        W32982   4.971  15.737   0.079  0.1553 -0.1631 -0.0102
14129W        W32983   0.773  17.955  14.058  0.1546 -0.1375  0.1060
14130W        W32984   0.121   8.270   9.794 -0.2076  0.0296 -0.1269
14131W        W32985  17.544  12.403  12.363 -0.0523  0.0327  0.1656
14132W        W32986   3.967  17.395  11.611  0.4179  0.0641  0.0607
14133W        W32987  15.097  17.113   0.198  0.1970 -0.1288  0.1922
14134W        W32988  15.541  11.980  14.747  0.1233  0.0259  0.1234
14135W        W32989  12.116   6.267  12.625  0.0276  0.5622 -0.0244
14136W        W32990   1.384   0.055  12.848  0.2108 -0.1619  0.0203
14137W        W32991   0.955   6.873  13.843  0.1543  0.0150 -0.2060
14138W        W32992  13.982  10.550  10.977  0.0680  0.3862 -0.0878
14139W        W32993   1.058  12.753  13.952  0.1258  0.3213  0.0812
14140W        W32994  15.568   2.948  12.864  0.0399 -0.0543 -0.3328
14141W        W32995   5.103  14.056   9.957 -0.1247 -0.1653 -0.0384
14142W        W32996  14.426  15.763   2.488  0.2305 -0.0548  0.0222
14143W        W32997   0.245  10.894  13.685 -0.0458  0.1551 -0.2161
14144W        W32998  16.627   5.070   3.605 -0.1063  0.0825  0.0580
14145W        W32999  13.357  16.288  14.544  0.0543  0.1137  0.5099
14146W        W33000   7.607   1.061  13.414 -0.0719  0.0912 -0.2327
14147W        W33001  16.925  16.712  11.269  0.1648  0.0415 -0.1163
14148W        W33002  17.882  15.886   4.603 -0.1334 -0.0140 -0.0192
14149W        W33003   8.276   8.873   1.688 -0.1212  0.1046  0.2898
14150W        W33004   2.348  18.246   3.702  0.0681  0.0922  0.1551
14151W        W33005   0.013  14.952  14.505  0.0125  0.2414  0.1656
14152W        W33006   0.747  13.130   3.902  0.0034 -0.0292 -0.2004
14153W        W33007  14.209   2.478  13.904 -0.1783 -0.0141  0.1086
14154W        W33008  18.002  17.781  14.500 -0.0512 -0.1960 -0.3487
14155W        W33009   7.794  15.372   1.411 -0.1119  0.1885  0.2499
14156W        W33010  15.352   3.301  12.565 -0.2162 -0.0107 -0.0214
14157W        W33011   0.834  11.593   0.193  0.1236 -0.0536  0.1314
14158W        W33012   7.352  13.759   0.051 -0.1203 -0.0898 -0.1196
14159W        W33013  10.582   4.053   2.464 -0.0037 -0.1398  0.1936
14160W        W33014  10.180   8.064   4.058  0.1226  0.0820 -0.2650
14161W        W33015  18.160   4.430   0.480  0.0678 -0.0595  0.0079
14162W        W33016   9.810  15.390   1.512 -0.1666 -0.1539  0.1036
14163W        W33017   9.483  13.231  14.480  0.0670 -0.2241  0.1570
14164W        W33018   5.798   2.839  14.384 -0.0811 -0.1070  0.2877
14165W        W33019   2.129   7.793   0.195 -0.2001  0.1769  0.1485
14166W        W33020   6.843  16.385   2.425 -0.0246  0.1985  0.1298
14167W        W33021  10.949   6.144  13.363  0.0078 -0.0081  0.0462
14168W        W33022   9.030   6.856  14.932 -0.2941 -0.0872 -0.0700
14169W        W33023   5.534  16.017   3.519 -0.0117  0.3341  0.2359
14170W        W33024   7.409   7.883  12.912  0.0215  0.2896  0.2770
14171W        W33025  16.362   1.643   3.769 -0.4040 -0.2019 -0.1240
14172W        W33026  13.606  13.662  13.979 -0.1872  0.0776  0.1512
14173W        W33027  15.447   1.807  12.164 -0.1786 -0.2995 -0.4034
14174W        W33028   7.509   2.970   0.145  0.0675  0.1053 -0.1011
14175W        W33029  12.414   3.187   3.530  0.4840 -0.1698 -0.1727
14176W        W33030   5.461   6.016  11.952  0.1352  0.1762 -0.0945
14177W        W33031   7.176   1.209   9.576 -0.1077  0.1276 -0.4098
14178W        W33032  14.266   2.167   1.731  0.0389 -0.0060  0.6279
14179W        W33033   5.988  14.255   0.875  0.0143  0.1171 -0.1436
14180W        W33034   5.535  16.060  12.527  0.3190  0.1979 -0.3779
14181W        W33035   4.468   8.832  12.864  0.3720  0.1437 -0.1386
14182W        W33036   4.440   7.344  12.586  0.0830 -0.3432  0.1988
14183W        W33037   6.469   7.332  11.849 -0.0515 -0.0796  0.1032
14184W        W33038  13.665  16.334   0.937  0.4330  0.1759 -0.0431
14185W        W33039  14.977  18.653  12.826  0.3312 -0.2463 -0.1423
14186W        W33040  14.564   2.035  13.833 -0.0515 -0.0662 -0.2662
14187W        W33041   3.683   9.021  12.041 -0.0809  0.3812 -0.3396
14188W        W33042   6.075  15.492   0.908 -0.0955  0.0990 -0.0786
14189W        W33043   1.592   5.510   0.807  0.2379 -0.1034 -0.0342
14190W        W33044  16.423   3.910   1.277 -0.1299 -0.1764  0.1320
14191W        W33045   0.194   1.152   3.496  0.2034  0.0502 -0.1168
14192W        W33046  14.444  17.081  12.746  0.3963 -0.1107  0.0315
14193W        W33047   9.570   2.885  12.607 -0.1196 -0.2521  0.1947
14194W        W33048  11.248  16.498   0.427  0.1372  0.0746  0.1063
14195W        W33049   0.846   5.195   1.642 -0.2982  0.0252  0.1193
14196W        W33050   5.378   4.782  13.315 -0.2499  0.0720  0.2750
14197W        W33051  11.566   0.529  14.289  0.1991 -0.1494 -0.2417
14198W        W33052   9.895  10.289   0.366  0.0363 -0.1920  0.1981
14199W        W33053   1.953  17.417  14.009 -0.0814  0.1567 -0.0379
14200W        W33054  13.060   2.941   0.415  0.2525  0.3882 -0.4190
14201W        W33055   1.604   6.872   2.323 -0.0129  0.0928  0.0339
14202W        W33056   0.254  15.562   0.219  0.1182  0.1233  0.2311
14203W        W33057   0.810   5.428  11.465 -0.1264  0.1153 -0.1331
14204W        W33058   1.333  15.742  12.323  0.0260  0.0371  0.2688
14205W        W33059   9.181  10.252   1.266 -0.0179  0.0931  0.0092
14206W        W33060   9.027  16.392  13.529  0.0350 -0.0498 -0.0034
14207W        W33061  16.304  12.785   0.704 -0.0750 -0.2450  0.2262
14208W        W33062  14.528   4.916  11.750  0.1566 -0.1155 -0.0835
14209W        W33063   0.251  17.654  11.981  0.0763 -0.0563 -0.0679
14210W        W33064   0.455  13.640  11.430 -0.0320  0.0050  0.1409
14211W        W33065  14.621   9.726   5.606 -0.1292  0.1700 -0.0503
14212W        W33066  18.692   5.992   3.923  0.1939  0.3847 -0.2617
14213W        W33067  18.304   1.691   0.302 -0.2567  0.0295  0.2526
14214W        W33068  13.857   1.308  12.422 -0.1581  0.0567  0.1173
14215W        W33069   6.955   8.545   1.064 -0.1666  0.4787 -0.2159
14216W        W33070  10.782  16.197  14.705  0.2005  0.1301  0.0484
14217W        W33071   9.567   7.147  12.749  0.3749 -0.1366  0.0338
14218W        W33072  11.167  16.972   2.670  0.0523  0.0892 -0.1241
14219W        W33073  17.405   6.778   0.064  0.1971  0.1700 -0.1717
14220W        W33074  12.717  14.691  13.493  0.3231  0.0604  0.2055
14221W        W33075   2.399   3.201  13.477  0.0897 -0.0183 -0.1706
14222W        W33076   3.062  11.825  12.626  0.0680  0.0358  0.1854
14223W        W33077  18.826  11.740   3.621 -0.4347  0.2837 -0.0963
14224W        W33078   4.333   1.783   5.348  0.3406  0.2011 -0.1196
14225W        W33079   5.433  17.330   1.004  0.1795 -0.0453  0.0473
14226W        W33080  11.830   1.119  10.952 -0.1157  0.0488  0.0011
14227W        W33081  13.507  12.006   0.083  0.3793 -0.0699 -0.0477
14228W        W33082   0.789  15.636  11.224  0.0102  0.0297 -0.0583
14229W        W33083  18.483  14.035  14.701 -0.2426 -0.1599  0.1095
14230W        W33084   6.131  17.976  10.547 -0.0361  0.1893  0.1918
14231W        W33085  16.181   8.860   2.320 -0.4077  0.5356 -0.4774
14232W        W33086   2.289  14.499  14.398 -0.0685 -0.1623 -0.1192
14233W        W33087   4.614   1.200   1.563 -0.0373  0.0831 -0.1350
14234W        W33088   8.796   6.483   3.863  0.3446  0.3076 -0.0108
14235W        W33089   5.892  12.923   1.946  0.4027 -0.2799 -0.0697
14236W        W33090  12.240  13.205   3.362 -0.0000 -0.0574 -0.0869
14237W        W33091  16.355   6.952  11.145  0.2198 -0.2867  0.0659
14238W        W33092   3.793   3.537   0.135 -0.0076  0.2462  0.1979
14239W        W33093   9.931  13.014  13.585  0.0422  0.2054  0.0738
14240W        W33094  17.790   6.835   4.295 -0.1993  0.3800 -0.0550
14241W        W33095  15.969  14.226   0.671 -0.0899 -0.1803  0.3224
14242W        W33096  16.274  17.934  13.262  0.0555 -0.3237  0.1119
14243W        W33097   6.353  14.886  12.591 -0.0587  0.0792 -0.3473
14244W        W33098   8.676  15.078   2.079  0.2800  0.0703  0.0596
14245W        W33099   7.866  14.845  10.836  0.0832  0.4193 -0.0406
14246W        W33100  12.698   5.584   3.009 -0.3356 -0.0023  0.1288
14247W        W33101  16.154   2.334  13.774 -0.0058 -0.2660  0.2726
14248W        W33102  14.273   7.145   0.290 -0.0667  0.1227 -0.1231
14249W        W33103  17.927   9.885   1.566 -0.0835  0.1114 -0.0337
14250W        W33104   5.271   2.205  12.505 -0.0309 -0.0510 -0.1700
14251W        W33105  17.914   1.998  13.708 -0.2149  0.1539  0.0978
14252W        W33106   1.743  13.968  14.723  0.0629 -0.4174 -0.4206
14253W        W33107   6.731   2.577   3.356  0.4435  0.0611  0.1541
14254W        W33108  10.189   3.977   4.010 -0.0588 -0.3085  0.0470
14255W        W33109  18.715  10.935   2.814 -0.1315  0.1737 -0.3380
14256W        W33110   3.725   4.730  14.243  0.0724 -0.0399 -0.0109
14257W        W33111   9.281   8.536   2.211  0.1651  0.0547 -0.3605
14258W        W33112  15.631   6.472  11.364 -0.2620 -0.1382  0.1899
14259W        W33113  16.035   2.756   5.535 -0.0529  0.1792 -0.1561
14260W        W33114  18.622  16.595   1.165 -0.0118 -0.1977 -0.0925
14261W        W33115  14.865  11.714  14.095 -0.1647  0.1274 -0.1649
14262W        W33116   4.809   0.481  12.091  0.0544 -0.2905  0.0423
14263W        W33117   2.720   4.130  10.890 -0.1577 -0.1899 -0.0297
14264W        W33118   9.242  10.641   2.179  0.2093 -0.4121 -0.6423
14265W        W33119  16.435   8.307  12.289 -0.0087 -0.1334 -0.1419
14266W        W33120   3.276  18.619   2.176 -0.1915  0.0043  0.3056
14267W        W33121   7.542  10.130  10.662  0.1865 -0.0126  0.0845
14268W        W33122  18.023   4.907  11.139 -0.0620 -0.1724  0.1016
14269W        W33123   4.752   2.544   4.247 -0.0143 -0.0259 -0.0899
14270W        W33124   1.463   1.493   3.335  0.1295 -0.1117 -0.1543
14271W        W33125   0.828  17.438  13.462  0.2393 -0.1165  0.1114
14272W        W33126  11.902  18.390   3.361  0.0198  0.2774  0.3664
14273W        W33127   9.758  11.292  12.355  0.0560  0.2143 -0.0346
14274W        W33128   5.207   0.849  11.023  0.0836 -0.2270 -0.0772
14275W        W33129  17.528  13.535   4.022  0.2457 -0.1176  0.0708
14276W        W33130  16.449  12.307   3.200 -0.2391  0.1334 -0.2044
14277W        W33131  13.317  10.955  12.084 -0.0470  0.0891 -0.1777
14278W        W33132  18.466  13.200   1.882 -0.1777  0.1399  0.2191
14279W        W33133   8.683   2.975   6.051 -0.1557  0.0632  0.1677
14280W        W33134  11.674   3.035  12.311 -0.0143 -0.1324 -0.6002
14281W        W33135   8.949  10.940   4.103 -0.1026 -0.0827 -0.1871
14282W        W33136  15.006   4.538  11.455  0.0248  0.1202 -0.2459
14283W        W33137  16.979  18.774   3.859 -0.3696  0.2630  0.3714
14284W        W33138  16.353   4.102  12.195  0.4095 -0.0176 -0.1729
14285W        W33139   9.677   2.197   0.785 -0.0482 -0.3413  0.1999
14286W        W33140  10.379  17.627   0.214 -0.0323  0.0494 -0.0683
14287W        W33141  12.043  17.510   2.854 -0.0126  0.2121 -0.0090
14288W        W33142   6.939  14.215   4.236  0.3422 -0.3240  0.1577
14289W        W33143  16.611  12.485   2.754 -0.4706  0.1169 -0.0755
14290W        W33144   5.046   1.991  14.627  0.0481 -0.0145  0.1823
14291W        W33145  13.864  11.908   1.436 -0.2770 -0.2713  0.1379
14292W        W33146  16.870  15.706  10.715  0.0701  0.0713 -0.0101
14293W        W33147   7.072  13.502   3.965  0.0989  0.0783  0.0039
14294W        W33148   1.639  15.361   2.150  0.0812  0.1638 -0.1261
14295W        W33149   7.576  10.436   4.167 -0.1788 -0.0166  0.2823
14296W        W33150   4.542   3.666  10.921 -0.1420 -0.3986 -0.2529
14297W        W33151   8.141   8.578   4.041 -0.0524 -0.1066  0.0696
14298W        W33152  11.729   1.876  14.657 -0.0673  0.1229 -0.1026
14299W        W33153   8.835   3.960  12.331 -0.0205 -0.0100  0.1738
14300W        W33154  14.736  16.084  13.669  0.0415  0.0163  0.5295
14301W        W33155  10.292   6.302   2.211 -0.2091  0.2219  0.0841
14302W        W33156  13.325   4.392   0.804 -0.2141 -0.3360  0.2063
14303W        W33157   9.251   9.641   3.582  0.1041  0.2239 -0.2354
14304W        W33158   4.583  18.458  13.511 -0.2177  0.2120  0.0092
14305W        W33159  16.682   1.963  14.144 -0.3392 -0.0523  0.1107
14306W        W33160  10.729   1.912  13.924 -0.0194 -0.0733 -0.0274
14307W        W33161  15.876  14.031   2.022 -0.0071  0.0182 -0.0938
14308W        W33162  10.929   9.145  12.745  0.0558 -0.0769  0.3626
14309W        W33163  15.229   5.433  13.084  0.2363 -0.2368  0.1054
14310W        W33164  11.410   4.456  10.769 -0.2776 -0.2231 -0.2626
14311W        W33165  12.672  11.121  13.203 -0.2746 -0.3952  0.2680
14312W        W33166  17.085  14.746   2.829 -0.0479 -0.4917  0.0350
14313W        W33167   8.427  16.044   4.210 -0.1432  0.2671  0.2852
14314W        W33168  15.296   0.466  14.072 -0.0217  0.0437 -0.3704
14315W        W33169  14.026  11.307  12.996  0.0951  0.0808  0.2079
14316W        W33170  17.422   1.090  12.246 -0.0159  0.0391 -0.0594
14317W        W33171   1.146  10.620  11.815  0.2992  0.2343  0.2033
14318W        W33172   0.256   4.736  12.791 -0.0018  0.1728 -0.0831
14319W        W33173   3.451  12.870  11.728 -0.2649 -0.0442 -0.1405
14320W        W33174  13.743  11.716  11.125 -0.0945  0.0605 -0.1136
14321W        W33175  12.703   6.423  13.228 -0.0118  0.2195 -0.1453
14322W        W33176  12.057  14.746  12.323 -0.0279 -0.2610 -0.0293
14323W        W33177  10.887  15.537   2.784  0.0358 -0.0860  0.0707
14324W        W33178   5.320  14.685   3.990 -0.0271 -0.1504  0.2406
14325W        W33179   4.707   3.209  14.970  0.0156  0.0971  0.0491
14326W        W33180  11.073  11.058   1.859 -0.3319  0.1801 -0.3418
14327W        W33181   0.885  11.580  12.667  0.1282  0.0917  0.1047
14328W        W33182   7.417  13.771  14.158 -0.1212  0.3834 -0.0019
14329W        W33183   0.303   4.844  12.250 -0.0336 -0.2848  0.0537
14330W        W33184  14.774   7.005  14.550 -0.0399  0.2006  0.3512
14331W        W33185   2.685  14.466   1.727  0.1261  0.0573 -0.0036
14332W        W33186   6.180  14.388  11.282  0.2053 -0.0368 -0.0589
14333W        W33187   6.415  13.332   4.100  0.0408 -0.3483 -0.0466
14334W        W33188  12.824  18.682   3.034  0.1447  0.2419 -0.1569
14335W        W33189   5.028   9.990  15.059  0.1845  0.2544 -0.1022
14336W        W33190   5.452   1.957  13.833 -0.1624 -0.2108  0.0876
14337W        W33191   1.072   7.682   1.876 -0.1419 -0.0763  0.1738
14338W        W33192  15.487  14.284   0.251 -0.0386 -0.0230 -0.1684
14339W        W33193   2.909  10.307   2.526 -0.3047 -0.0410  0.3937
14340W        W33194  14.769   0.997  11.273  0.0687  0.2238  0.1259
14341W        W33195   5.625  15.494   1.151  0.1700  0.0499  0.0044
14342W        W33196   4.644   3.835  11.758  0.3682  0.1375  0.1012
14343W        W33197   4.405   2.916   4.690 -0.3352 -0.0708 -0.0167
14344W        W33198   3.607   7.054  14.550  0.1248  0.1532  0.1634
14345W        W33199   8.657   8.190   1.039 -0.1967 -0.2588  0.0339
14346W        W33200   5.813   6.004   2.071  0.1881  0.0716  0.0329
14347W        W33201  10.118   9.455   3.249  0.0860  0.3842  0.1892
14348W        W33202  12.751  17.267  10.900 -0.2299  0.2215  0.0763
14349W        W33203   9.859  12.755   1.340  0.1203 -0.0909 -0.3207
14350W        W33204   0.450  12.866  14.726  0.1079 -0.1098  0.3934
14351W        W33205  14.101  15.681   1.636  0.2484 -0.4195  0.0419
14352W        W33206   4.356   2.185   2.645 -0.1292 -0.0783 -0.0090
14353W        W33207  15.652  11.136   2.957 -0.1939 -0.1108  0.1008
14354W        W33208   8.224   4.458   1.049 -0.1096 -0.1307  0.0852
14355W        W33209   2.384   5.340   1.214  0.0296  0.2627 -0.1045
14356W        W33210  13.383   5.587  12.808 -0.1175  0.2431 -0.1486
14357W        W33211   5.532   8.976  11.713 -0.0726 -0.0226  0.0753
14358W        W33212   7.761  11.799  11.887  0.0123  0.3090 -0.0013
14359W        W33213  17.305  15.889   1.247 -0.1020  0.3183 -0.2662
14360W        W33214   8.460  13.366  13.574 -0.0260 -0.0702 -0.1736
14361W        W33215  13.910   2.883   2.475 -0.3856  0.0869  0.1320
14362W        W33216   9.936   5.718   1.350 -0.0325  0.0054  0.1550
14363W        W33217   7.381   4.740  13.149  0.0907  0.1724  0.3452
14364W        W33218  10.832  12.181  12.199  0.1866 -0.0581 -0.0005
14365W        W33219  12.583   7.157  11.402  0.4247  0.0120  0.0962
14366W        W33220  12.777  17.325   3.383  0.1490 -0.0037 -0.3445
14367W        W33221  12.661  15.571  14.071  0.1900 -0.1260 -0.0996
14368W        W33222   9.626  16.904  14.567 -0.1663  0.0430  0.2886
14369W        W33223   2.295   6.214   0.513 -0.2438  0.2353  0.0248
14370W        W33224  15.872   1.824   4.571 -0.0076  0.1512 -0.2153
14371W        W33225  10.226   0.995  12.388  0.0777 -0.0559 -0.1959
14372W        W33226  15.994   3.345  13.600 -0.1029 -0.0121 -0.0886
14373W        W33227   5.448  18.555   2.252 -0.2999 -0.0869 -0.2501
14374W        W33228  10.036   2.196   1.667 -0.0204 -0.2935  0.2172
14375W        W33229   5.458   4.255   3.575 -0.2311 -0.0408 -0.3485
14376W        W33230   8.133   9.557  13.074  0.0542  0.3290  0.0124
14377W        W33231   7.162   5.523  14.916 -0.2628  0.1965 -0.0276
14378W        W33232  10.837   1.116   3.550  0.1513 -0.2093  0.0664
14379W        W33233  12.354  18.740   4.503 -0.3992  0.1339  0.2653
14380W        W33234  14.945   4.057  13.668  0.0773  0.0147 -0.2217
14381W        W33235  18.431  10.016   1.449 -0.0937 -0.0313  0.1050
14382W        W33236   0.620   5.869   0.519 -0.0899  0.0757 -0.2387
14383W        W33237   2.985   3.006   0.019  0.0854  0.0837 -0.0896
14384W        W33238  14.403  18.452   4.098  0.1280 -0.0532 -0.0713
14385W        W33239  10.307   8.642   1.378 -0.1339 -0.1149 -0.0705
14386W        W33240   9.153   8.103   3.946  0.1491  0.1695  0.1213
14387W        W33241   5.955   9.605  11.804  0.0607  0.0732 -0.4458
14388W        W33242  10.844   2.460   2.212 -0.1227 -0.1203 -0.2344
14389W        W33243   6.558  13.900  11.509 -0.0143 -0.0553  0.1276
14390W        W33244   3.642  15.384  12.193 -0.1946 -0.1855 -0.0773
14391W        W33245  10.103  10.544  13.630 -0.0552 -0.0916 -0.3427
14392W        W33246   8.851  17.200   2.378 -0.0351 -0.0307  0.1914
14393W        W33247   0.881  11.920  10.776 -0.0283  0.0031  0.2335
14394W        W33248   5.714   5.254   2.429 -0.1703  0.1478 -0.0717
14395W        W33249   8.856  13.473   0.108 -0.1087  0.1460  0.0917
14396W        W33250   4.942   6.158  14.261 -0.0492 -0.1550 -0.0281
14397W        W33251  12.888  16.402   3.565 -0.1268 -0.3378  0.1942
14398W        W33252   2.787   2.960  13.681  0.1402 -0.0851  0.2768
14399W        W33253   9.061  15.884   0.791  0.0948 -0.3968 -0.0267
14400W        W33254   6.790  10.233   1.729 -0.2190  0.2327  0.2900
14401W        W33255  18.193   2.232   2.099 -0.1502 -0.2467 -0.1045
14402W        W33256  12.694  14.628   2.902 -0.2893  0.2249  0.1813
14403W        W33257   3.001   9.197   3.728  0.0870  0.4642 -0.0376
14404W        W33258   4.625  14.232  10.873 -0.0170 -0.0875  0.2759
14405W        W33259   8.696  17.635   0.039 -0.2218  0.0565  0.0605
14406W        W33260  18.060   6.960   2.427 -0.2968 -0.1851  0.2749
14407W        W33261   8.917  17.385   1.850 -0.2787 -0.0317  0.1557
14408W        W33262  14.610  11.534  13.073 -0.1878 -0.1397 -0.1716
14409W        W33263  17.514  18.224   2.778 -0.4051 -0.0131 -0.0479
14410W        W33264  11.921  15.858   2.373 -0.0592  0.0547  0.4512
14411W        W33265   6.389   3.180  12.201 -0.1152  0.2845 -0.2072
14412W        W33266   2.958   2.646   1.895 -0.1147 -0.0128  0.1283
14413W        W33267  13.179  14.853  13.334 -0.1421  0.1874  0.1464
14414W        W33268  10.596  14.071  14.708  0.2617  0.2733 -0.1675
14415W        W33269  18.609   3.026   4.710 -0.0242 -0.0815  0.0577
14416W        W33270   5.147   7.567   1.653 -0.0273  0.0881  0.1254
14417W        W33271  13.169   3.427  14.459 -0.2214 -0.1258 -0.0330
14418W        W33272  15.818   6.439   3.134  0.0057 -0.3379 -0.1496
14419W        W33273  14.368  18.051   3.807 -0.1098  0.0735 -0.3283
14420W        W33274   6.381   8.736  12.269 -0.0090 -0.2195 -0.0892
14421W        W33275   8.743  11.423  12.260  0.1193 -0.0986  0.1185
14422W        W33276   9.984   7.607   2.498 -0.1330 -0.0720 -0.2352
14423W        W33277   1.700  12.719   0.235 -0.0573 -0.1262  0.1213
14424W        W33278  13.872   2.231   5.231  0.2488 -0.2627  0.1999
14425W        W33279   9.931  14.345   0.297  0.0605  0.2158  0.1344
14426W        W33280  18.554   7.498   2.555 -0.1624  0.3607 -0.0025
14427W        W33281   5.337   6.502   3.107 -0.0576 -0.0778 -0.1207
14428W        W33282  16.578   2.742   2.872 -0.3348 -0.0356  0.1533
14429W        W33283  14.238  11.398  12.545  0.4304 -0.2486  0.1218
14430W        W33284  17.621   5.379   1.373 -0.2302  0.2634 -0.1027
14431W        W33285   4.235   7.122   2.844  0.1609 -0.4023 -0.0193
14432W        W33286  13.865   6.668  12.083 -0.0501 -0.0346  0.1953
14433W        W33287  11.204  15.247   2.349 -0.2744  0.0058 -0.0467
14434W        W33288  18.092   4.333   3.592  0.0824  0.1362 -0.1297
14435W        W33289  12.099   5.474   0.348 -0.4084  0.2069  0.0755
14436W        W33290  13.269   8.967   9.902 -0.2799 -0.1112 -0.2750
14437W        W33291   4.400   9.856  10.592 -0.2558  0.1349  0.1399
14438W        W33292   0.294  16.239  13.074 -0.0072  0.0715  0.1174
14439W        W33293   2.273  17.116   3.448  0.2877 -0.1676  0.0398
14440W        W33294   4.107   1.900   3.016  0.1857  0.0780 -0.2556
14441W        W33295  15.142  16.229  12.129  0.2631  0.0272  0.0578
14442W        W33296  12.661   7.328   2.437  0.2895  0.1708  0.1518
14443W        W33297  17.708   3.713   3.842 -0.0256  0.1436  0.0216
14444W        W33298  17.009  18.727  12.936  0.2108  0.1983 -0.3001
14445W        W33299  13.499   8.719   1.721 -0.0395 -0.2118 -0.1552
14446W        W33300   4.609   4.582   4.416 -0.0171 -0.1876  0.0096
14447W        W33301  15.133   8.881   2.476  0.0555  0.2089 -0.1082
14448W        W33302   7.171   9.004   3.233  0.2311  0.1543  0.0899
14449W        W33303   7.578   0.635  13.647 -0.3816 -0.0786  0.2098
14450W        W33304   3.410   9.409   3.521 -0.1947 -0.4236  0.2233
14451W        W33305  15.977   3.666  12.224  0.1100 -0.0699  0.1966
14452W        W33306   6.576   3.042   3.192  0.3069 -0.0775 -0.0257
14453W        W33307   8.388  12.051  13.877 -0.5626 -0.0089 -0.0913
14454W        W33308  12.332   6.370   2.702  0.0846 -0.0794  0.0307
14455W        W33309   3.877  12.816  12.064 -0.0151  0.2048 -0.1211
14456W        W33310  14.688  15.886   3.939  0.3052  0.0933  0.0011
14457W        W33311  14.293  11.404   2.479  0.2595 -0.0487  0.0278
14458W        W33312  15.930  11.967  13.036  0.0942 -0.0232 -0.1562
14459W        W33313  11.769   4.394  11.230  0.2087 -0.1663  0.3560
14460W        W33314   1.478  13.054  15.020 -0.0132  0.3772  0.2114
14461W        W33315   6.239   0.670   4.194  0.0506 -0.1857  0.1475
14462W        W33316   6.746   5.383   0.668  0.0827  0.0575  0.2219
14463W        W33317   9.893   5.113  10.702 -0.1219  0.0264 -0.0745
14464W        W33318  13.080  15.805  11.465  0.0434 -0.1109  0.1348
14465W        W33319  18.452   7.626   1.554 -0.0315 -0.2174 -0.2147
14466W        W33320  16.851   8.106  12.080 -0.1299  0.2641  0.1545
14467W        W33321  12.438   9.113  12.257 -0.0628 -0.5065 -0.1523
14468W        W33322   2.781   9.423   0.959  0.3366  0.0543 -0.0769
14469W        W33323  16.616  10.177   1.753 -0.1679 -0.1936 -0.1465
14470W        W33324  18.288   4.177  11.512  0.0448 -0.1750 -0.3897
14471W        W33325   0.309   1.298  13.345  0.2580  0.0467  0.0271
14472W        W33326   6.933  10.629   4.520  0.1341  0.3454 -0.0788
14473W        W33327  13.540  12.251  12.269  0.0240  0.0455 -0.1218
14474W        W33328  10.878  17.241  14.383  0.2332 -0.0033 -0.1395
14475W        W33329   5.411   2.672   3.479  0.0423 -0.1606 -0.2959
14476W        W33330  11.254   2.667   0.573  0.0418  0.1563 -0.1542
14477W        W33331  11.563   7.034   3.586 -0.0114 -0.2207 -0.0515
14478W        W33332   0.747   7.853  12.109 -0.0582  0.5026  0.1365
14479W        W33333   0.823   0.827  14.975 -0.0604 -0.3766  0.0554
14480W        W33334   1.446   8.114  14.763 -0.0133 -0.2223  0.4832
14481W        W33335  17.079   5.831  10.679  0.0005  0.3667 -0.1949
14482W        W33336   2.225   7.420  13.009  0.0540  0.1130 -0.2940
14483W        W33337   2.954   9.683  13.078 -0.0741  0.0045 -0.0844
14484W        W33338   2.751  13.996  13.104 -0.1931  0.3807 -0.0742
14485W        W33339   9.343   3.118   3.375  0.0186  0.0034 -0.3584
14486W        W33340   9.899  14.724   5.590 -0.0243 -0.1268 -0.0281
14487W        W33341  12.932  18.050  14.040 -0.0915 -0.0999 -0.0195
14488W        W33342   9.716   3.264  12.884 -0.1525  0.0806 -0.0477
14489W        W33343  15.056  13.830   3.002  0.1394 -0.2682  0.0706
14490W        W33344  17.701  15.315  12.953  0.0490  0.0728  0.0646
14491W        W33345   5.749   8.970  12.486  0.2670 -0.1906  0.1076
14492W        W33346  10.365   7.058   1.065 -0.4334  0.0830 -0.1049
14493W        W33347  15.132  14.925   1.577  0.1070 -0.3586  0.0143
14494W        W33348   5.085  18.271   2.520 -0.2933  0.0600 -0.0609
14495W        W33349  16.845  14.950   1.446  0.0687 -0.1122  0.0943
14496W        W33350   8.181  10.609   1.064 -0.1734  0.1465  0.2289
14497W        W33351  12.467   5.143   0.314 -0.1666  0.4436 -0.1268
14498W        W33352  18.076  14.987   3.646 -0.0754 -0.0588  0.3223
14499W        W33353   6.678   3.081  14.858 -0.2009 -0.3000  0.0275
14500W        W33354   7.378  11.292  12.336  0.1739  0.1143  0.1243
14501W        W33355   1.002   0.386  15.070 -0.1053  0.1173 -0.0995
14502W        W33356   9.699   3.865  14.612  0.1994 -0.1707  0.1762
14503W        W33357  18.296   9.885   2.944  0.1985  0.1228 -0.3621
14504W        W33358  18.109   3.191  14.247  0.0308  0.0665 -0.0472
14505W        W33359   0.117  13.175   1.921  0.1030  0.2647  0.3547
14506W        W33360  17.995   3.474   3.390 -0.0122  0.0146  0.5956
14507W        W33361  10.140   1.046  14.722  0.2431 -0.1479  0.1183
14508W        W33362   0.382   7.776  13.719  0.1997 -0.0491 -0.0926
14509W        W33363   9.463   7.688   4.145  0.0782  0.0018  0.0176
14510W        W33364  16.325   9.274  15.126  0.0808  0.2392  0.0095
14511W        W33365  10.045   6.599   3.683  0.0454 -0.1188 -0.0190
14512W        W33366   6.069  18.452   1.590  0.0936 -0.2549 -0.1650
14513W        W33367  16.575  18.214  10.123  0.2341  0.1763 -0.3570
14514W        W33368   9.994   5.415  12.797  0.1954  0.1923  0.0752
14515W        W33369  17.793  17.046  12.985 -0.2166 -0.1890 -0.0498
14516W        W33370   4.635  15.931   1.531 -0.0771 -0.2526  0.0909
14517W        W33371  18.272  17.250  11.078  0.1020  0.0114  0.1947
14518W        W33372   9.698   7.111  11.775 -0.0216 -0.0272 -0.1581
14519W        W33373   4.413  17.638   1.875 -0.0588 -0.1887 -0.0931
14520W        W33374   9.750  12.223  13.079  0.0694 -0.0853  0.2756
14521W        W33375  18.742  16.693   0.687 -0.0215  0.0068  0.2967
14522W        W33376   6.795  18.584  12.277  0.0815 -0.0391  0.3234
14523W        W33377   5.435  15.391  13.257  0.0229 -0.2703  0.0960
14524W        W33378   2.243   2.937   1.117  0.1507 -0.2875  0.2523
14525W        W33379   4.320   7.193  11.250  0.0313 -0.1563 -0.0992
14526W        W33380  15.594   2.000  11.117 -0.4258  0.0156  0.1147
14527W        W33381  12.688   6.980   3.302 -0.1444 -0.1096  0.1781
14528W        W33382   1.474   1.731   0.757 -0.1655 -0.0143 -0.0370
14529W        W33383  17.295  10.625  11.414  0.0847  0.0680 -0.1514
14530W        W33384   2.279  17.767  14.258 -0.2924 -0.1959  0.2762
14531W        W33385  10.106   5.767   1.876  0.1757 -0.0762 -0.1224
14532W        W33386   7.085   3.830  11.873 -0.1975  0.1970  0.1968
14533W        W33387   4.465  16.243  12.182 -0.2541 -0.1504  0.1553
14534W        W33388  14.124  17.821  11.540  0.0306  0.3909  0.3178
14535W        W33389   2.117  14.931   0.651  0.0090 -0.1641  0.1494
14536W        W33390  16.749   8.441  11.313 -0.1049 -0.0463  0.3337
14537W        W33391  14.391  10.480  11.819 -0.0652 -0.0716 -0.1697
14538W        W33392  11.637  11.722   3.098  0.0164 -0.1107 -0.0244
14539W        W33393   3.160  14.735  11.932 -0.2671 -0.1039  0.1352
14540W        W33394   5.737  12.199   3.702 -0.0972  0.0250  0.0762
14541W        W33395  11.163  12.052   3.811 -0.3525 -0.0928 -0.0790
14542W        W33396   3.540   8.374   3.444  0.1912  0.4208  0.4412
14543W        W33397   6.001   8.912  12.987  0.0506 -0.2157 -0.4313
14544W        W33398   8.907   4.701   0.715  0.0405 -0.0179  0.1702
14545W        W33399  11.537   8.517   0.922 -0.0114 -0.0998 -0.0130
14546W        W33400  11.331   3.582   1.385  0.2403  0.3210 -0.1000
14547W        W33401   3.402  11.991  14.413  0.1558  0.2041  0.0365
14548W        W33402  13.676   4.728   0.975  0.2413 -0.2510 -0.1330
14549W        W33403  11.775   0.854  14.666 -0.0946  0.1053 -0.0881
14550W        W33404   2.788  18.081   3.485 -0.0112  0.1908 -0.0732
14551W        W33405   5.803   2.301   1.613 -0.0493 -0.1588  0.0732
14552W        W33406   1.557  12.802  10.808 -0.0110  0.3944  0.0771
14553W        W33407  10.524   9.525   3.480 -0.0708 -0.2356  0.1932
14554W        W33408   1.567  16.742  11.308 -0.1052 -0.1365  0.0162
14555W        W33409   7.208   4.064  13.870  0.0858 -0.1505  0.3474
14556W        W33410  16.538  18.386  11.516 -0.3929  0.4486 -0.1256
14557W        W33411  15.452   2.121  12.615 -0.0468  0.0887 -0.1735
14558W        W33412  13.357   2.312  13.964 -0.1110 -0.1119  0.1512
14559W        W33413   9.016   3.955   4.606  0.0096 -0.1247 -0.2565
14560W        W33414   9.152   9.527  11.507 -0.1642  0.1814  0.3313
14561W        W33415   7.923  16.025   4.212  0.0910 -0.1391  0.0845
14562W        W33416  11.899   1.610   1.108  0.1858 -0.4228 -0.1526
14563W        W33417   1.923  15.630   4.288  0.1511  0.0658  0.0492
14564W        W33418   9.147  15.051   3.231  0.0359 -0.1442  0.1326
14565W        W33419   9.094   1.583   1.328 -0.2796  0.0716 -0.4976
14566W        W33420  15.167   6.148   0.033 -0.0144 -0.1569 -0.0778
14567W        W33421  11.690   3.345  14.121 -0.1103 -0.1176 -0.1433
14568W        W33422   1.165   0.235   0.933  0.0583 -0.0636  0.0355
14569W        W33423  15.494  12.036   3.058 -0.0897 -0.1381  0.1003
14570W        W33424  13.734   4.941   1.998  0.0754  0.1461 -0.1721
14571W        W33425   9.087   8.052   4.480 -0.0089  0.0733 -0.0938
14572W        W33426  13.144   5.656   3.786  0.1261 -0.4968 -0.0117
14573W        W33427   0.749   6.651  11.020  0.1248  0.0379  0.3619
14574W        W33428  14.787  13.083  12.837  0.1949  0.2703 -0.0240
14575W        W33429  11.641   5.433  12.508 -0.1526  0.0838  0.0574
14576W        W33430  13.184  12.693  13.550 -0.1922 -0.2160 -0.0516
14577W        W33431   5.647   4.251  14.739  0.1428 -0.0638 -0.2300
14578W        W33432  11.893  17.573  12.464 -0.0476 -0.2998  0.1249
14579W        W33433  12.004   8.536  14.244  0.2034  0.1491  0.1270
14580W        W33434  10.482  11.645  13.387 -0.0696 -0.0542 -0.0616
14581W        W33435   5.927   8.291   3.902 -0.0924  0.0782  0.1456
14582W        W33436   0.331   7.918   9.534 -0.1655  0.3242 -0.1124
14583W        W33437   1.628   4.931  13.175  0.1561  0.0930 -0.0811
14584W        W33438   1.318  15.888   5.224 -0.5094  0.1616  0.0735
14585W        W33439  13.165   3.719   4.673 -0.2000  0.1392 -0.0492
14586W        W33440  13.747  13.995  14.509  0.0888 -0.3965  0.1852
14587W        W33441  14.214   5.779  11.643  0.1100 -0.0285 -0.0467
14588W        W33442  16.701  17.277  12.183  0.0562  0.0517  0.2239
14589W        W33443  14.829  15.972   1.350  0.0211  0.0115  0.2645
14590W        W33444   7.628   5.711   0.147  0.1174  0.5124 -0.3675
14591W        W33445  13.808  12.051   0.889  0.1682 -0.0795 -0.1993
14592W        W33446  12.912   8.517   4.744 -0.0288  0.2246 -0.0880
14593W        W33447  14.077  14.494   0.601  0.0963  0.0321  0.1130
14594W        W33448   5.323  16.436   1.194 -0.0526 -0.2411  0.0341
14595W        W33449   9.766   3.895  11.264  0.1003  0.0982 -0.1835
14596W        W33450   8.165   4.061   0.596  0.4368 -0.2348 -0.0724
14597W        W33451   8.202  17.509   2.775  0.5015 -0.2951 -0.1683
14598W        W33452  10.116   8.139  12.259  0.1485 -0.1984  0.1905
14599W        W33453  15.039   7.545  14.401  0.1593  0.0301  0.3707
14600W        W33454   4.877   0.765  15.069  0.0611  0.2096 -0.0116
14601W        W33455  10.327   6.184  11.905  0.0415 -0.0349  0.0990
14602W        W33456   6.585  15.971  11.812  0.2775  0.3622 -0.3412
14603W        W33457  18.539   7.200  11.289  0.1148  0.4065 -0.0148
14604W        W33458   3.318   6.598   1.542  0.3894  0.2909  0.1053
14605W        W33459   2.579  11.581  14.146  0.0005 -0.0602 -0.2132
14606W        W33460   9.863  12.968   3.552  0.0424  0.1213  0.1421
14607W        W33461  16.020  16.857  14.636  0.3473  0.1011 -0.1672
14608W        W33462   7.832   9.132  13.202  0.0508 -0.3232  0.0050
14609W        W33463   2.392  11.863   3.565 -0.0046  0.1705  0.0408
14610W        W33464  17.479   2.900   2.427 -0.0157  0.3892 -0.1295
14611W        W33465   8.347  18.400   0.225  0.0174  0.3148 -0.3640
14612W        W33466   4.600  17.878  14.403 -0.1369  0.0788 -0.0778
14613W        W33467  12.783  13.013   3.491 -0.1812 -0.1215 -0.2027
14614W        W33468  10.233   3.413   3.199 -0.1329  0.2858  0.1466
14615W        W33469  14.341  11.426   3.992  0.0175 -0.1981  0.2352
14616W        W33470   0.609   1.544   1.899  0.0151 -0.0219 -0.4213
14617W        W33471  18.653  11.747   2.826  0.3600 -0.0026  0.1401
14618W        W33472   2.680   9.470   0.073 -0.2490  0.0442  0.1856
14619W        W33473  18.402   8.461  15.006 -0.3073  0.1408  0.2668
14620W        W33474   3.010   0.411  12.639  0.0607 -0.1576 -0.1526
14621W        W33475  14.063   7.379   4.505  0.2564  0.0317  0.2049
14622W        W33476  14.092   5.764  10.221  0.2663  0.0947  0.0601
14623W        W33477   5.160  13.590   0.620 -0.2586 -0.0527  0.0545
14624W        W33478   8.656  16.612  12.859 -0.2414  0.1467 -0.0091
14625W        W33479  17.510  12.094  10.582  0.2623 -0.1011 -0.0748
14626W        W33480  10.075   3.131   4.475  0.0169  0.0053  0.2303
14627W        W33481   2.277  11.253  11.278 -0.2317 -0.0879 -0.2155
14628W        W33482  15.465   3.343  12.094  0.0861 -0.0720 -0.0674
14629W        W33483  11.579  16.021  12.333 -0.0456 -0.2900 -0.3571
14630W        W33484  13.415   0.890  13.633 -0.2825 -0.1724 -0.0036
14631W        W33485   0.384  11.733  13.126  0.0333 -0.0031  0.2828
14632W        W33486  14.673   5.495   2.453  0.3683 -0.0561  0.1203
14633W        W33487  11.358   2.900  11.878  0.1331  0.0480 -0.2510
14634W        W33488  12.060  12.081   5.289 -0.0340 -0.1972  0.1137
14635W        W33489  13.837   8.559  12.046  0.1339  0.0087  0.2582
14636W        W33490   1.760   1.887   0.337  0.0623 -0.1495  0.1121
14637W        W33491  12.442  17.992   1.725 -0.2360 -0.0318  0.0561
14638W        W33492  14.603  14.396   9.563 -0.2727 -0.1390  0.3868
14639W        W33493  12.430  15.287  14.645  0.1400 -0.3313  0.0060
14640W        W33494   4.546  16.995  11.066  0.0366  0.0064 -0.1289
14641W        W33495   8.375  13.444   4.111  0.0916  0.2843 -0.1604
14642W        W33496  17.473   5.745   2.125  0.2405 -0.1187 -0.1336
14643W        W33497  11.868  14.164   1.085  0.0467 -0.0070 -0.1334
14644W        W33498   7.314  10.245   3.764  0.2255 -0.2854 -0.1541
14645W        W33499   9.810   8.321   2.052  0.1809  0.0039  0.0872
14646W        W33500  16.236   1.576   9.450  0.0528  0.1526 -0.1424
14647W        W33501   2.472   9.522   0.571  0.1848 -0.0858  0.3067
14648W        W33502   6.147  17.184  11.736  0.0822  0.0120 -0.2631
14649W        W33503  15.916  17.424   0.123 -0.0706 -0.0533  0.0185
14650W        W33504   3.591   4.110   5.701 -0.1809  0.1767  0.0076
14651W        W33505  10.180   7.877  10.816  0.0282 -0.1793 -0.1912
14652W        W33506   4.285   3.520  13.077  0.1154  0.1653  0.0211
14653W        W33507   1.478  13.355   2.511 -0.2499  0.1527 -0.0080
14654W        W33508  14.372  12.785   3.080 -0.0236  0.1756  0.2734
14655W        W33509   5.281   4.220   4.836  0.1723  0.4487  0.2668
14656W        W33510  13.260  16.202  13.552  0.0016 -0.0937  0.1815
14657W        W33511  13.518  17.213   0.741  0.2008  0.1080 -0.0599
14658W        W33512  17.088   6.217  11.640 -0.0008 -0.1395  0.0662
14659W        W33513   2.058   5.161  14.827 -0.1001  0.1936  0.2328
14660W        W33514   8.435  18.226  11.674  0.2522 -0.4605 -0.0832
14661W        W33515  11.224  14.505  11.815  0.0785  0.0856  0.1238
14662W        W33516   1.782   6.194   3.129  0.3891 -0.1532  0.0464
14663W        W33517  17.670   4.796  11.977 -0.3530  0.0978  0.2304
14664W        W33518  10.606   5.205   9.693 -0.1355 -0.1531 -0.0270
14665W        W33519  11.686   6.724   0.572 -0.0944 -0.0871  0.0254
14666W        W33520   6.825  14.997  13.431  0.1686 -0.0582  0.2026
14667W        W33521  17.755  12.188  13.365 -0.1509 -0.1316  0.1712
14668W        W33522   8.239  16.791  14.935 -0.0065  0.0605  0.2807
14669W        W33523  17.743  14.326  11.683  0.0623 -0.0690 -0.0670
14670W        W33524   3.765  16.756  10.831 -0.0179 -0.0035 -0.0107
14671W        W33525  11.336   7.158   0.323 -0.1915  0.0263  0.2587
14672W        W33526   8.789  15.445   1.601  0.0411 -0.0858 -0.2922
14673W        W33527   4.668   2.585  14.981 -0.0522  0.0974 -0.3281
14674W        W33528  18.114   7.522   0.358  0.1258 -0.2317  0.0430
14675W        W33529  18.090   3.582  14.590 -0.0791 -0.1458  0.2587
14676W        W33530   9.836   9.312   1.927  0.1925  0.1452 -0.0593
14677W        W33531  17.728   5.571  14.874 -0.0745 -0.1209 -0.2522
14678W        W33532   2.670   7.245  11.494  0.0328 -0.2313  0.1276
14679W        W33533   0.086  14.162  14.933  0.1554  0.2162  0.2398
14680W        W33534   9.116  13.540   0.539  0.1421 -0.0214 -0.0058
14681W        W33535  12.838   2.174  13.726 -0.3074 -0.1007 -0.2930
14682W        W33536   8.255  16.017  12.928 -0.0813 -0.0401  0.1690
14683W        W33537  10.320  12.176   3.758  0.0464  0.2616  0.0153
14684W        W33538   6.548   4.572   3.949 -0.2359  0.2818 -0.0469
14685W        W33539  17.557  14.679   1.918 -0.0454 -0.1870  0.0904
14686W        W33540   9.400   5.400   1.427  0.0306  0.2199 -0.0266
14687W        W33541   5.845  13.935  11.202  0.2039  0.1793 -0.2147
14688W        W33542  12.202   7.715  14.522  0.1606 -0.1439 -0.3788
14689W        W33543   6.525  17.702  12.511 -0.0311  0.1811  0.0160
14690W        W33544   4.942   5.362   4.177 -0.4751 -0.0562  0.2782
14691W        W33545   9.894   8.656   2.580 -0.0252 -0.3136 -0.2912
14692W        W33546   4.830  15.853   2.405  0.0071 -0.2053 -0.2133
14693W        W33547  10.723  13.284  14.701  0.1366 -0.2030  0.0428
14694W        W33548  13.366   2.778  13.419 -0.1214 -0.2396  0.4292
14695W        W33549   2.015  10.694   3.324  0.3291  0.1081  0.0605
14696W        W33550   3.687   5.649  12.011  0.0517  0.1631  0.0638
14697W        W33551   5.436  11.247   1.000 -0.0411 -0.0329 -0.1169
14698W        W33552   3.304  10.128   3.435 -0.1357 -0.2504 -0.4394
14699W        W33553   3.028   5.555  10.923 -0.1111  0.3498  0.3316
14700W        W33554   6.247  12.926  14.779  0.0009  0.0666 -0.0506
14701W        W33555  11.505   0.041  15.093  0.0954 -0.0160  0.3635
14702W        W33556  16.102   3.304   3.742 -0.0882  0.1796 -0.2769
14703W        W33557   6.707  10.252   0.952 -0.2006 -0.0225 -0.0646
14704W        W33558   2.899   2.789   0.953  0.3075 -0.2687  0.2501
14705W        W33559   3.330  18.377   3.863 -0.0461 -0.2333 -0.0405
14706W        W33560   5.343   4.672   3.979 -0.2404 -0.0888  0.2322
14707W        W33561   7.469   6.142   0.430  0.1161 -0.0277  0.1389
14708W        W33562  14.537  15.800  13.130 -0.1155  0.2659 -0.0610
14709W        W33563   6.960  10.976  11.240  0.0919  0.2785  0.1860
14710W        W33564   6.505  16.952   1.379  0.1082  0.2487 -0.1106
14711W        W33565   6.197  10.196  15.111 -0.4767 -0.1383  0.0252
14712W        W33566   8.757  11.535   2.229  0.1753  0.2455 -0.0395
14713W        W33567  13.384   9.919  13.666 -0.0945  0.2093 -0.0655
14714W        W33568   4.685   8.873  10.931  0.0067 -0.1705 -0.2196
14715W        W33569  15.515  13.865   0.663  0.0821  0.1503 -0.1619
14716W        W33570   2.849   0.916   1.468  0.2023  0.1086  0.0801
14717W        W33571   9.032   2.507   1.268 -0.1513 -0.2755 -0.2536
14718W        W33572   3.016  13.597  11.470  0.0978 -0.1004  0.0533
14719W        W33573  11.034  10.447  14.366  0.0991  0.1808  0.2612
14720W        W33574  16.489  16.910   0.395  0.2077 -0.1089 -0.0494
14721W        W33575  13.328  16.147   4.531 -0.0236 -0.0801 -0.0539
14722W        W33576   6.585  14.892   0.739 -0.1035 -0.1171  0.1716
14723W        W33577   9.217   6.458   4.432 -0.2317 -0.0373 -0.2166
14724W        W33578   8.607   5.224   4.234 -0.1442 -0.1573  0.0010
14725W        W33579  18.609   5.736  11.117 -0.0157  0.0311 -0.1916
14726W        W33580  14.883   6.072  14.764  0.0419  0.0022  0.2953
14727W        W33581   4.898  15.700   1.931 -0.0528 -0.1223  0.0859
14728W        W33582   7.444   9.401  14.946  0.1227 -0.1353 -0.3212
14729W        W33583   0.082  16.864   3.802  0.2250 -0.0579  0.1904
14730W        W33584  11.858  14.494   3.691  0.0314 -0.1183 -0.0327
14731W        W33585   1.000   4.658  14.700 -0.3309  0.0661  0.1344
14732W        W33586  11.910   5.935   1.900  0.2419  0.1273 -0.1920
14733W        W33587  13.479   1.585   4.469 -0.2162 -0.2098 -0.3106
14734W        W33588   7.042  11.577   3.083 -0.2397  0.1929 -0.0177
14735W        W33589  16.633  11.109   1.968  0.0168 -0.1321 -0.2784
14736W        W33590   0.122   0.785  11.339  0.0907  0.1693 -0.1907
14737W        W33591   5.898   2.252  12.048  0.0698  0.0036 -0.0091
14738W        W33592   9.965   1.090   3.153 -0.0366 -0.0476  0.0221
14739W        W33593  15.584  11.727   4.751  0.1452 -0.2298  0.0752
14740W        W33594  17.365   2.565  11.277  0.0730 -0.0018  0.0229
14741W        W33595   0.224   8.850   1.120 -0.0485  0.0258  0.1726
14742W        W33596  18.452   0.948  12.209 -0.1269  0.2458  0.2921
14743W        W33597  12.182  15.468  13.020  0.0551  0.3056  0.0148
14744W        W33598  11.261   7.926   2.370 -0.3127 -0.0548 -0.0454
14745W        W33599  10.501   0.014   0.489 -0.1670  0.0699 -0.1477
14746W        W33600   2.013   3.679   4.289  0.0836 -0.0291  0.1346
14747W        W33601   0.069   3.518   1.709 -0.2040  0.1493  0.0435
14748W        W33602  13.178  13.147   3.220 -0.0658 -0.1125 -0.1051
14749W        W33603   3.758   9.370  11.669  0.0100 -0.1211  0.1168
14750W        W33604   6.924   3.503   3.095 -0.0988 -0.2762 -0.0943
14751W        W33605  14.274  14.331   4.246  0.3872  0.1011  0.3853
14752W        W33606  18.422  15.979   1.949  0.3676 -0.2436 -0.0230
14753W        W33607   3.962   5.334   3.307  0.0607 -0.0060  0.0708
14754W        W33608  12.376   1.448   1.094 -0.4715 -0.0961 -0.1200
14755W        W33609   6.081   6.861  14.225 -0.0577  0.1197  0.1947
14756W        W33610   9.143  16.686  11.150  0.1469  0.2156  0.3978
14757W        W33611  17.205   7.599  14.274 -0.2337 -0.1132 -0.0701
14758W        W33612  11.513   3.750   2.594 -0.1082  0.4082 -0.1865
14759W        W33613   9.660   8.200  14.106  0.0314 -0.1477  0.1626
14760W        W33614  17.505   9.421   2.642  0.1782 -0.1994 -0.1446
14761W        W33615   0.300   7.943   0.167 -0.0421 -0.0092 -0.0965
14762W        W33616   9.757  12.903  11.315 -0.1011 -0.0374  0.0154
14763W        W33617   6.438  17.246  12.535  0.0610  0.4458 -0.0497
14764W        W33618   6.484  13.921   2.661  0.1544 -0.1749  0.2113
14765W        W33619  13.388  16.327   1.930 -0.0336  0.0443 -0.0491
14766W        W33620   1.735   5.877  11.824  0.2043  0.0125 -0.2729
14767W        W33621  11.182   1.878  10.785  0.2111 -0.0649 -0.3799
14768W        W33622   0.395  13.353  13.406 -0.3396  0.1446 -0.6547
14769W        W33623  15.991   8.473  13.859  0.2159  0.0134  0.1163
14770W        W33624   4.591   4.304  14.493 -0.3461 -0.0020  0.0114
14771W        W33625  17.749  10.414  11.448  0.0401  0.1620  0.1729
14772W        W33626  14.853   9.875   4.398 -0.0501  0.2548  0.0995
14773W        W33627   4.894   9.182   2.896 -0.0857 -0.3632  0.3535
14774W        W33628  18.125  13.327   2.621  0.2366 -0.0409  0.1355
14775W        W33629   8.946  11.958  13.234  0.0674 -0.0806 -0.2853
14776W        W33630   7.769   1.482  13.706  0.1510  0.2036  0.1445
14777W        W33631  14.886  14.569   1.158  0.3851  0.1571 -0.1826
14778W        W33632  14.366   8.133  13.761 -0.1084  0.0175 -0.1191
14779W        W33633   9.159   3.680   5.564  0.0485 -0.2512  0.3793
14780W        W33634   6.319   2.763  14.475  0.0261  0.2458 -0.1605
14781W        W33635   4.455   6.801  13.423 -0.3019  0.0449  0.0476
14782W        W33636  13.487  15.740   2.953  0.0428 -0.5033 -0.5859
14783W        W33637   3.416   7.525   4.238  0.1209 -0.1392  0.0242
14784W        W33638  17.733  10.411  12.823  0.0135  0.1581 -0.1928
14785W        W33639   3.305   9.344  12.852  0.1052 -0.0239 -0.3785
14786W        W33640  12.770  13.200   4.152  0.0489 -0.0550  0.0733
14787W        W33641   0.197   4.655   0.485 -0.2136 -0.3314 -0.0130
14788W        W33642  17.608  13.798  14.779 -0.1999  0.3223 -0.1780
14789W        W33643   5.755   9.111   2.532 -0.3732  0.2015 -0.3575
14790W        W33644  11.559   0.916   0.565 -0.0846 -0.1785 -0.1842
14791W        W33645  18.793   5.594   2.418 -0.2763  0.0132 -0.2702
14792W        W33646   0.863   0.118  12.703 -0.0771  0.0683  0.1980
14793W        W33647  18.330   1.731  10.338 -0.0050 -0.3629  0.2754
14794W        W33648  13.769   8.988  14.122 -0.4411 -0.0128  0.1065
14795W        W33649  18.354  12.532   3.204 -0.0377 -0.2172  0.1430
14796W        W33650  13.886  18.032   1.407 -0.1981 -0.1243 -0.4313
14797W        W33651   7.797   4.291  12.024  0.0194 -0.1250  0.1400
14798W        W33652  16.471   8.879  14.055  0.3322  0.3473 -0.0350
14799W        W33653   2.322   8.142  11.186  0.1305 -0.1509 -0.0093
14800W        W33654   0.169   7.815  11.316  0.2211 -0.0701 -0.0194
14801W        W33655  10.658  15.480   1.838  0.1766 -0.1298  0.2087
14802W        W33656   0.398   9.695   3.979 -0.3110 -0.0796  0.0931
14803W        W33657   8.530   6.254   3.407 -0.0625 -0.1784  0.2641
14804W        W33658   5.672  13.156  12.260  0.1782  0.1787 -0.2461
14805W        W33659   7.976  17.026  10.868 -0.1021  0.1013  0.0284
14806W        W33660  15.995   7.412   3.209  0.0363 -0.1491 -0.1123
14807W        W33661   5.077  13.559  11.498  0.0131 -0.0620 -0.1536
14808W        W33662   0.726  13.750  10.948  0.0601 -0.2050 -0.1163
14809W        W33663   0.348  10.572   1.434  0.2228  0.2690 -0.0611
14810W        W33664   8.964  12.797   2.673 -0.2015 -0.0364  0.0314
14811W        W33665   5.253  12.355  13.841  0.1341 -0.2030 -0.0901
14812W        W33666   9.923   8.477  14.489 -0.3458 -0.0152 -0.1867
14813W        W33667   8.410   3.137   5.581  0.1938 -0.2626  0.1289
14814W        W33668  12.458   1.885   0.879 -0.1031  0.0032 -0.3073
14815W        W33669  11.161  13.268  13.193  0.2256  0.2796  0.0748
14816W        W33670  14.888   0.614   9.965 -0.1183 -0.0145  0.2297
14817W        W33671   0.786  18.583  11.382  0.1180 -0.1953 -0.0756
14818W        W33672  14.020  12.836  12.939 -0.0652 -0.0310  0.0671
14819W        W33673  10.309  15.534  14.912 -0.1363 -0.2162 -0.0204
14820W        W33674   3.085   6.928  14.450  0.1396 -0.1840 -0.1924
14821W        W33675  13.088   0.870  12.798  0.2208 -0.0554  0.0538
14822W        W33676  14.858  14.272   0.225  0.0771 -0.0553  0.1117
14823W        W33677   8.396  15.777   0.712  0.1525  0.1922 -0.0537
14824W        W33678   4.537   6.429   4.266 -0.2271  0.1282  0.2189
14825W        W33679   4.965   4.322   5.216  0.0669 -0.0993  0.0724
14826W        W33680  15.317  18.345   3.632  0.1714  0.0872 -0.0827
14827W        W33681   6.699  18.517  13.842  0.4374  0.0786  0.2363
14828W        W33682   6.634  11.981  13.403  0.1561  0.0306 -0.1649
14829W        W33683  10.964  18.162   4.433 -0.2012  0.0632 -0.2249
14830W        W33684   0.771   2.699  13.679  0.4267  0.1197  0.0316
14831W        W33685  12.873   5.534   0.791 -0.2440  0.0620 -0.2514
14832W        W33686  13.991   7.000  14.681  0.1144  0.0444 -0.0420
14833W        W33687  13.727   6.034   4.750 -0.1314 -0.0280  0.0380
14834W        W33688   1.179  12.533   3.252  0.3040  0.1212  0.0433
14835W        W33689   5.054   6.036  13.620  0.0113  0.1273  0.2361
14836W        W33690   0.270   8.199  14.215  0.1500  0.2895  0.1260
14837W        W33691  12.622   2.901   4.487 -0.1348 -0.0780  0.1363
14838W        W33692  17.434  15.314  10.861 -0.2460 -0.5203  0.3093
14839W        W33693   5.049  16.692   2.450  0.2940  0.0691 -0.0209
14840W        W33694  12.715  14.795  14.391 -0.1356 -0.0336  0.0106
14841W        W33695   8.659  11.693   0.557 -0.1848  0.0345 -0.0154
14842W        W33696   8.557   5.003   2.306  0.1553 -0.0643  0.1401
14843W        W33697  15.029   0.163   4.654  0.0121  0.4349  0.1195
14844W        W33698   1.201   0.096   2.111 -0.0914 -0.2256 -0.3384
14845W        W33699  14.877  12.251  12.833 -0.0142  0.2105  0.3386
14846W        W33700  12.098   3.620   1.648  0.0952 -0.1377 -0.1057
14847W        W33701  14.765   8.630   2.209  0.3472 -0.0389  0.0169
14848W        W33702   7.710  16.010   2.744  0.0657 -0.3735  0.2684
14849W        W33703   3.081  15.641  13.964  0.2161  0.0921  0.0079
14850W        W33704  12.268   5.184   3.188  0.0701 -0.1840 -0.0486
14851W        W33705   7.090   4.372   3.336  0.1729 -0.5409 -0.1461
14852W        W33706  15.940  12.783  12.230  0.0499 -0.1826  0.0658
14853W        W33707   0.865  18.392  13.726 -0.0861 -0.2398 -0.1499
14854W        W33708   6.551  17.796  11.920  0.1378 -0.2717  0.0109
14855W        W33709   9.794  11.117  10.520  0.1236  0.1210  0.0840
14856W        W33710   9.482  17.227  12.742 -0.2492  0.1199  0.0980
14857W        W33711   6.860  16.361  12.809  0.3538 -0.1196  0.3451
14858W        W33712   8.190   5.711  11.483  0.1275 -0.0509 -0.0944
14859W        W33713   8.464  13.110   0.958 -0.0620  0.1933  0.0574
14860W        W33714   6.125  16.922   2.209  0.4005 -0.0032 -0.1993
14861W        W33715   4.551  12.810   0.204  0.1287  0.0207 -0.2188
14862W        W33716   2.020   7.548   1.528  0.2407 -0.0926 -0.2585
14863W        W33717  15.736  17.091  13.341  0.0815 -0.1252 -0.3139
14864W        W33718  15.299   5.787   1.026  0.0245 -0.0130 -0.0647
14865W        W33719   6.658   3.636   0.946  0.1085 -0.1095  0.0045
14866W        W33720  17.815  11.546  14.397  0.2593  0.1689 -0.0080
14867W        W33721  14.836   6.624   3.739  0.0663 -0.0582  0.0380
14868W        W33722  15.508   5.328  14.000 -0.1456  0.0949 -0.0690
14869W        W33723   4.405  17.862   2.472  0.0342  0.4321  0.0384
14870W        W33724   0.215  10.659  12.325  0.2684 -0.1352 -0.0300
14871W        W33725   4.367  13.836  13.166 -0.0774 -0.2060 -0.2296
14872W        W33726   7.683   9.980  13.809  0.1495 -0.0507  0.1372
14873W        W33727   1.722   3.105  11.696 -0.1658 -0.0139  0.2777
14874W        W33728   7.318   7.351  13.574 -0.1108 -0.0151 -0.0314
14875W        W33729  10.260  11.991   1.273  0.0045 -0.0337 -0.2357
14876W        W33730  17.762  13.342   2.306 -0.0114  0.0665 -0.0796
14877W        W33731   0.936   0.765  11.499 -0.2734  0.1558  0.0804
14878W        W33732  10.013   2.361  10.730  0.0994 -0.0483 -0.0155
14879W        W33733  12.608   4.526  10.205  0.0173 -0.0851  0.0215
14880W        W33734  16.228   2.702  12.062  0.0542  0.0892  0.1048
14881W        W33735   7.771  17.687   1.334  0.3889  0.3086 -0.1639
14882W        W33736   5.298  16.849  12.946  0.1507 -0.0234 -0.1761
14883W        W33737  12.989  17.290  14.260  0.0162 -0.1240 -0.1440
14884W        W33738   1.031  14.239   1.706  0.3740 -0.0257 -0.3101
14885W        W33739   4.713  15.631  14.185  0.0010  0.0320 -0.0386
14886W        W33740  17.077   9.510   3.791 -0.1185 -0.2435 -0.1147
14887W        W33741  11.250  10.356   3.862 -0.0045  0.0464 -0.0268
14888W        W33742   3.276   5.222   3.844 -0.2190 -0.1271 -0.1797
14889W        W33743   6.952   2.135  10.913  0.1869  0.0281 -0.0247
14890W        W33744  11.756   0.243   9.865  0.0903 -0.1338 -0.0157
14891W        W33745  12.723  13.386   3.183 -0.1352 -0.1236  0.0639
14892W        W33746   8.692   7.438   2.663  0.0374 -0.1368  0.0151
14893W        W33747  17.009   2.368   3.458  0.3506  0.3663  0.0831
14894W        W33748  15.568  17.998   4.031 -0.1875 -0.0731 -0.1227
14895W        W33749   5.955  10.346  12.625 -0.1875 -0.3102 -0.2894
14896W        W33750  17.579   0.536   2.700  0.0852 -0.2439 -0.0283
14897W        W33751  18.025   6.373  10.725  0.3460 -0.0646  0.1805
14898W        W33752  11.691   4.746   4.046  0.0609  0.3742 -0.1232
14899W        W33753  10.191  13.209   3.832  0.0811  0.1094  0.1026
14900W        W33754  12.538  12.713   0.335 -0.0463  0.2206 -0.0661
14901W        W33755  15.574   2.622  13.680 -0.2784  0.0695 -0.2610
14902W        W33756  14.466  15.423   3.778 -0.0180 -0.1714 -0.2099
14903W        W33757  15.834  18.699  14.944  0.1636  0.3240  0.3789
14904W        W33758   4.205  10.180  11.737  0.1938 -0.0929 -0.1479
14905W        W33759   3.896   8.095   3.674  0.1067  0.2640  0.1043
14906W        W33760   8.041   3.435   4.010 -0.1980 -0.0083 -0.1103
14907W        W33761   9.389  14.356   1.781 -0.0297  0.2148  0.3367
14908W        W33762   3.273   7.553  13.224  0.1187 -0.0030  0.1193
14909W        W33763  15.058   0.049   1.254  0.0105 -0.0906 -0.1409
14910W        W33764  12.205   4.735  12.902 -0.2481 -0.2571 -0.0461
14911W        W33765   5.315   1.420  14.034 -0.1314  0.2043  0.0356
14912W        W33766  12.130  13.723   1.302 -0.2456 -0.0441 -0.0396
14913W        W33767  17.989   0.501  14.628  0.0256  0.2206  0.0937
14914W        W33768   8.104  17.349  10.524 -0.3465  0.1985  0.1346
14915W        W33769   4.691  10.221  11.889 -0.0781  0.3591  0.2103
14916W        W33770   5.785  14.878  12.624 -0.0070  0.0346 -0.2645
14917W        W33771   6.840  17.433   4.674  0.3987 -0.0623 -0.2189
14918W        W33772  13.190   9.891  12.013 -0.3456  0.1345 -0.2036
14919W        W33773   8.428   5.054   1.587  0.0949 -0.1086 -0.1941
14920W        W33774   5.681  10.692   4.036 -0.1170 -0.0544 -0.2446
14921W        W33775  14.264   2.276  11.478 -0.1246 -0.0503 -0.0667
14922W        W33776   2.730  11.327  11.472 -0.1580 -0.0676  0.0890
14923W        W33777  15.843   0.216   2.175 -0.0727  0.0627 -0.1270
14924W        W33778  18.445  10.843   1.892 -0.2082  0.0085 -0.0023
14925W        W33779  15.732   5.719   2.835 -0.3255  0.1241  0.2806
14926W        W33780   7.628   8.852   0.345  0.1184 -0.1062 -0.0418
14927W        W33781   9.945   9.691  14.638 -0.1439 -0.0346 -0.2391
14928W        W33782   1.050   3.330   1.526  0.2518 -0.1824  0.0455
14929W        W33783  16.955   8.124   2.642 -0.2708  0.0896 -0.0658
14930W        W33784   9.248  14.822  10.756  0.0758  0.1401 -0.0639
14931W        W33785   6.492   9.534  12.972  0.0609 -0.1302 -0.1533
14932W        W33786  15.391  12.740   2.035 -0.0364 -0.2665 -0.1123
14933W        W33787   8.526  15.982  12.501 -0.0417  0.3384 -0.0613
14934W        W33788  13.713  18.326   2.187 -0.2416  0.1714 -0.1263
14935W        W33789   2.800   9.910   0.990 -0.1742  0.0450 -0.1060
14936W        W33790   3.154   5.449  14.116 -0.0422  0.0708  0.0049
14937W        W33791  11.030  10.259  11.776  0.4486 -0.0435 -0.3876
14938W        W33792  12.693  12.060   2.931  0.4116  0.0432  0.0179
14939W        W33793   7.814   2.641   3.684  0.2562 -0.0671 -0.2978
14940W        W33794  14.980   5.334   1.202  0.0866  0.0959  0.1717
14941W        W33795  15.518   7.239  12.394  0.1475 -0.2959 -0.2048
14942W        W33796   7.437  18.664  11.332  0.3037 -0.4943 -0.3813
14943W        W33797   5.966   2.205  10.670 -0.1283 -0.3586  0.4540
14944W        W33798   2.183  11.380   1.885  0.1397  0.1253 -0.1833
14945W        W33799  17.704  13.747  13.640  0.1864 -0.2493  0.1586
14946W        W33800   1.365  13.888  15.092 -0.2433  0.1043 -0.0704
14947W        W33801  18.655  17.549   3.340 -0.0307 -0.0748  0.0273
14948W        W33802  15.056  13.149   0.361 -0.0327 -0.4338 -0.1947
14949W        W33803   2.897   0.372  10.242 -0.1511 -0.0440 -0.0189
14950W        W33804  17.344  16.020  13.653 -0.0371  0.0971 -0.2429
14951W        W33805  14.252  10.935   9.803  0.0495  0.4196  0.0999
14952W        W33806  18.368   8.504   1.187  0.1691  0.2998 -0.2250
14953W        W33807  10.687   5.532   1.832  0.0124 -0.0801  0.1622
14954W        W33808  17.430  17.350  10.731  0.0364 -0.3444  0.2251
14955W        W33809  16.276  14.845   0.565 -0.3730  0.0896  0.1904
14956W        W33810  18.619  13.712  15.062  0.0434 -0.2325  0.1591
14957W        W33811  13.401   6.442   1.808  0.1053 -0.0727 -0.1017
14958W        W33812   9.777  16.791   0.387  0.0272 -0.0538 -0.0299
14959W        W33813   5.782   7.989  10.685 -0.0002 -0.1701 -0.0860
14960W        W33814   6.274  15.313   2.952 -0.2007  0.0236  0.0949
14961W        W33815  18.194  17.652  12.407 -0.0520  0.3860 -0.2405
14962W        W33816   4.500   2.628  13.476  0.1056 -0.1311 -0.2733
14963W        W33817  12.765   9.153   2.022 -0.0012 -0.1070  0.1778
14964W        W33818  11.540   3.290   2.387 -0.0886 -0.0422  0.2150
14965W        W33819  13.668  17.398  12.565  0.2108  0.1332  0.3359
14966W        W33820   0.783  10.189  11.889  0.1430  0.1334  0.1822
14967W        W33821  12.845   8.079   1.571 -0.2092  0.3654  0.1258
14968W        W33822  13.930   3.505  14.159 -0.1137 -0.2788 -0.3197
14969W        W33823  13.119   0.415  10.635  0.1491 -0.2079  0.0075
14970W        W33824  13.883  13.609   3.013 -0.4867  0.0272  0.0297
14971W        W33825   5.048  13.896  13.131  0.1186  0.2110  0.1249
14972W        W33826  17.403  11.043   3.015  0.0421 -0.0489  0.1100
14973W        W33827  12.303  11.904   2.225  0.1980 -0.0670  0.2848
14974W        W33828   2.627  16.418   4.167 -0.0744 -0.1235  0.2207
14975W        W33829   8.444   0.940  13.235 -0.0188 -0.0474  0.0444
14976W        W33830   3.453   4.775   3.948 -0.2573 -0.3586  0.2203
14977W        W33831  13.902  17.862   3.048  0.0219 -0.0443 -0.0680
14978W        W33832  16.324  17.648  12.205 -0.1193 -0.1474 -0.1755
14979W        W33833  10.816  11.266  12.529  0.1075  0.5244 -0.0680
14980W        W33834  17.296   0.966   2.420  0.0459  0.2338  0.0000
14981W        W33835   5.633   1.942  12.887  0.3505 -0.4642 -0.1687
14982W        W33836   8.218   5.947   3.633 -0.0289 -0.1848 -0.2446
14983W        W33837  14.519   0.393   0.619  0.0579 -0.2932 -0.0111
14984W        W33838   2.364  15.277  14.514  0.2049 -0.1406 -0.0043
14985W        W33839   0.598  16.302   2.697  0.0532 -0.0947  0.0043
14986W        W33840   1.635  12.421  13.443 -0.1088 -0.0797  0.0727
14987W        W33841   6.409   6.998  12.642  0.1661  0.0675 -0.1715
14988W        W33842   2.797  16.550  12.835 -0.2086  0.0834  0.0485
14989W        W33843  15.548  11.618   1.739 -0.0578 -0.0157  0.0395
14990W        W33844   8.298   6.768  11.954 -0.2482 -0.1299 -0.0742
14991W        W33845   6.819  12.373  11.728 -0.3163  0.0152 -0.2607
14992W        W33846   6.458  17.110  14.296 -0.1994 -0.2119  0.1739
14993W        W33847  11.364  13.155   3.202  0.0938  0.1268  0.2392
14994W        W33848  17.624   5.935   3.497 -0.1394  0.2268  0.2372
14995W        W33849  17.902  16.249   2.225 -0.1243 -0.2271 -0.1614
14996W        W33850   3.868  18.818  12.523  0.0607 -0.2036 -0.0006
14997W        W33851   9.976  15.908   0.756  0.2700 -0.3349 -0.1325
14998W        W33852   2.403  17.077  11.429  0.0487  0.0458  0.1217
14999W        W33853  14.939   6.612  13.483  0.0730  0.0483  0.1795
15000W        W33854   1.901   5.330   5.314  0.0434  0.3190 -0.1685
15001W        W33855   6.002  13.550  13.445  0.4113 -0.0968 -0.1879
15002W        W33856  18.000   1.479  14.331  0.0372  0.3304 -0.1452
15003W        W33857  18.441  17.798  13.678 -0.2611 -0.2936  0.5268
15004W        W33858  16.522  18.649   1.527 -0.2906  0.1879 -0.2024
15005W        W33859   2.801   9.171  12.884 -0.0628 -0.0608  0.1333
15006W        W33860   2.059   2.226  13.754  0.4833  0.1190  0.1632
15007W        W33861   3.333   6.077   4.145  0.3247  0.2758 -0.1539
15008W        W33862   1.773  10.098  14.409  0.1033 -0.1021  0.1838
15009W        W33863  18.040  16.469   0.412  0.2407 -0.0161 -0.1353
15010W        W33864   1.239   9.081  10.222 -0.4162 -0.0515  0.0308
15011W        W33865   3.613  10.366  10.387 -0.1674 -0.0881 -0.1520
15012W        W33866  11.064   6.337  11.569 -0.0911 -0.0750  0.3328
15013W        W33867  17.333   3.771   0.066  0.1314  0.1497 -0.2414
15014W        W33868   0.339  10.073  12.582 -0.1090  0.0696 -0.1278
15015W        W33869   5.218   7.962  14.849  0.0262  0.0277  0.2133
15016W        W33870  13.574   9.993   2.678  0.0226 -0.0557 -0.1620
15017W        W33871  12.344   6.351  11.367  0.0645 -0.0678  0.2979
15018W        W33872  10.414  10.473   1.218 -0.2305 -0.3445  0.3414
15019W        W33873  16.493   5.512   3.374  0.1039  0.4334  0.1388
15020W        W33874  13.993   4.561   3.176 -0.2212  0.0246  0.0861
15021W        W33875  15.706  18.779  11.443 -0.0028  0.1836 -0.0183
15022W        W33876   2.822  10.049  14.594  0.0236  0.2181  0.6329
15023W        W33877   1.975  15.990   2.651  0.0381 -0.0614 -0.2924
15024W        W33878   6.975   9.358   4.463 -0.1516  0.0588 -0.1368
15025W        W33879  14.746   3.756   0.150 -0.1471  0.0708 -0.0399
15026W        W33880   8.400  11.860  12.321  0.1949  0.0800 -0.1521
15027W        W33881  10.202  14.119   1.351  0.1609 -0.1554  0.3575
15028W        W33882   5.894   3.753   0.887  0.2550 -0.0733  0.1282
15029W        W33883  13.852  10.326   4.277  0.1878  0.1004  0.2328
15030W        W33884   3.983  13.023  13.235  0.0505 -0.0483 -0.0898
15031W        W33885   5.967  17.475   4.467  0.2381  0.1216  0.0430
15032W        W33886  11.258   5.527   2.453 -0.1386 -0.0134 -0.4470
15033W        W33887  18.030   9.374   4.249  0.0957  0.0340  0.0513
15034W        W33888   8.534   6.919  14.143 -0.2040 -0.1021 -0.1918
15035W        W33889  16.936  14.457  14.273 -0.0795 -0.4550 -0.1302
15036W        W33890   6.705   1.836   2.085  0.2866  0.1280  0.3388
15037W        W33891   1.767   6.236   5.210  0.0728 -0.0812  0.1003
15038W        W33892   1.446  12.349  13.849  0.1039  0.4006 -0.0129
15039W        W33893  14.753  12.144  15.066  0.3669 -0.0582 -0.2981
15040W        W33894   9.642   0.619  14.037 -0.2292 -0.1559 -0.4117
15041W        W33895   1.754   3.178  13.998 -0.0548  0.2074 -0.1088
15042W        W33896  12.171   2.139  11.012 -0.3819  0.2865 -0.0734
15043W        W33897   7.169  17.989   2.654  0.0548  0.1522 -0.1598
15044W        W33898   9.517   3.219   1.757 -0.1100 -0.0176  0.1117
15045W        W33899   0.061  17.192  11.892  0.0689  0.2020  0.1163
15046W        W33900  11.493   4.205   0.631  0.1010 -0.1808 -0.0202
15047W        W33901   3.344  16.435   3.494 -0.1018 -0.0931 -0.1234
15048W        W33902  15.481   1.081   2.659 -0.2539  0.0317 -0.2734
15049W        W33903  17.500   7.284  11.108 -0.2613  0.1046  0.0714
15050W        W33904   7.548  14.206   2.050  0.4129 -0.1354 -0.0026
15051W        W33905  14.641  14.210   3.065  0.0930 -0.0925 -0.0499
15052W        W33906  12.260   7.658   3.378 -0.4129  0.1554 -0.2575
15053W        W33907  10.002   2.843  11.282 -0.1321 -0.0262  0.0890
15054W        W33908  12.075   2.802  11.514 -0.0314 -0.1089 -0.0912
15055W        W33909  18.220  18.345   0.736 -0.1298  0.1310 -0.1032
15056W        W33910   1.116   3.210   4.773 -0.1764  0.1288  0.0592
15057W        W33911  16.757   6.733   0.829  0.0921 -0.1511  0.0622
15058W        W33912  13.871   0.728   0.190 -0.1204  0.1370 -0.1314
15059W        W33913   4.873  17.757   3.921 -0.2247  0.1828 -0.0098
15060W        W33914  14.691  14.424  12.345  0.0895 -0.1760  0.0969
15061W        W33915   7.806  17.608  12.668  0.1276 -0.1636  0.2306
15062W        W33916   0.476   3.809   2.806  0.1531 -0.2024 -0.0184
15063W        W33917  16.679   9.750   1.523  0.0937 -0.1274  0.0621
15064W        W33918  16.669   3.648   1.625 -0.1158  0.1533  0.0982
15065W        W33919   3.828   6.867  11.468  0.5598 -0.2402  0.0466
15066W        W33920   2.447   8.268   1.437  0.3960 -0.0609 -0.2609
15067W        W33921  11.116   6.739   1.857 -0.4076 -0.0893 -0.1344
15068W        W33922  13.322   6.968   1.876 -0.2324 -0.2146 -0.2039
15069W        W33923   2.837  11.393   2.417 -0.0485  0.2395  0.2213
15070W        W33924   4.726  15.305  12.477 -0.3479 -0.0535  0.0846
15071W        W33925  10.281   6.651  13.708 -0.2033 -0.1555 -0.0659
15072W        W33926   2.053   2.982  14.979 -0.0976  0.2450 -0.2018
15073W        W33927   5.749  12.628  12.454  0.1186  0.2047  0.1614
15074W        W33928   0.689  12.481  13.497 -0.3592  0.2161  0.2249
15075W        W33929  15.428   4.315  10.746  0.1378 -0.1859  0.1988
15076W        W33930   2.229  12.712   0.182  0.0131 -0.2920  0.3404
15077W        W33931  17.378   0.374  13.931 -0.0470 -0.1681 -0.0335
15078W        W33932  11.509   9.311  12.691 -0.2037 -0.0875  0.0059
15079W        W33933   2.030  18.429  10.888 -0.3298  0.1137  0.1985
15080W        W33934  13.396   6.212  11.731  0.1342  0.0045  0.0042
15081W        W33935  17.492   8.084   0.701 -0.0701  0.0590  0.0028
15082W        W33936   4.789  12.092   1.344 -0.0407  0.0846  0.0560
15083W        W33937   1.611   1.071   0.065 -0.2135  0.3491  0.0523
15084W        W33938   9.784  13.228  14.048 -0.1564 -0.3455  0.3988
15085W        W33939   5.007   4.690  13.749  0.0354 -0.0891 -0.1003
15086W        W33940  16.212   5.955  11.293 -0.1680 -0.1731 -0.1305
15087W        W33941   9.306  16.871   3.277 -0.0526  0.0625  0.2490
15088W        W33942   8.517  15.043  13.802 -0.0852 -0.3654 -0.0850
15089W        W33943  12.618  14.589  11.455  0.0368 -0.3892 -0.0565
15090W        W33944   6.623  15.807   2.248 -0.1854  0.0094  0.0486
15091W        W33945   3.311  16.372  12.936 -0.1060 -0.2714  0.2036
15092W        W33946  10.924  14.471   4.269 -0.3497 -0.3537 -0.1460
15093W        W33947   1.583   8.739   2.447  0.1893 -0.3598 -0.1688
15094W        W33948   9.554  14.077  14.638  0.2263  0.0265  0.0579
15095W        W33949   7.011   3.993   2.987  0.0432  0.1794  0.1341
15096W        W33950   3.013  13.170   2.049 -0.1983 -0.0918 -0.0203
15097W        W33951   5.144   2.940  11.957  0.1729  0.1163  0.1597
15098W        W33952  11.675  12.270   1.573  0.1710  0.0671  0.0500
15099W        W33953   7.791   2.186  12.866  0.3148 -0.1232  0.2716
15100W        W33954  15.619  17.756   0.868 -0.2622  0.2440 -0.0628
15101W        W33955   6.861   2.643  11.931 -0.0569 -0.0240 -0.2069
15102W        W33956   5.125   5.000  12.109  0.1219 -0.1146  0.0804
15103W        W33957   0.361  16.321  15.057  0.1044 -0.1103  0.1785
15104W        W33958  18.538  15.538  11.092 -0.2027  0.2033  0.1297
15105W        W33959  17.122  14.513  13.242 -0.3099 -0.1833 -0.2596
15106W        W33960   6.857   1.386   2.161 -0.1122 -0.1120  0.1993
15107W        W33961  10.444   8.256  14.784  0.0239 -0.1027  0.0668
15108W        W33962  16.018   9.590  11.899 -0.3092  0.0100 -0.0997
15109W        W33963  14.751  13.244   4.549 -0.3523 -0.1920 -0.0622
15110W        W33964   3.277   4.410   0.326 -0.2512 -0.1853 -0.1398
15111W        W33965  11.367   0.805   3.454  0.1753  0.2281  0.1778
15112W        W33966  14.196  12.377  13.360  0.0096  0.0634 -0.0948
15113W        W33967  12.021   8.576   1.087  0.0347  0.0602 -0.0080
15114W        W33968  18.171  17.748  10.963  0.0135  0.0386 -0.0263
15115W        W33969  10.321  15.217   1.482 -0.0811 -0.0647  0.1626
15116W        W33970  13.749   2.471  13.219  0.0693 -0.2209 -0.1861
15117W        W33971   4.283  13.387  13.471 -0.3611 -0.0655  0.1173
15118W        W33972  17.480   7.758   4.405  0.0086  0.2167 -0.2283
15119W        W33973   9.487   5.796   0.910  0.0313  0.2086 -0.3877
15120W        W33974   6.697   0.021   2.802 -0.0222 -0.1135  0.0043
15121W        W33975   8.654   1.831  14.592  0.0667  0.0640  0.3067
15122W        W33976   6.632   1.851   3.750  0.0868 -0.1302  0.1821
15123W        W33977   2.328   3.451  12.625 -0.1348 -0.3964  0.0019
15124W        W33978   6.514   9.598  11.453  0.1043  0.2258 -0.0187
15125W        W33979   6.682  18.702  13.193 -0.0507  0.0016  0.1394
15126W        W33980  16.718  14.124  13.918  0.2122  0.1209 -0.1642
15127W        W33981   3.410   5.638  12.499 -0.4097  0.1412 -0.3512
15128W        W33982  10.834   6.600  13.641  0.2813 -0.0678 -0.0082
15129W        W33983  17.590   0.892  13.664 -0.0678  0.4876 -0.1073
15130W        W33984   3.560   3.149  13.959 -0.1200 -0.1909 -0.0418
15131W        W33985  12.595   4.323   2.850  0.0105  0.0098  0.1688
15132W        W33986   1.480   6.123  14.330 -0.2205 -0.2763 -0.3771
15133W        W33987   3.021   9.565  13.666 -0.2687 -0.3782 -0.1740
15134W        W33988  17.312  15.863  10.584  0.0572  0.0725 -0.1469
15135W        W33989   1.382  11.513  13.024  0.0989 -0.2319 -0.2209
15136W        W33990   1.441  10.942  11.467  0.2162  0.1013  0.0814
15137W        W33991   3.909  12.192  14.274 -0.0233 -0.0176  0.1856
15138W        W33992  18.503   9.049  13.206 -0.1629  0.2477  0.0429
15139W        W33993   7.579  12.271  14.904 -0.0824 -0.0374 -0.2157
15140W        W33994   5.536   7.047  10.966  0.3123  0.1967  0.0432
15141W        W33995   1.059   8.536   4.163 -0.0520  0.1494 -0.3397
15142W        W33996   1.199  15.591   2.415  0.1202  0.0562  0.2023
15143W        W33997  15.731  17.004  14.242  0.1953 -0.2281  0.2407
15144W        W33998   8.199   9.110  12.813  0.1845  0.0572 -0.2304
15145W        W33999   8.465   5.630   1.618 -0.1689  0.2449 -0.3382
15146W        W34000  15.712  10.871   1.108  0.3650 -0.0426 -0.1052
15147W        W34001   5.561  11.346   3.004 -0.1121  0.2492 -0.1356
15148W        W34002  16.704   0.384  10.928 -0.0943 -0.0157  0.1013
15149W        W34003   3.854  18.754   4.399 -0.5470 -0.0249 -0.0055
15150W        W34004   9.721  17.888  14.010 -0.1293 -0.1609 -0.1795
15151W        W34005  14.902  16.303  14.176  0.3012  0.2204 -0.0845
15152W        W34006   2.456  16.238   3.679  0.2160 -0.0870  0.1087
15153W        W34007   9.254  13.491   3.858 -0.3396  0.0600  0.4798
15154W        W34008   5.016  16.551  12.037  0.1876  0.0675  0.0621
15155W        W34009   7.177   5.190  13.316  0.0687 -0.1145 -0.2450
15156W        W34010   4.857   5.931  12.414 -0.1385 -0.1530  0.0784
15157W        W34011   3.482  13.313   2.299 -0.3092 -0.0669 -0.2055
15158W        W34012   0.236   5.094  14.943 -0.1756 -0.0763 -0.1214
15159W        W34013  10.894  10.704   1.341 -0.1545  0.2092  0.3620
15160W        W34014  10.788  10.226   0.390  0.1336 -0.1507 -0.1664
15161W        W34015  18.690  10.994  12.131  0.3990  0.0127 -0.0564
15162W        W34016  16.374  13.864  11.809  0.0821  0.1241  0.0513
15163W        W34017  13.328  13.569  10.214  0.1998  0.0633 -0.0846
15164W        W34018   6.902  17.085   3.565  0.3965 -0.2107 -0.2057
15165W        W34019   2.268  12.611   3.100 -0.0815 -0.1573  0.0290
15166W        W34020  10.791  11.711   4.425 -0.0434 -0.0014  0.2891
15167W        W34021   0.329   8.259   2.860 -0.0752  0.5514  0.3750
15168W        W34022  17.054   2.155   4.427  0.1032 -0.0239  0.0377
15169W        W34023   3.593  15.008   1.444  0.1688  0.3903 -0.0850
15170W        W34024   1.207  18.002   3.394 -0.2107  0.1255 -0.2130
15171W        W34025   9.089   9.787   0.379  0.0076 -0.0311 -0.0374
15172W        W34026   0.778   4.411   1.628 -0.0324  0.0221 -0.1573
15173W        W34027   9.030  14.579   3.057  0.1869  0.1818 -0.0964
15174W        W34028   2.780  11.476  12.897  0.0729 -0.1171  0.2935
15175W        W34029  14.280   8.661   1.364 -0.3214 -0.3204 -0.1392
15176W        W34030   3.306  10.315   1.768  0.0061 -0.2817  0.0566
15177W        W34031  14.213   1.134   9.614  0.0518  0.0462 -0.4704
15178W        W34032   2.996   3.136  11.813 -0.0729  0.3764 -0.0450
15179W        W34033  12.136   6.960  12.785  0.1005 -0.0304  0.1209
15180W        W34034  13.817  11.288   2.800  0.0676  0.1831 -0.0914
15181W        W34035   9.701  15.500  14.144  0.0263  0.0565  0.0839
15182W        W34036   3.456   2.417  13.395  0.3119  0.3766  0.0295
15183W        W34037  16.687   2.513   0.578 -0.0470  0.1275  0.1361
15184W        W34038   3.335   0.424   3.874 -0.2510 -0.3560  0.0833
15185W        W34039   0.048  18.576  13.027 -0.1629 -0.0290 -0.3725
15186W        W34040  11.316   2.584  13.058 -0.2251  0.0350  0.0859
15187W        W34041   9.096   6.834   3.532 -0.0642 -0.1667 -0.0073
15188W        W34042  15.238   1.149   3.490 -0.0972  0.0778 -0.0555
15189W        W34043   0.698   7.068  14.262  0.2062 -0.0135  0.0744
15190W        W34044   8.988   8.593  12.905 -0.0863  0.0149 -0.0310
15191W        W34045  10.435   2.211   4.581  0.2728 -0.1016 -0.0589
15192W        W34046  17.272  15.249  14.835 -0.0097  0.0948  0.0655
15193W        W34047   7.243  12.829  11.239 -0.0674  0.1138  0.0592
15194W        W34048   9.229   2.052  11.116 -0.1781  0.1319 -0.0805
15195W        W34049   7.113  14.609  11.426 -0.0714  0.2738 -0.3059
15196W        W34050   3.366   2.953   2.648  0.0625 -0.1260  0.2335
15197W        W34051   4.464   8.553  14.428  0.1147 -0.2149 -0.1755
15198W        W34052  14.739  12.227  14.289 -0.1989 -0.2107  0.2516
15199W        W34053  11.026   0.389  12.654  0.0405 -0.1792 -0.2541
15200W        W34054   5.840  13.824   1.605 -0.2970 -0.1211 -0.0481
15201W        W34055  11.813  17.088  11.053 -0.0450  0.0690 -0.2515
15202W        W34056   3.918  11.044  11.028 -0.1863 -0.5134  0.2013
15203W        W34057   3.919  18.706  14.266 -0.1814 -0.1808  0.3356
15204W        W34058   4.848   2.431   1.790 -0.2398  0.2057  0.1547
15205W        W34059   9.053   8.695   3.253  0.1342 -0.0335  0.2142
15206W        W34060  14.362   8.160   3.289  0.2127 -0.0654 -0.0984
15207W        W34061  10.893  10.777  14.718 -0.1420  0.1671 -0.1316
15208W        W34062  11.313  14.592  14.973  0.0971  0.0011  0.0916
15209W        W34063   2.451  12.243  12.906  0.2228  0.0467  0.0504
15210W        W34064  13.672  15.758   4.344 -0.0425  0.2572  0.2771
15211W        W34065   9.601  10.357  13.281  0.0739  0.1040 -0.0492
15212W        W34066   0.490  15.137  14.774 -0.1194 -0.1269  0.2681
15213W        W34067   3.458  17.022   1.943  0.0346  0.0003  0.0925
15214W        W34068  16.165  16.653  11.243  0.1078  0.0653  0.3314
15215W        W34069   4.064  17.044  11.161  0.0460 -0.1455 -0.0807
15216W        W34070  12.632  10.422  13.970 -0.1387  0.1376 -0.0647
15217W        W34071   4.487  15.236   2.580 -0.1301  0.0939  0.0582
15218W        W34072   1.202  14.105   3.404 -0.1074  0.0134 -0.1019
15219W        W34073  16.152   3.335   4.754 -0.0607  0.2567  0.0706
15220W        W34074  10.826   2.436   0.887 -0.0295 -0.0346 -0.1535
15221W        W34075  11.683   7.624   2.486 -0.2034 -0.4413 -0.2417
15222W        W34076  12.474   8.965   2.671 -0.0679 -0.0833  0.2041
15223W        W34077  11.139  17.902   1.029  0.2802 -0.0772  0.0728
15224W        W34078  15.860   7.419   2.149 -0.2055 -0.3067  0.2835
15225W        W34079  13.222  18.383   3.160  0.3075 -0.0659 -0.3200
15226W        W34080  18.209   5.530  12.182 -0.1642  0.1510 -0.0299
15227W        W34081  17.710  18.520   1.062 -0.1041 -0.0904  0.2156
15228W        W34082  15.800  10.131  12.015  0.2265  0.1647  0.2906
15229W        W34083   1.378   2.565   1.843 -0.2303 -0.2096  0.0004
15230W        W34084  10.885   9.677  10.693 -0.1874 -0.2401  0.0041
15231W        W34085   1.712   2.611  15.005 -0.2902  0.4778  0.0739
15232W        W34086   2.881   5.834  13.302  0.2181  0.1976 -0.0734
15233W        W34087  17.539   2.158   0.185 -0.2649 -0.0749 -0.1831
15234W        W34088  10.442   6.840   0.583 -0.3310 -0.0989  0.0646
15235W        W34089   7.596  17.207   0.328 -0.0970  0.0369  0.2077
15236W        W34090  10.623  15.607   0.231 -0.3057  0.3811  0.0123
15237W        W34091   8.952   9.548   0.879  0.1610 -0.0695  0.1810
15238W        W34092   2.061  12.087  11.562 -0.5382 -0.3268 -0.0308
15239W        W34093   1.005  14.141  13.270  0.1977 -0.0128 -0.1531
15240W        W34094   3.627  14.444  14.518  0.2910 -0.0938  0.0387
15241W        W34095   4.345   8.206   1.947  0.0492  0.3209  0.2357
15242W        W34096   5.774   3.211  11.600  0.0969 -0.2380  0.2989
15243W        W34097  15.135  13.771  11.674 -0.1610  0.0723 -0.3358
15244W        W34098  18.699   4.087   3.015 -0.1285 -0.1034  0.0632
15245W        W34099  14.324  18.105   3.252 -0.0008  0.0237 -0.0863
15246W        W34100  18.489   3.732  14.935  0.0911 -0.1665  0.0725
15247W        W34101  14.707  16.069   2.190  0.3261  0.2006  0.1408
15248W        W34102  16.620  14.552   3.211 -0.1688  0.1324  0.1076
15249W        W34103  12.371  15.234   0.534 -0.1403 -0.0439  0.2514
15250W        W34104  10.606   7.852   4.256 -0.0668 -0.3329 -0.1929
15251W        W34105  11.511  15.285   1.907  0.1667 -0.0549  0.0936
15252W        W34106  15.516   0.076   3.462  0.1142  0.1002  0.1334
15253W        W34107   5.208  14.577   3.303 -0.0930  0.1340  0.0885
15254W        W34108  11.702   0.891   3.837  0.2491  0.0610 -0.2345
15255W        W34109   7.931  10.759  13.775  0.1186  0.1138  0.1563
15256W        W34110   9.571  13.588  14.828  0.0099 -0.3252 -0.1279
15257W        W34111   0.594   4.785   1.292 -0.1367  0.2640 -0.0357
15258W        W34112   8.127   7.251  12.687 -0.0413 -0.2766  0.0927
15259W        W34113   2.657  10.376   9.465 -0.2142 -0.2443 -0.1478
15260W        W34114  13.709   7.794   3.811 -0.0986 -0.2271  0.1423
15261W        W34115  16.840   5.620   3.716 -0.1828 -0.2049  0.0336
15262W        W34116  16.705  13.655  14.266 -0.1471  0.0299 -0.2695
15263W        W34117   7.806   6.260   3.938 -0.1284  0.0237  0.0784
15264W        W34118  14.441  14.171  14.079 -0.0256 -0.1003  0.0290
15265W        W34119  17.312   5.500   3.561  0.0699 -0.0364  0.2770
15266W        W34120   1.147  14.215  11.644 -0.1601  0.0444 -0.1752
15267W        W34121   8.102   9.190   1.312  0.2588  0.1059 -0.1141
15268W        W34122   0.484  14.981   4.125  0.0334  0.3580 -0.2770
15269W        W34123   4.169  16.494  10.125  0.2030  0.2354 -0.0244
15270W        W34124   4.996  16.898   2.991 -0.4625  0.2367  0.0392
15271W        W34125   0.857   9.763   3.802 -0.0363 -0.2807  0.4390
15272W        W34126  15.363  15.333   3.873  0.3075  0.1749  0.0324
15273W        W34127  18.332  18.825  11.091 -0.1156  0.0028  0.5319
15274W        W34128  12.324   1.975  14.535 -0.0809 -0.0571 -0.2019
15275W        W34129   1.710  18.220   2.478  0.2093 -0.2007 -0.1057
15276W        W34130   0.097  16.208  11.592  0.0428 -0.0789  0.0995
15277W        W34131  10.884   1.459  13.181 -0.2408  0.0465  0.0062
15278W        W34132  18.203   3.434   3.852 -0.0106  0.2591 -0.0954
15279W        W34133   1.107  13.417  15.004 -0.3418  0.1467  0.3221
15280W        W34134  12.186   0.571   9.773  0.1174  0.1565  0.0088
15281W        W34135  11.308  16.462  13.055  0.1937  0.2394  0.1173
15282W        W34136  11.617  14.627  11.464  0.2455 -0.3228 -0.0276
15283W        W34137   8.139  14.296  10.957 -0.1288 -0.3416 -0.0826
15284W        W34138   7.276   8.953   2.769 -0.1328  0.1586  0.0670
15285W        W34139   6.452   5.232   5.061  0.1671  0.0137 -0.3802
15286W        W34140   6.762  11.730   2.695  0.0409  0.0222  0.0047
15287W        W34141   0.605   6.816   0.494 -0.0455  0.0448 -0.0325
15288W        W34142  14.750  15.518  14.019 -0.2965 -0.1531 -0.1248
15289W        W34143  11.870  12.616   2.666  0.1765 -0.0990  0.1116
15290W        W34144  12.829  16.252  12.737  0.2785 -0.2671  0.3033
15291W        W34145  16.561  12.821  14.236  0.1965 -0.2460  0.0880
15292W        W34146  16.618   3.440   3.937  0.2113  0.1545  0.0241
15293W        W34147  16.872   7.314   3.517  0.0592  0.0085  0.0273
15294W        W34148   1.879  14.819  10.868  0.2878 -0.1307 -0.0091
15295W        W34149  11.433   4.481  11.579 -0.0489  0.1885  0.0929
15296W        W34150  18.435  17.246  11.808  0.1550 -0.2253  0.0720
15297W        W34151   9.465  16.692   0.799 -0.2726  0.0570 -0.3558
15298W        W34152  15.284  15.423   0.922  0.0568  0.4406 -0.0046
15299W        W34153   7.747  10.425   2.808  0.0295 -0.0304  0.0641
15300W        W34154   3.813  13.152   3.739  0.2389 -0.0338  0.0552
15301W        W34155  13.257  11.507   4.042  0.1722  0.1335  0.1512
15302W        W34156   2.624  15.908   1.403  0.0398  0.2768 -0.0833
15303W        W34157   1.302  10.049   0.074  0.1112 -0.4697  0.1511
15304W        W34158   3.127  12.595  13.615  0.2489 -0.1586  0.1191
15305W        W34159  11.888   5.308  14.081  0.0753  0.1339  0.1295
15306W        W34160   6.228   2.678   3.410 -0.0980 -0.0481  0.0654
15307W        W34161   1.260   0.851  11.876  0.3109  0.0996  0.0463
15308W        W34162  16.371  14.341   3.603  0.1905  0.1050  0.1486
15309W        W34163   2.396  14.896  10.574  0.2029 -0.1927 -0.1056
15310W        W34164  18.392   8.694  14.549  0.1227  0.2558  0.0585
15311W        W34165  16.232  18.023  11.307  0.1164 -0.1413 -0.1392
15312W        W34166   7.118   2.248  13.606  0.0405  0.2751  0.1359
15313W        W34167   7.848  18.611  12.431 -0.1434 -0.2735  0.4563
15314W        W34168  10.151   3.825   4.626 -0.2095 -0.2019 -0.0098
15315W        W34169   6.713   9.820  10.992 -0.1704 -0.1239 -0.0994
15316W        W34170  11.203   4.796   3.901 -0.1009  0.0896  0.0469
15317W        W34171   3.852  13.194  12.728 -0.1123  0.2071  0.0462
15318W        W34172  18.409  15.400   3.457  0.0442 -0.1051  0.6310
15319W        W34173  18.756   7.356  14.438  0.1962  0.1910  0.0478
15320W        W34174   4.490  12.717  13.635 -0.2318 -0.0085 -0.1606
15321W        W34175   4.326   0.038   0.392  0.1566  0.0158 -0.3588
15322W        W34176   9.185   2.337   0.870 -0.1743  0.2947 -0.3800
15323W        W34177  14.783  18.588   3.830 -0.2881  0.0867 -0.0396
15324W        W34178   9.149   7.109   0.817  0.0033 -0.1126  0.2713
15325W        W34179   4.154  17.511   4.783 -0.1790  0.0068 -0.2176
15326W        W34180  15.364   2.251  14.043 -0.3564  0.0745 -0.3575
15327W        W34181  10.142   1.785   3.261 -0.1634  0.0956 -0.3270
15328W        W34182   5.874   6.049   4.043 -0.1743  0.0382  0.0069
15329W        W34183   9.482   1.174   3.038  0.2444  0.0919  0.0229
15330W        W34184   8.512  18.844  13.057 -0.3576  0.0992 -0.1617
15331W        W34185   0.600   2.160  10.813 -0.0856  0.0374 -0.0508
15332W        W34186   1.536  17.238   3.746  0.1326  0.3004  0.0581
15333W        W34187  14.725  11.244  14.437  0.1686  0.0992  0.2409
15334W        W34188   4.824  16.691   3.416  0.0859 -0.0303  0.1566
15335W        W34189  15.954   7.953  11.223 -0.0254 -0.1382 -0.0488
15336W        W34190  15.646   6.270   1.781  0.0563  0.0883 -0.2373
15337W        W34191   8.973   0.521   1.212  0.0687  0.2550 -0.2171
15338W        W34192   7.825   6.434   4.585 -0.1774 -0.4656  0.5990
15339W        W34193  13.361  12.254   2.340 -0.2171  0.2746  0.2163
15340W        W34194  11.638   2.958   5.072  0.0008  0.0147  0.0890
15341W        W34195   4.155  16.968  12.045 -0.0638  0.0966 -0.0862
15342W        W34196   4.953   4.959   4.486  0.3208 -0.1250 -0.2573
15343W        W34197   4.567   7.822  12.320  0.0510  0.0461  0.0569
15344W        W34198   4.691  10.866  13.353  0.2831 -0.1511 -0.3681
15345W        W34199  17.880  18.650   2.607  0.0090 -0.2815  0.4152
15346W        W34200   9.258  18.341   0.739  0.0091 -0.0446  0.0101
15347W        W34201  18.424   2.395  14.299 -0.0112  0.3261 -0.2072
15348W        W34202  12.160   1.296   3.677  0.2266  0.1901  0.1831
15349W        W34203   5.961  14.937   0.419  0.0123 -0.3159 -0.0831
15350W        W34204  10.323  11.484   2.175  0.4694  0.1502 -0.0911
15351W        W34205  15.391  13.485  14.304 -0.0973 -0.2653 -0.3131
15352W        W34206   3.856  11.804   0.574 -0.1243 -0.1152  0.2329
15353W        W34207   8.087   8.318   3.281  0.2898 -0.4012  0.2071
15354W        W34208   9.847   3.315   2.135  0.0758 -0.0990  0.0489
15355W        W34209  12.555  15.943   3.650  0.1279  0.0128 -0.0486
15356W        W34210   6.416  11.462  13.576  0.3715 -0.1218  0.0841
15357W        W34211   7.875  18.545   3.878  0.0825 -0.0468 -0.1413
15358W        W34212   3.106  15.960   3.557  0.1024  0.1115 -0.1165
15359W        W34213   3.001  18.424  12.109 -0.0769 -0.0951  0.1889
15360W        W34214  11.747  15.089  11.371  0.0847  0.2311  0.4022
15361W        W34215   8.425   7.686  12.858 -0.1052 -0.2187  0.1535
15362W        W34216  14.793  11.968   0.953 -0.0880 -0.0282  0.0912
15363W        W34217  16.472  18.089  12.311  0.1190 -0.1087 -0.2053
15364W        W34218   5.716   7.310   4.596 -0.1454  0.1752  0.0285
15365W        W34219  10.726   3.966  12.207  0.1369 -0.0540 -0.1551
15366W        W34220  11.957  14.521   1.939 -0.0212 -0.2460 -0.0063
15367W        W34221   2.459  13.135   3.234 -0.2219  0.2367  0.1434
15368W        W34222  18.472  17.675  13.188  0.0815  0.1475 -0.1383
15369W        W34223   1.289  11.523   0.333  0.1032  0.1252  0.0619
15370W        W34224  11.364   9.293  15.051 -0.1374 -0.1364  0.2702
15371W        W34225   6.471  11.707  14.456  0.0318 -0.1129  0.1749
15372W        W34226  11.259  10.346  13.770  0.0857  0.1695  0.1730
15373W        W34227  16.343   5.459  12.481 -0.0350  0.0421  0.0838
15374W        W34228  15.901  12.692   0.951 -0.2318  0.3313  0.2583
15375W        W34229   5.360  18.278  14.734  0.0155 -0.3872 -0.0510
15376W        W34230  11.326   6.076   3.226  0.0082  0.1325 -0.1465
15377W        W34231  10.653   0.861  13.821 -0.0231  0.3133 -0.0907
15378W        W34232  17.021  17.472   1.944 -0.1690 -0.3563 -0.0527
15379W        W34233  11.571   1.406   0.809  0.0593 -0.0410 -0.0207
15380W        W34234   7.550   5.621   1.451 -0.0336 -0.0992  0.0128
15381W        W34235   3.289   6.048  13.175  0.0142  0.0765 -0.2843
15382W        W34236  12.831   4.826   2.167  0.1583  0.2041 -0.2014
15383W        W34237   7.428  15.506  11.852 -0.2042 -0.0461  0.0397
15384W        W34238   1.122   0.634   0.393  0.0550 -0.3028  0.0382
15385W        W34239  10.502   8.363  13.800  0.1456 -0.0055  0.0149
15386W        W34240   4.911   2.492  11.812 -0.1817  0.1777  0.0135
15387W        W34241  13.211  10.985   3.832  0.0894 -0.2080  0.4095
15388W        W34242  16.062  10.985  13.666  0.2432  0.1938  0.2063
15389W        W34243   7.694  16.589  12.446  0.1085  0.1926  0.0959
15390W        W34244   7.571   1.257   9.906  0.1091  0.2143 -0.3811
15391W        W34245  14.523  11.043  11.464  0.0319 -0.0129  0.2974
15392W        W34246  13.910   3.973  14.355  0.1704  0.1808 -0.0304
15393W        W34247   1.999   1.372  10.233  0.1356 -0.0830 -0.1501
15394W        W34248  14.576   5.868   2.754  0.1306 -0.3843 -0.0035
15395W        W34249   3.728  15.528   1.414 -0.1286 -0.0345 -0.3243
15396W        W34250  13.382   4.305  12.289  0.1915  0.0832  0.2250
15397W        W34251   0.890   1.876   3.919  0.0046  0.0386  0.0906
15398W        W34252   0.308   4.753  11.660 -0.0938  0.0679 -0.2804
15399W        W34253   6.970  16.205   1.615  0.1983 -0.5076  0.1169
15400W        W34254   4.004   2.044   2.251  0.0542  0.2079  0.0986
15401W        W34255   3.272   6.203   0.005  0.1117  0.2367  0.3688
15402W        W34256   0.486   7.886  14.565 -0.1790  0.0278  0.1696
15403W        W34257   3.780  12.834   1.687 -0.4424 -0.1766 -0.2290
15404W        W34258   0.431   4.210   3.384  0.2979  0.0382  0.1450
15405W        W34259   0.202  11.617   0.762  0.0020 -0.1304 -0.0333
15406W        W34260  11.653  10.556  14.819 -0.2664 -0.0946  0.1661
15407W        W34261  12.731  12.766  11.145  0.1474  0.2323 -0.2170
15408W        W34262   4.063   2.457  13.288  0.4576 -0.0317  0.0893
15409W        W34263   6.388   1.044  13.716  0.1087 -0.2480 -0.3407
15410W        W34264  13.934   5.030  13.423 -0.1812 -0.1086  0.0086
15411W        W34265  13.824  10.990   3.229 -0.3270  0.0281 -0.2201
15412W        W34266  13.014   4.895   3.566 -0.2220 -0.2064 -0.1367
15413W        W34267   7.613  16.459  13.362 -0.1281  0.3266 -0.4098
15414W        W34268  14.442   1.728   1.888 -0.2565 -0.3273  0.0867
15415W        W34269  12.890   8.908  14.394  0.0336 -0.1064  0.2740
15416W        W34270  13.847  11.711  12.165  0.2210  0.1209 -0.1853
15417W        W34271   9.296   7.549   0.114  0.0779 -0.2932  0.0823
15418W        W34272   6.601   4.843  11.583 -0.2359 -0.0702  0.1837
15419W        W34273   2.581  11.920  12.557  0.2912  0.2227 -0.1322
15420W        W34274  12.534  11.900   3.902  0.1659  0.2111  0.1469
15421W        W34275  10.538  11.895  14.809  0.5146  0.0709  0.0270
15422W        W34276  13.851  11.540   4.019  0.2227 -0.1518 -0.0456
15423W        W34277  15.260  16.491   4.614  0.1097 -0.2846 -0.2908
15424W        W34278  18.816   9.592   0.506 -0.1665 -0.2923  0.0549
15425W        W34279   9.373   1.673  12.083  0.1999  0.2343 -0.1852
15426W        W34280  16.859   8.879   9.926  0.0230  0.0834  0.0622
15427W        W34281   5.794  12.659   0.937 -0.2819  0.0912  0.0463
15428W        W34282   2.558   4.208   2.504  0.0849  0.0711 -0.3846
15429W        W34283  17.658  16.576  12.970 -0.2795 -0.1851  0.1915
15430W        W34284  13.929   9.272   0.632  0.0041  0.0853 -0.2705
15431W        W34285   9.136   4.374  12.282 -0.2254  0.1675 -0.2962
15432W        W34286  13.199  12.405   0.203  0.4129  0.2892 -0.0775
15433W        W34287  17.901   8.514   3.159 -0.0277 -0.2985  0.1968
15434W        W34288  12.101   1.485  14.721  0.0403 -0.1820 -0.0419
15435W        W34289  14.836   9.340  12.826 -0.0650 -0.0108 -0.0083
15436W        W34290  17.116  14.427  13.815  0.3665  0.0426  0.1640
15437W        W34291  16.988  17.622  14.535 -0.5154 -0.0415 -0.0157
15438W        W34292  12.244  15.525  11.805  0.0711 -0.3225 -0.1183
15439W        W34293  16.760   3.965   3.840  0.1635 -0.0743  0.1935
15440W        W34294   6.006   1.318  14.711  0.3681 -0.0721 -0.0957
15441W        W34295  15.841  12.996   0.473 -0.0674 -0.1904  0.0555
15442W        W34296  15.357  13.572   0.320  0.3372 -0.0428  0.0066
15443W        W34297  13.577  15.358  14.136  0.3134  0.1422  0.2229
15444W        W34298  15.809   2.029  14.261  0.0600 -0.1760  0.2892
15445W        W34299  18.554   5.747  14.460  0.1110  0.3258 -0.1620
15446W        W34300  14.411  16.144  14.117 -0.0941 -0.2708 -0.0136
15447W        W34301   0.644   4.191  13.501  0.1992 -0.0212  0.2654
15448W        W34302   2.348  13.295  12.546 -0.1314 -0.0445  0.0726
15449W        W34303   0.488   6.584   1.062  0.0315 -0.2312  0.0044
15450W        W34304   1.517   1.824  14.561 -0.0739  0.2260  0.0120
15451W        W34305  15.919  12.664  11.033  0.0491 -0.3443 -0.0824
15452W        W34306   9.556  11.862   0.990 -0.0040 -0.0741 -0.1114
15453W        W34307   9.564  11.521  14.331  0.0341 -0.0822 -0.0242
15454W        W34308  17.796   1.239  11.387 -0.1935 -0.0465 -0.0285
15455W        W34309  11.502  14.376   1.384 -0.0692  0.4775  0.0477
15456W        W34310  13.035  16.736  12.558  0.0618  0.0003  0.1034
15457W        W34311   0.706  11.834  13.649 -0.0061 -0.1186  0.1698
15458W        W34312   4.709  16.500   5.292  0.1327  0.1579  0.0030
15459W        W34313   2.640   7.077  10.276 -0.3245  0.0609  0.1987
15460W        W34314   4.431   3.576  13.584  0.2073  0.0479  0.1874
15461W        W34315   9.410   4.129   2.179 -0.1672 -0.0354 -0.2890
15462W        W34316  13.599  18.779   0.374 -0.0346  0.1047  0.0184
15463W        W34317   8.600  14.134   2.139  0.0467  0.2371 -0.0795
15464W        W34318  12.002  12.121   4.296 -0.2771 -0.0285 -0.0142
15465W        W34319  12.816   9.519  12.985 -0.1763 -0.1453 -0.5272
15466W        W34320   2.722  15.458   1.367 -0.0463  0.0543 -0.0321
15467W        W34321  12.008  16.990   4.428 -0.0329  0.2201  0.2608
15468W        W34322   8.831   0.428  14.332  0.3799  0.0179 -0.2852
15469W        W34323   6.441   0.856  14.474 -0.0539  0.2601 -0.3644
15470W        W34324  15.619  12.042   0.494  0.2656 -0.1615  0.3636
15471W        W34325   5.747  11.014  13.441 -0.0473  0.0089  0.1230
15472W        W34326   6.267  13.601  15.001 -0.2468  0.0458 -0.1155
15473W        W34327  10.513   1.637   2.010 -0.0205  0.2279  0.0837
15474W        W34328  13.545  10.582  10.612  0.0622  0.0595 -0.1797
15475W        W34329   6.798  11.797  14.852 -0.0908 -0.1749  0.2170
15476W        W34330  13.332   0.400   3.031 -0.3434 -0.2619 -0.0736
15477W        W34331   0.804  10.898   2.914 -0.0609  0.1966  0.1629
15478W        W34332  10.599  17.977  12.766  0.2313 -0.0567 -0.1990
15479W        W34333  17.224   3.791  12.508 -0.0460 -0.1508  0.0189
15480W        W34334   7.659   9.750   3.733  0.0795 -0.0060  0.0728
15481W        W34335   8.765   2.242  11.278 -0.1857  0.1173 -0.0518
15482W        W34336  16.492   6.549  13.831 -0.1805  0.4345  0.4872
15483W        W34337   7.302   1.730   5.002 -0.3238  0.3193  0.0329
15484W        W34338   0.251   5.813  14.736  0.1295 -0.2692  0.0048
15485W        W34339   8.215   8.592  10.391  0.1112 -0.2352  0.2117
15486W        W34340  14.747   4.251   3.113  0.1453  0.2076 -0.0599
15487W        W34341  14.963  11.670  13.614 -0.0078 -0.0258 -0.1976
15488W        W34342  15.299   6.844   2.045 -0.0096 -0.1737  0.2413
15489W        W34343  11.908  18.852  12.562  0.0173  0.4100 -0.1452
15490W        W34344  14.446   6.681  11.303  0.0355  0.0774  0.1706
15491W        W34345  12.306  17.863   0.294  0.1256  0.1205 -0.3758
15492W        W34346  14.463  17.521   1.434  0.0629 -0.1192 -0.2005
15493W        W34347   3.709   7.511  14.400 -0.1493  0.0829  0.0278
15494W        W34348  15.819   0.362   5.590 -0.2248 -0.0552  0.2192
15495W        W34349   7.943  14.840   2.352  0.1457 -0.2246 -0.0608
15496W        W34350   4.056  16.480  12.022 -0.1539 -0.0795  0.1362
15497W        W34351  14.430   9.297   0.339  0.2047  0.0938 -0.1973
15498W        W34352  16.539   9.898   0.867  0.0399 -0.1893 -0.2826
15499W        W34353  16.519   6.443  11.895  0.0370 -0.0577 -0.2411
15500W        W34354  14.363  16.857   0.003  0.1573 -0.1041  0.3419
15501W        W34355   3.030   6.310  11.823  0.2625  0.1137 -0.1668
15502W        W34356   1.404   1.512   0.231  0.2215  0.0103 -0.0316
15503W        W34357  11.880   8.558   3.852 -0.1373  0.0178  0.2197
15504W        W34358   5.025  12.589   1.598  0.0838  0.2723 -0.0895
15505W        W34359  11.587   6.232  11.673  0.0261 -0.0050  0.0944
15506W        W34360  10.473   5.609  14.154  0.1697 -0.0379  0.3491
15507W        W34361  16.451   1.233  12.025 -0.0285 -0.1725 -0.0102
15508W        W34362   6.214   6.079  13.186 -0.0433  0.1199 -0.1832
15509W        W34363   2.239  15.152   4.563  0.2438 -0.1792 -0.2173
15510W        W34364   1.307  18.606   4.422 -0.0967 -0.1299  0.3253
15511W        W34365  15.083   7.404  11.047 -0.1279 -0.0372  0.1551
15512W        W34366   9.997   8.470   4.254 -0.1878  0.1813 -0.0015
15513W        W34367  16.750   6.078   3.956  0.1968 -0.0087  0.0538
15514W        W34368  16.539   6.806   1.581 -0.0616 -0.3886 -0.0598
15515W        W34369   5.393   9.128  14.729 -0.0803 -0.0493  0.0740
15516W        W34370  10.986   1.499   2.568  0.2860 -0.3254  0.3247
15517W        W34371   0.993   1.077   0.233  0.4160  0.1017 -0.3595
15518W        W34372  10.737  12.060  13.131 -0.3797 -0.2343 -0.3459
15519W        W34373   4.435   6.971   4.071 -0.0445 -0.0902 -0.1879
15520W        W34374  12.743  12.078   2.369  0.2752  0.1522 -0.0678
15521W        W34375  18.181   3.404   2.174  0.0305  0.0641 -0.1065
15522W        W34376  15.773  17.369   1.923  0.0022 -0.0500 -0.0666
15523W        W34377  12.828   7.718  12.627 -0.2097 -0.1412  0.0633
15524W        W34378   9.297   1.377  10.627  0.1957 -0.0223  0.2664
15525W        W34379   3.021  15.848   0.365  0.0295  0.0604  0.3228
15526W        W34380   4.054  14.588  11.781  0.3381  0.0190  0.1086
15527W        W34381  18.357  17.210   4.605 -0.1357 -0.0805  0.0004
15528W        W34382   1.282   7.186  11.420  0.0012  0.2047  0.3083
15529W        W34383  18.435  18.698  13.102 -0.1474 -0.0039 -0.1983
15530W        W34384   4.497   9.775   0.026  0.1253 -0.1612  0.0396
15531W        W34385   2.556   3.436   2.005  0.1210 -0.1106 -0.2294
15532W        W34386   9.733  15.453  13.530  0.0139 -0.0298 -0.0530
15533W        W34387  10.328  12.957  14.757  0.1897 -0.1071  0.0212
15534W        W34388   4.455   9.332  10.813 -0.3122 -0.3441  0.2907
15535W        W34389  16.395   5.550   1.927 -0.2112 -0.0904  0.1565
15536W        W34390   2.599   5.159  14.885 -0.0886  0.1580  0.1102
15537W        W34391   3.943  11.893   1.403  0.0119  0.2766 -0.0857
15538W        W34392  11.479   1.317   4.502  0.0645  0.2742  0.0710
15539W        W34393   7.536  10.100  11.544  0.0570  0.0351 -0.2846
15540W        W34394   2.982   8.601  14.218  0.2191  0.0329  0.1812
15541W        W34395   5.270  17.419   2.143  0.2360  0.0437 -0.0401
15542W        W34396  15.552  17.712  13.770  0.0161  0.1672  0.1911
15543W        W34397  12.652  18.836   4.005  0.2872  0.1101 -0.1320
15544W        W34398  14.193   5.901   3.313  0.2622 -0.0241  0.1088
15545W        W34399   5.952   2.184   0.069  0.1123 -0.1383  0.2831
15546W        W34400   7.479   1.343   2.475 -0.0689 -0.3295 -0.1049
15547W        W34401   9.461  16.168  13.478  0.1436  0.2178  0.0307
15548W        W34402   2.767  13.173   0.642 -0.0235  0.1193  0.0719
15549W        W34403  13.398  15.299  13.486  0.2019  0.2438 -0.1008
15550W        W34404   2.438   6.633   2.525 -0.1612 -0.2693 -0.1224
15551W        W34405  12.530  11.109  12.395  0.0034  0.0225 -0.1852
15552W        W34406   6.237   0.087  12.247  0.5066 -0.0063  0.1510
15553W        W34407  15.687  16.807   2.328 -0.0479  0.0016 -0.2546
15554W        W34408   7.288  12.292   2.132  0.1363 -0.2333  0.0893
15555W        W34409   2.040  15.639   0.115  0.1525 -0.2814 -0.0028
15556W        W34410  13.820   7.097   0.525 -0.0106  0.0805  0.1585
15557W        W34411   8.644   3.416   2.924 -0.0157 -0.4969 -0.0262
15558W        W34412   0.084   3.215   3.159 -0.3958 -0.0387  0.2842
15559W        W34413  14.226   1.114  11.048 -0.1497 -0.2347  0.3436
15560W        W34414   7.451   2.805  14.398 -0.0276  0.0971 -0.1809
15561W        W34415  12.467  14.415   3.716  0.0031 -0.0339  0.0336
15562W        W34416   9.136  16.785   0.395 -0.0514  0.1271 -0.2039
15563W        W34417   6.403   1.760  13.970  0.0108  0.2481  0.2121
15564W        W34418   4.219  10.693  13.273 -0.2184 -0.0321 -0.0765
15565W        W34419   1.582   4.774  11.630 -0.2167 -0.2550  0.1648
15566W        W34420   8.151   0.559  12.508  0.2928  0.2663  0.0327
15567W        W34421  13.112   9.242   0.564  0.0641  0.1663 -0.2441
15568W        W34422   2.996  13.631   0.441 -0.0027  0.2969  0.1672
15569W        W34423   0.207  14.807   1.546 -0.3778 -0.0449  0.3406
15570W        W34424   5.235  12.403  14.325  0.0842 -0.1421  0.0469
15571W        W34425   1.244   9.070  11.098 -0.1292  0.0110  0.3123
15572W        W34426   2.533   7.984   1.954 -0.6889  0.4609  0.0077
15573W        W34427   7.567  18.296  13.298  0.1230 -0.0930 -0.3103
15574W        W34428  16.506  11.348  13.196 -0.2441 -0.1302  0.1124
15575W        W34429  11.928  11.599   0.405 -0.1928  0.0098 -0.2999
15576W        W34430   7.009   7.951  14.654  0.2129 -0.0161 -0.1213
15577W        W34431  12.829  18.585   5.048  0.0372 -0.0199 -0.0117
15578W        W34432   4.263   3.858  12.202  0.1035 -0.0072  0.0938
15579W        W34433  17.066  10.761   1.206  0.0588  0.0016  0.0826
15580W        W34434  10.141   0.082  11.799  0.1270  0.0016 -0.2035
15581W        W34435   9.388  13.768  10.654  0.1844 -0.1682 -0.1285
15582W        W34436   1.947   4.164   0.773 -0.0519 -0.2738 -0.1334
15583W        W34437   7.874  11.431  14.911  0.1647  0.1139  0.1912
15584W        W34438   5.760  13.341   2.349  0.0404 -0.2324  0.0976
15585W        W34439  14.912  17.143  12.558  0.2786  0.2306  0.1965
15586W        W34440  12.742   2.509   4.755  0.2983  0.3404  0.1156
15587W        W34441  12.234  15.449   1.569 -0.0761  0.1285 -0.1524
15588W        W34442  15.643   4.186  13.106  0.0756  0.0125 -0.2987
15589W        W34443   5.059   7.460  14.907 -0.0314 -0.3496  0.2930
15590W        W34444  16.090   0.592   9.613 -0.2288 -0.1600  0.0355
15591W        W34445   0.777  15.935   1.938 -0.2143  0.0646  0.1093
15592W        W34446   8.227  16.460   1.875 -0.1919  0.2202  0.0940
15593W        W34447   4.478   1.968  13.842  0.0599  0.0216  0.1807
15594W        W34448  12.588   6.450  10.981 -0.1693 -0.1244  0.0095
15595W        W34449   5.859  18.221  14.762 -0.1337 -0.2942 -0.0067
15596W        W34450  10.032  16.724  13.613 -0.3345 -0.1792 -0.0648
15597W        W34451  17.572  12.426   3.900 -0.1849  0.2021 -0.0381
15598W        W34452   2.681  15.868   0.863  0.1816  0.1335  0.1852
15599W        W34453   4.408  13.373  12.034 -0.1131 -0.0360  0.1684
15600W        W34454  16.056   2.903  12.959  0.1692 -0.0960 -0.1054
15601W        W34455   5.811   8.818  14.885 -0.0151 -0.1134  0.0479
15602W        W34456  15.153   7.576   2.784  0.2048 -0.2308  0.1267
15603W        W34457  16.324   8.707  13.627 -0.3294 -0.2983  0.2444
15604W        W34458  16.795  13.591  13.801  0.1184 -0.3325 -0.2036
15605W        W34459   1.786   5.606   1.971  0.0132 -0.0027 -0.1549
15606W        W34460   4.932   3.454  13.671 -0.0065  0.2722  0.0196
15607W        W34461   5.095  17.007  12.251 -0.0097 -0.1304 -0.0901
15608W        W34462  14.897   2.663   2.433 -0.0916 -0.4810  0.0492
15609W        W34463  17.904   8.203   2.755 -0.1993  0.0135  0.1365
15610W        W34464  10.317  13.135  13.329  0.1045  0.0396 -0.1509
15611W        W34465   3.696   8.388  12.123  0.0213 -0.1140  0.2703
15612W        W34466   9.570   1.955  15.059 -0.2511  0.1987 -0.2545
15613W        W34467   0.333   0.068  12.799  0.0986  0.2068  0.2248
15614W        W34468   0.575   0.404  12.391 -0.2202  0.2227 -0.0374
15615W        W34469   7.842  17.563   3.654 -0.4302 -0.1184 -0.2150
15616W        W34470  12.047   9.910  13.440  0.0673 -0.2172 -0.0175
15617W        W34471   6.953  11.512   0.226  0.1213 -0.1016 -0.0863
15618W        W34472  13.065   9.051  11.781 -0.0619 -0.3665  0.0106
15619W        W34473  11.981  18.754   2.698 -0.1661  0.0055  0.0471
15620W        W34474  17.916  15.823  14.428 -0.2391 -0.2942  0.0342
15621W        W34475   4.434   5.979  14.389 -0.0219  0.1892 -0.1710
15622W        W34476  13.844  18.122   0.877 -0.2498 -0.0268  0.1874
15623W        W34477  13.960  14.004   4.492 -0.2492 -0.2149  0.1989
15624W        W34478   2.739  18.382   3.976  0.0896  0.0271  0.0022
15625W        W34479  14.859   4.444   5.467 -0.0926 -0.0411  0.0543
15626W        W34480   8.323   1.282   1.309  0.0938 -0.0879 -0.5988
15627W        W34481  13.752  14.073  11.233  0.0284 -0.0347 -0.0193
15628W        W34482  15.252  10.658   1.370 -0.1412 -0.0912 -0.0013
15629W        W34483  11.411   0.075   4.793 -0.2952  0.1609 -0.0005
15630W        W34484   6.588   8.686  14.241 -0.0527 -0.1410  0.1575
15631W        W34485   8.739   8.345  11.484  0.0367 -0.0313 -0.1593
15632W        W34486  15.301  15.584  11.658  0.1086 -0.1722 -0.3012
15633W        W34487  13.151  10.871   0.124  0.0044  0.1450 -0.2192
15634W        W34488  14.881  15.795   0.515 -0.0971  0.0637 -0.2924
15635W        W34489  10.345  16.324  12.440 -0.2589  0.2248  0.0305
15636W        W34490   1.745  10.794  10.514  0.2238 -0.1495 -0.1194
15637W        W34491  18.755  13.112  12.656  0.0828 -0.3312  0.0249
15638W        W34492   6.414  15.879  12.449  0.0898 -0.0408  0.0249
15639W        W34493  13.304   6.548   2.323 -0.1644 -0.2266 -0.0597
15640W        W34494   8.004  14.628   2.879 -0.2493 -0.1141 -0.0557
15641W        W34495   3.077  13.035  13.139  0.0634 -0.0675 -0.1917
15642W        W34496  12.439  18.668   1.321  0.3744 -0.1016 -0.2371
15643W        W34497   9.243   5.485   2.037  0.0046  0.2132  0.0151
15644W        W34498   9.018   2.700  14.692 -0.0103  0.0047  0.2254
15645W        W34499   4.297  10.374   1.985  0.0143 -0.0790  0.1087
15646W        W34500  16.455  17.175   5.247  0.0791 -0.1774 -0.1655
15647W        W34501  14.231   9.177  11.075  0.0243  0.0591  0.1596
15648W        W34502   6.361   9.253   0.090  0.0236 -0.1265  0.2008
15649W        W34503  15.970  14.729  12.952  0.0064  0.1956 -0.1900
15650W        W34504   6.478  10.777   4.508  0.2119  0.0925 -0.0912
15651W        W34505   1.173   5.909   4.198  0.0093  0.1985 -0.1205
15652W        W34506   3.882  13.377  12.157  0.1185 -0.0963 -0.2831
15653W        W34507   8.521   6.470  13.363 -0.1000  0.0910 -0.2610
15654W        W34508  13.989   2.113  12.608 -0.0476  0.4249 -0.0459
15655W        W34509  16.889   7.727   5.763  0.3460 -0.1777  0.0983
15656W        W34510   0.272   2.463  11.068  0.2275  0.2821 -0.0223
15657W        W34511   6.592   6.121   0.003 -0.1077  0.1068 -0.1285
15658W        W34512  17.396   8.867   0.403 -0.1582 -0.0259 -0.2148
15659W        W34513   1.032  13.457  13.277 -0.3307  0.1424  0.0192
15660W        W34514   7.632   7.364   2.567 -0.3184 -0.4675  0.2581
15661W        W34515  10.100  17.633  14.918  0.0062  0.0326 -0.0223
15662W        W34516   1.422  14.245   2.989 -0.0716 -0.1753 -0.5328
15663W        W34517  13.079   8.759  11.317 -0.4031  0.1548  0.0407
15664W        W34518  17.253   4.626   4.619  0.0147  0.1812 -0.0961
15665W        W34519  16.611  14.971   2.725 -0.0930  0.2438  0.3267
15666W        W34520   1.050  14.308  15.071  0.2309  0.0384 -0.0321
15667W        W34521  16.388   7.119  11.694 -0.0379 -0.0217 -0.3126
15668W        W34522   1.319   8.934   1.536 -0.3013 -0.0285 -0.1389
15669W        W34523  17.535   4.469   1.890 -0.5170 -0.1205 -0.0062
15670W        W34524  17.569  13.670   1.934 -0.2761  0.0383  0.1178
15671W        W34525  17.410  10.274   1.199  0.0976 -0.2396  0.0974
15672W        W34526  17.370   3.315  11.777  0.0287  0.1349 -0.1027
15673W        W34527   6.736  14.457   0.660 -0.1005  0.0172 -0.0272
15674W        W34528  10.137   1.406   0.051 -0.2272 -0.3260 -0.3644
15675W        W34529  14.004   0.301   0.474  0.0761 -0.0447 -0.0565
15676W        W34530   4.340   6.799  12.632  0.1067  0.0554  0.1954
15677W        W34531   0.313   5.375   3.788 -0.0463 -0.0160  0.1957
15678W        W34532   2.965  12.270  14.562  0.1222  0.0441  0.0585
15679W        W34533   2.965   2.308   2.951 -0.3713 -0.1852  0.2075
15680W        W34534  13.807  16.272  11.237 -0.1626 -0.1373  0.0199
15681W        W34535   3.276   2.238   1.764  0.0167  0.2550 -0.1099
15682W        W34536   3.723   1.229   2.553  0.1051  0.0196 -0.4802
15683W        W34537   4.290  10.489  12.282  0.1014 -0.2815  0.0648
15684W        W34538   0.892  13.514   9.536  0.0993 -0.0570 -0.0474
15685W        W34539   0.398   7.233  14.623  0.2406  0.0803 -0.3029
15686W        W34540   7.609   8.651  14.168 -0.0085  0.0783 -0.2511
15687W        W34541   6.472   6.703   2.416 -0.1331 -0.2649 -0.0831
15688W        W34542  12.218  13.341  12.339 -0.5228 -0.0103  0.0346
15689W        W34543   3.915   7.903   3.210  0.1933  0.2257  0.3444
15690W        W34544  17.554  14.761   5.277 -0.0295  0.0330 -0.0444
15691W        W34545  14.923   7.094   3.431 -0.2671  0.1849 -0.1348
15692W        W34546   5.807   4.764  12.138 -0.0843 -0.0292  0.2175
15693W        W34547   6.902  12.155   0.621  0.0733 -0.0863 -0.1951
15694W        W34548  12.965  17.982   1.534  0.0184  0.1106 -0.0733
15695W        W34549   0.528  12.860  13.884 -0.2573 -0.0608  0.0324
15696W        W34550  18.808   3.180  11.494  0.0105 -0.4428 -0.0333
15697W        W34551   8.023  18.140  10.850  0.1887  0.0169  0.2431
15698W        W34552  18.849   9.824   3.099  0.3071 -0.0028  0.2241
15699W        W34553  11.212  15.748  13.281  0.1131 -0.4399  0.0914
15700W        W34554   0.979  10.894  10.676  0.0930 -0.0023 -0.1756
15701W        W34555  11.276  10.817  15.071 -0.0387  0.1388  0.0020
15702W        W34556  17.423  12.215   0.800 -0.0361 -0.0844  0.0122
15703W        W34557  11.881  15.493  14.588  0.0787  0.1016 -0.3423
15704W        W34558   9.773  17.126  13.865 -0.0314 -0.1945  0.0602
15705W        W34559  18.426  14.919   0.434 -0.0648  0.0391 -0.1239
15706W        W34560   3.887  14.216   1.524 -0.2101 -0.2795  0.3050
15707W        W34561   2.607   0.069   3.147  0.2326  0.1641  0.1460
15708W        W34562  12.973   8.455   3.522  0.1663 -0.0994 -0.2537
15709W        W34563  16.771  17.065  13.170  0.1687 -0.2046  0.2671
15710W        W34564   2.257  14.467   0.925  0.0574 -0.1741  0.0600
15711W        W34565  11.448  13.019  12.893 -0.1793 -0.0602  0.1740
15712W        W34566   7.229  15.575  13.525 -0.0756  0.0647 -0.2003
15713W        W34567  15.302  12.244  13.455 -0.0676 -0.0736 -0.4355
15714W        W34568   7.838  11.143  11.162 -0.1769 -0.1013 -0.0086
15715W        W34569   5.099   4.447  14.548  0.2437  0.1977 -0.2852
15716W        W34570  10.265   9.071   1.110 -0.0070  0.0991  0.1096
15717W        W34571  17.859   2.941   2.064  0.0568  0.1343 -0.2797
15718W        W34572  10.220  16.059   3.001 -0.0133  0.0544 -0.1006
15719W        W34573   7.675   0.789  10.005 -0.0102 -0.2180 -0.1618
15720W        W34574  15.201   4.698   2.399  0.0131 -0.0963  0.4062
15721W        W34575   0.957  18.762   0.076  0.2967 -0.0561  0.4639
15722W        W34576   4.036   0.910   2.863 -0.1727 -0.2076 -0.0771
15723W        W34577  16.798  12.635   0.782 -0.1713 -0.0382  0.2027
15724W        W34578  10.355   6.418   1.644 -0.0253 -0.2112  0.0828
15725W        W34579  13.937  11.651  14.503  0.0667  0.1829 -0.3269
15726W        W34580   1.714   7.160   4.022 -0.0272 -0.0829  0.5055
15727W        W34581   7.469  11.817  14.181  0.1109 -0.3768  0.2135
15728W        W34582   5.736   7.145  11.460  0.1509 -0.0733  0.3562
15729W        W34583  11.492  18.617   4.064  0.0165 -0.0287 -0.4028
15730W        W34584  14.970   5.559  13.503 -0.0877 -0.0593  0.1459
15731W        W34585  18.590   4.497   1.723 -0.1820  0.1765 -0.0714
15732W        W34586   2.330  16.512  12.641  0.0903 -0.0918  0.0946
15733W        W34587   8.419  11.696  13.478  0.1218 -0.0937  0.0673
15734W        W34588  14.646   3.754  12.099 -0.3475  0.1657  0.2745
15735W        W34589   3.119  17.704   4.308 -0.3607  0.0245 -0.0788
15736W        W34590  10.324   7.716  11.337 -0.3532  0.1128 -0.1824
15737W        W34591  17.983  17.836  14.011  0.1097 -0.2866 -0.1344
15738W        W34592  16.824   6.551  12.357  0.2254  0.0296 -0.1251
15739W        W34593   5.087   7.441   3.367 -0.0639 -0.0136  0.4406
15740W        W34594  16.323   8.089   3.384  0.1245  0.0963 -0.0825
15741W        W34595   9.793   9.308  14.920 -0.0981 -0.0691  0.0228
15742W        W34596   9.883  13.101  10.855  0.1337  0.1080 -0.0967
15743W        W34597  15.682  15.771  12.119  0.1331  0.1514  0.0607
15744W        W34598   3.783   4.334   3.069 -0.0632 -0.1899  0.1760
15745W        W34599  17.869  11.602   1.135  0.1002 -0.1878 -0.1623
15746W        W34600   3.708  13.087   0.781  0.0244  0.2923 -0.0871
15747W        W34601   9.443   4.032   0.647 -0.0479  0.0622 -0.1732
15748W        W34602  12.672   3.282  14.551  0.0054  0.3347  0.0195
15749W        W34603  14.546   9.649   2.334  0.0190  0.2678 -0.0192
15750W        W34604   1.613   8.828  12.875  0.1978 -0.0739 -0.0100
15751W        W34605  15.317  17.755  13.352 -0.2304 -0.1634 -0.0026
15752W        W34606  17.741  12.933  14.037 -0.1490  0.3773 -0.1436
15753W        W34607   1.795   9.135  13.240 -0.0951 -0.1689  0.3274
15754W        W34608   1.282   8.738   0.268  0.1753 -0.1190 -0.2614
15755W        W34609   2.240  11.069   3.069  0.2297 -0.0334  0.1467
15756W        W34610   8.916  11.929   1.041 -0.0930  0.1978 -0.1003
15757W        W34611  18.327   0.318   1.142  0.0621  0.0684  0.1667
15758W        W34612  11.720   4.045   2.231  0.2641  0.1373  0.1409
15759W        W34613  16.840   1.107   2.310  0.1515  0.0461 -0.2110
15760W        W34614   3.926   6.793   3.036  0.2263  0.2429 -0.0308
15761W        W34615   3.978   8.435  14.358 -0.0240 -0.0072  0.0452
15762W        W34616   2.139   3.223  11.193  0.1004  0.0224  0.2018
15763W        W34617  14.423   0.690   1.485 -0.0387  0.1226  0.2587
15764W        W34618  17.904   5.488  10.429  0.0227 -0.1112 -0.0268
15765W        W34619  16.089   9.306  10.828 -0.1457 -0.0169  0.0667
15766W        W34620  11.029  18.166  14.494  0.0321 -0.2579  0.2104
15767W        W34621  13.722  17.392   0.309 -0.2727 -0.0315 -0.2215
15768W        W34622  18.602  11.405   2.024 -0.1836 -0.1216  0.0158
15769W        W34623   0.271   4.702  11.149 -0.0063 -0.1877  0.1446
15770W        W34624  11.644  16.890  13.009  0.0276  0.0406  0.1160
15771W        W34625   3.264   4.709  12.457  0.1336 -0.0276 -0.0219
15772W        W34626  18.257  16.896  11.510  0.0455  0.0235 -0.0020
15773W        W34627  16.848   8.888   3.948  0.1329  0.0265 -0.3852
15774W        W34628  17.663   5.760  10.768  0.1603  0.1012  0.0823
15775W        W34629   8.413  13.833   2.538  0.0539 -0.1830  0.1662
15776W        W34630  14.797   8.664  11.946  0.0782 -0.3474  0.2720
15777W        W34631  18.003   8.054  14.721 -0.0004 -0.0514  0.1201
15778W        W34632   4.267  18.480  10.202  0.0412  0.1419  0.3044
15779W        W34633  18.781   5.581  11.562 -0.1211  0.2326  0.0975
15780W        W34634  12.163   5.812  11.739 -0.1601 -0.0575  0.0556
15781W        W34635  14.769   2.994  13.206 -0.1086  0.1685 -0.1656
15782W        W34636   2.528   0.989  14.933  0.2147  0.4193 -0.3750
15783W        W34637  11.167  12.142   1.487  0.0764  0.0125 -0.1281
15784W        W34638  18.399   0.642   3.994 -0.0240 -0.1550 -0.0247
15785W        W34639  15.751   5.378  14.983 -0.2482  0.0890 -0.0414
15786W        W34640  13.828  16.462   2.993  0.1550  0.1243 -0.0896
15787W        W34641   4.814   0.275   1.172 -0.0193  0.0108 -0.0053
15788W        W34642   1.181  13.650  14.002  0.3670 -0.1803 -0.1381
15789W        W34643  17.082  10.597  14.530  0.0678 -0.1674 -0.0268
15790W        W34644  18.407  11.409  11.866 -0.0460 -0.1211 -0.1309
15791W        W34645  18.571  14.045   4.095 -0.3272  0.2916  0.0609
15792W        W34646   0.230   7.073  12.399 -0.1106 -0.1219 -0.3882
15793W        W34647  13.066   3.296   4.212 -0.0542  0.0580  0.1248
15794W        W34648   8.683  12.726   0.734 -0.0013 -0.1444  0.2978
15795W        W34649  11.231   7.941  14.757 -0.2428  0.0933 -0.0202
15796W        W34650  18.154   1.032   1.479 -0.0669  0.0591 -0.0395
15797W        W34651   7.950   2.644   1.370 -0.0215 -0.2683  0.4028
15798W        W34652  10.290  13.654   1.205 -0.1212 -0.0326  0.0371
15799W        W34653  13.422  17.967   2.957  0.0532 -0.1515 -0.0968
15800W        W34654   1.215  18.533   3.511  0.1437  0.1072 -0.0801
15801W        W34655   3.201   8.372  10.686  0.2388 -0.0111  0.2369
15802W        W34656  16.567  14.335   0.330  0.1568  0.2699  0.0449
15803W        W34657  14.838  12.464   0.936  0.3015 -0.0593 -0.1792
15804W        W34658  12.894   9.689  14.582  0.1956 -0.2622 -0.1701
15805W        W34659  17.997  16.220  13.045 -0.0144 -0.1268  0.0384
15806W        W34660   6.676   5.231  13.230  0.0107  0.2580 -0.1654
15807W        W34661  10.180  12.189  13.959 -0.2247 -0.3090 -0.1150
15808W        W34662  10.662   1.483   1.095  0.1651 -0.0064  0.1882
15809W        W34663  18.398  11.579  13.741 -0.3591  0.0679  0.1839
15810W        W34664   2.603   2.881   4.390 -0.0860 -0.1005 -0.0184
15811W        W34665   0.697  13.516   0.689  0.0390 -0.1447  0.0762
15812W        W34666   7.442   4.393  10.423 -0.0250 -0.0127  0.1497
15813W        W34667   9.710   8.739  10.662 -0.0556 -0.0434  0.0567
15814W        W34668   2.227  15.458   3.371  0.0575 -0.2740 -0.0535
15815W        W34669   7.045  11.028  15.084 -0.1879 -0.1324  0.2436
15816W        W34670   2.179  12.224   0.088 -0.0986  0.0595 -0.0410
15817W        W34671   3.933   6.770  15.017 -0.0707  0.0584 -0.0760
15818W        W34672  10.977   3.751   2.559  0.0366 -0.5375 -0.5073
15819W        W34673  14.009  12.834  13.493 -0.0844  0.0378  0.3251
15820W        W34674  17.381   4.030   3.987  0.0456  0.1244 -0.0123
15821W        W34675  15.217   0.991   0.118 -0.1970  0.0364  0.1942
15822W        W34676  16.615   8.449   4.196  0.2011 -0.0634 -0.0310
15823W        W34677  10.791   2.079   0.568 -0.0567  0.0446  0.1587
15824W        W34678  18.241   2.105   5.097  0.1012  0.0602 -0.0033
15825W        W34679  15.857  18.658   2.705  0.0214  0.3947 -0.0240
15826W        W34680   4.347  15.450  11.307  0.1136  0.1998  0.1526
15827W        W34681   2.785   8.327  12.855 -0.0597  0.1812 -0.3531
15828W        W34682   4.930   0.471   4.761  0.0230  0.1727  0.1872
15829W        W34683  17.395   5.980  12.006  0.4086  0.2393 -0.4667
15830W        W34684   4.120  16.404  14.348 -0.0956 -0.0169 -0.0291
15831W        W34685  17.066   3.314   1.640  0.1224  0.3437  0.0287
15832W        W34686  17.185   0.175   0.304 -0.3136  0.0448  0.2621
15833W        W34687  12.338  14.350   0.198 -0.1157  0.2004 -0.1169
15834W        W34688   8.761   4.547  14.265  0.1361 -0.3045  0.0156
15835W        W34689  10.740   2.313  13.123  0.3848  0.1378 -0.2384
15836W        W34690   5.148  17.428  12.014  0.0222 -0.1604  0.1692
15837W        W34691   8.600  15.553  12.785  0.2164  0.1498 -0.0282
15838W        W34692   3.823   8.782   1.420  0.0274  0.3709  0.0203
15839W        W34693  13.369  11.927  10.726  0.2801 -0.0330  0.2839
15840W        W34694   7.328  13.541   5.749 -0.0566 -0.0243  0.0600
15841W        W34695   3.552   6.222   3.183 -0.0877 -0.1281  0.0118
15842W        W34696   0.991   6.903   3.382 -0.1313 -0.1384  0.4694
15843W        W34697  14.409   1.464   3.874 -0.1601  0.0726  0.0755
15844W        W34698   4.672   2.998   4.131  0.0298  0.0736 -0.1595
15845W        W34699  14.479   3.324  14.209 -0.1200  0.0518  0.1840
15846W        W34700  11.177   2.665  13.704  0.0025  0.0861  0.3781
15847W        W34701  14.837  10.332  12.758 -0.1156  0.0690 -0.5928
15848W        W34702  14.764   0.434  14.210 -0.0698 -0.3406 -0.1250
15849W        W34703   9.547   9.543   1.599  0.1904  0.0501  0.1095
15850W        W34704   5.392   8.970   0.095 -0.0413 -0.1090  0.0041
15851W        W34705  10.973   2.128   1.290 -0.0691  0.1752  0.1879
15852W        W34706   2.700  14.163  10.881  0.3042 -0.1808  0.1296
15853W        W34707   1.278  11.220   3.618  0.1754  0.1601 -0.3247
15854W        W34708   5.804   8.210  10.253  0.1140 -0.1780  0.4073
15855W        W34709   2.294   1.280   2.226 -0.1613 -0.0047 -0.1709
15856W        W34710   7.931   7.028  12.224 -0.0082  0.0017  0.1316
15857W        W34711  14.340  14.083  13.061  0.2110  0.2363  0.1475
15858W        W34712   3.652   0.865  12.743 -0.3450  0.2495  0.3044
15859W        W34713   2.699  10.636  10.693 -0.0682 -0.3901  0.0443
15860W        W34714  16.387  18.276   4.573 -0.1800  0.0628  0.0185
15861W        W34715   4.735   8.628  11.362 -0.2480  0.1005 -0.0540
15862W        W34716  18.061  17.543  13.554  0.1430 -0.1040 -0.0962
15863W        W34717  17.027   5.906   0.883 -0.0642  0.2272  0.0777
15864W        W34718   3.807   0.948  14.480  0.3765  0.2111  0.1109
15865W        W34719  12.559   7.277  13.575 -0.0114 -0.0043  0.0999
15866W        W34720   8.559   9.007  14.368  0.1977 -0.1889  0.3057
15867W        W34721  16.395  11.788   3.496 -0.0108 -0.1611  0.0707
15868W        W34722   6.020  10.656  15.002 -0.0381  0.1239  0.3264
15869W        W34723   2.277   1.552   3.187  0.2662  0.3260  0.1437
15870W        W34724   6.744  13.198  13.816 -0.0721 -0.2764 -0.0899
15871W        W34725   3.571   7.528   3.224 -0.2267 -0.1851  0.0951
15872W        W34726  12.668  18.586   2.187 -0.0546 -0.1775 -0.0127
15873W        W34727  11.264   5.709  12.798  0.0773  0.3633 -0.1177
15874W        W34728  12.752   0.968  14.479 -0.4024  0.1198  0.2513
15875W        W34729   8.663   5.886   2.615 -0.0860  0.0775  0.0884
15876W        W34730  12.856   6.269  14.485 -0.1805  0.0270  0.0812
15877W        W34731  13.180   5.358  13.982  0.0499  0.1522 -0.1983
15878W        W34732   5.028  10.105  10.960 -0.1756 -0.0402  0.1560
15879W        W34733  17.503  12.503  14.251 -0.1627 -0.0143 -0.0423
15880W        W34734  12.566   5.595  12.517  0.1105  0.3166  0.3501
15881W        W34735   8.327  13.139   3.280 -0.1653 -0.1428  0.4502
15882W        W34736   3.080   0.180  13.358 -0.1713 -0.2221  0.0191
15883W        W34737   6.957   3.349   4.388  0.0291  0.0524 -0.1203
15884W        W34738  11.722  15.627   1.111 -0.2164 -0.0289 -0.1781
15885W        W34739   7.586   0.132  10.744 -0.1052 -0.1412 -0.2247
15886W        W34740  16.717   3.127   1.237 -0.1581 -0.1654 -0.1263
15887W        W34741  14.977  12.446  10.913  0.0872 -0.0297  0.1308
15888W        W34742  13.926   7.958   9.909  0.0881 -0.0172 -0.3843
15889W        W34743  18.687   6.255   1.704 -0.1868  0.2937  0.0229
15890W        W34744  11.893   0.348  13.847 -0.5696  0.0966  0.0231
15891W        W34745  10.429  12.411  14.506  0.2529  0.0192  0.0129
15892W        W34746  13.869  10.447   3.490 -0.0632  0.1645  0.3021
15893W        W34747  15.991   5.505   1.632  0.0976 -0.2358  0.1933
15894W        W34748  14.057  10.788  13.101  0.2028 -0.1941  0.0788
15895W        W34749  15.502  11.985  13.894 -0.0657 -0.1056  0.1821
15896W        W34750   8.399   3.468   1.833 -0.5305 -0.0791  0.0456
15897W        W34751  14.537   4.275   0.588 -0.2409 -0.3554  0.3072
15898W        W34752  11.587  17.959  11.660  0.2149 -0.2575 -0.1234
15899W        W34753  18.203  11.479   2.454  0.0848 -0.0295 -0.0796
15900W        W34754   9.299   5.328   3.313 -0.0739  0.0438  0.0389
15901W        W34755   3.709  12.213  11.105 -0.2364 -0.1002 -0.3267
15902W        W34756  10.610   5.754   0.635 -0.0075 -0.2973  0.0699
15903W        W34757  10.584   8.863  12.455 -0.1765  0.1224 -0.0779
15904W        W34758  10.643  13.307  12.595 -0.2908 -0.0663  0.0736
15905W        W34759   7.914  15.702  10.620 -0.1514  0.3344  0.1056
15906W        W34760  12.612   8.778  11.825 -0.1563 -0.0073 -0.2727
15907W        W34761  14.996  18.235   0.678 -0.0296 -0.0776 -0.1595
15908W        W34762  18.534   5.881   2.106  0.0103  0.1326 -0.2462
15909W        W34763   2.257   2.642   0.293 -0.0626 -0.2665 -0.1687
15910W        W34764   3.805   8.799   3.333  0.1512  0.0363 -0.1755
15911W        W34765   5.846  16.522  11.232 -0.1384  0.2593  0.0043
15912W        W34766   7.033   9.640  11.490 -0.1629  0.0619  0.0685
15913W        W34767   6.604   8.461   4.532 -0.0865  0.0137  0.0307
15914W        W34768  12.994   2.630  13.776  0.1884 -0.0566 -0.1886
15915W        W34769  14.198   5.068  13.830  0.1701 -0.0976  0.2794
15916W        W34770  17.797   5.322   3.575 -0.0161 -0.0244  0.1177
15917W        W34771   3.985   5.931   3.021 -0.0259  0.1347 -0.0178
15918W        W34772  13.070   1.761  10.938 -0.0211 -0.1439  0.1098
15919W        W34773  12.779  16.448  12.176 -0.0188  0.0979 -0.1144
15920W        W34774   9.920   1.791  11.635 -0.0957  0.0114  0.0262
15921W        W34775   5.750   2.057   2.935  0.3803  0.1892  0.2335
15922W        W34776   9.684   2.388   2.537  0.3565  0.0344 -0.0339
15923W        W34777  12.786  13.202  15.065  0.1835 -0.2206  0.3008
15924W        W34778  11.728   4.758   3.521  0.0275  0.1219 -0.5034
15925W        W34779   3.681   8.926  14.563  0.2237  0.1321  0.0250
15926W        W34780  13.603  17.930  11.285 -0.0294  0.1472 -0.0000
15927W        W34781   3.553  14.788  14.926  0.1130 -0.2178 -0.2397
15928W        W34782   7.551  15.090   4.361  0.0479 -0.0791 -0.2565
15929W        W34783  15.520   6.813  14.665 -0.2649  0.0157  0.0111
15930W        W34784  15.857  12.202   3.387 -0.1367  0.0209 -0.2098
15931W        W34785   4.395  10.956  12.442  0.1741  0.3885  0.2305
15932W        W34786   8.091  10.052   1.854 -0.0034  0.1524  0.1694
15933W        W34787   8.720  18.802   1.586  0.1447  0.1325 -0.0168
15934W        W34788   1.286   2.860   0.320 -0.0694  0.1806 -0.0117
15935W        W34789  10.661  18.320  11.705 -0.3896  0.0462  0.1691
15936W        W34790   6.005   2.995   5.065  0.1841  0.2199  0.2282
15937W        W34791  13.969   9.685   0.198 -0.1249 -0.0020 -0.0268
15938W        W34792  18.297  16.906  13.613 -0.0030 -0.2190  0.0082
15939W        W34793   6.235   6.445  14.987  0.1002 -0.1625  0.0523
15940W        W34794   8.780  10.843  12.368  0.1475 -0.0782  0.2234
15941W        W34795   4.447   0.361  11.737  0.1114 -0.1606 -0.1796
15942W        W34796  16.337   9.168  11.844  0.2778  0.0240 -0.1633
15943W        W34797  11.427   7.845   5.243 -0.1305  0.0974  0.0795
15944W        W34798  14.099  17.266   2.209  0.0926 -0.1621 -0.1211
15945W        W34799   1.753   6.652   1.804  0.0681  0.1300  0.2980
15946W        W34800  18.787  15.050  10.945 -0.0531 -0.1302  0.1879
15947W        W34801  10.059   0.817   3.579  0.0649 -0.0078  0.0264
15948W        W34802  14.482   9.951  10.692 -0.0806 -0.2468  0.0690
15949W        W34803   5.422   9.194  12.131 -0.1754  0.1489 -0.1488
15950W        W34804   8.053  11.734  13.007 -0.1935 -0.0234  0.0464
15951W        W34805   7.426  14.239  13.221  0.2110 -0.1624 -0.1961
15952W        W34806   0.351   5.914  13.370 -0.2047 -0.1039  0.0034
15953W        W34807   1.276  11.961  12.281 -0.0177  0.2483  0.0466
15954W        W34808   2.011  10.352  12.185 -0.2252  0.0389 -0.2782
15955W        W34809   1.113  15.310   9.615  0.1428  0.2137  0.2088
15956W        W34810   7.696  11.441   4.184 -0.0231 -0.1583  0.0659
15957W        W34811  14.274   3.636   0.121 -0.1626 -0.3604  0.1518
15958W        W34812   9.994  13.504   3.416 -0.2976 -0.0320 -0.1557
15959W        W34813   9.230  11.189   2.770 -0.0038  0.0003  0.0271
15960W        W34814   9.632  18.169   1.011  0.1826 -0.0413 -0.0146
15961W        W34815   2.634  10.014  12.421 -0.1362 -0.1429 -0.2801
15962W        W34816  17.188   2.111   2.069 -0.1033 -0.0650  0.0801
15963W        W34817   0.215  16.052   3.272 -0.2231  0.1986 -0.3184
15964W        W34818   2.719   1.798   1.192 -0.0958  0.0667 -0.1441
15965W        W34819  17.518  13.813  12.014  0.1712 -0.2011  0.1975
15966W        W34820  10.126   9.014  10.543 -0.0280 -0.3729 -0.0517
15967W        W34821  13.542   3.511   3.967  0.1164  0.1080 -0.2209
15968W        W34822   9.071   2.037   0.222 -0.2040  0.3599  0.0798
15969W        W34823  15.260   7.890  14.771 -0.0302 -0.0640 -0.1663
15970W        W34824  10.145   6.203  14.056 -0.0596  0.1447 -0.2414
15971W        W34825  16.328   0.236   1.413  0.1294 -0.0947 -0.2815
15972W        W34826  13.624   8.988  13.194 -0.3116  0.0557  0.0528
15973W        W34827  12.650   7.055  10.920 -0.1510 -0.0215  0.0531
15974W        W34828   1.556   9.840  13.034  0.0414 -0.3916  0.0537
15975W        W34829   6.791   2.654   0.731 -0.0598  0.1746 -0.0333
15976W        W34830   4.817  18.836  14.398 -0.0548  0.0135  0.3393
15977W        W34831   3.957   1.008   0.404  0.4933 -0.3172  0.0531
15978W        W34832   0.306   0.703  10.231 -0.1738 -0.1293  0.0132
15979W        W34833  16.931   9.923  10.800 -0.0232 -0.5559 -0.0205
15980W        W34834   2.558  15.245   3.047 -0.0780 -0.1415  0.2155
15981W        W34835   2.463  14.362  10.466 -0.3377  0.0528 -0.1134
15982W        W34836  12.434   6.754   2.335 -0.0570  0.4653  0.0841
15983W        W34837   7.740   6.722   1.857 -0.2444 -0.1587 -0.3050
15984W        W34838  14.826   4.034  11.695 -0.1706  0.0218  0.0771
15985W        W34839  18.022  13.734   0.051  0.0181 -0.1074 -0.1436
15986W        W34840  15.611  16.104  13.470  0.0139 -0.0732  0.0984
15987W        W34841  13.901  10.789   2.720 -0.0353  0.0522 -0.0857
15988W        W34842  13.943  13.571   4.864  0.0019  0.0589 -0.1316
15989W        W34843   7.050   7.212  12.525 -0.1140 -0.3579 -0.2419
15990W        W34844  17.698  11.234   0.852 -0.1061 -0.0502 -0.2186
15991W        W34845  10.222  11.050   4.464  0.2007 -0.1010  0.0259
15992W        W34846   1.593   5.089  12.307 -0.1012  0.2788  0.0908
15993W        W34847   0.260   0.056   1.252  0.1348  0.0987  0.3326
15994W        W34848   4.339   7.151  13.087  0.0042  0.1033 -0.0763
15995W        W34849  17.621  10.741   1.038  0.1495  0.1372  0.0740
15996W        W34850   1.742   7.080  11.235  0.3254  0.2517  0.0782
15997W        W34851   1.156  12.309  11.448  0.1503 -0.1329  0.0201
15998W        W34852  18.252  15.154  12.987 -0.1063 -0.0830 -0.2251
15999W        W34853   9.870  15.830  13.784 -0.0893 -0.1258  0.1629
16000W        W34854  16.805  13.817  10.651 -0.1113 -0.1318 -0.0516
16001W        W34855   9.709   7.788  12.457  0.0973 -0.1962 -0.0452
16002W        W34856   2.397  18.321   2.503  0.0456  0.1932  0.2462
16003W        W34857  17.152  11.000   1.643  0.1442 -0.4052  0.2347
16004W        W34858   9.365  18.800   0.503 -0.2633  0.0583 -0.0210
16005W        W34859   3.210  15.624   1.041  0.1258 -0.1813 -0.0947
16006W        W34860   8.856   2.399   4.443  0.1775 -0.0300  0.2602
16007W        W34861   2.572  17.689   5.275 -0.0683 -0.2570  0.4813
16008W        W34862   2.233   1.212  13.519  0.1162 -0.1323 -0.0381
16009W        W34863  14.817  17.092  13.104 -0.0495  0.0353 -0.1382
16010W        W34864  12.425   7.112   0.900 -0.3979  0.1561  0.0841
16011W        W34865  12.657   6.762  13.594  0.0988 -0.1557 -0.1366
16012W        W34866   7.003  14.816   0.377  0.0066 -0.2186  0.0412
16013W        W34867  12.705   6.408   4.069  0.0519  0.0083  0.0714
16014W        W34868   1.439   5.183   4.481 -0.1022  0.3434 -0.0401
16015W        W34869   6.678  14.252   3.835  0.1839 -0.2172 -0.0052
16016W        W34870  10.544   8.641  13.326 -0.1598 -0.0665 -0.2407
16017W        W34871   9.934   7.033  14.624 -0.0403 -0.0439  0.4872
16018W        W34872  13.852   5.166   3.819  0.0044  0.1241  0.1879
16019W        W34873   9.992  14.768   2.727  0.3106  0.1293  0.1937
16020W        W34874   5.235   9.543   2.652  0.2920  0.0514 -0.1178
16021W        W34875   8.298  10.854  13.382 -0.0009 -0.0342  0.0620
16022W        W34876   0.324  15.474  11.314  0.1806  0.0303  0.2033
16023W        W34877   4.875  14.314  11.379  0.1147 -0.3815  0.0017
16024W        W34878  11.991   0.434  13.334  0.0707  0.0604 -0.0782
16025W        W34879   1.095  17.340   0.499 -0.0334 -0.2643 -0.0731
16026W        W34880   2.916   9.437  14.733 -0.0960  0.0209 -0.1050
16027W        W34881   4.308   0.029   2.346 -0.2890 -0.0708 -0.0179
16028W        W34882   0.015  12.559   2.767  0.0926 -0.0067 -0.2576
16029W        W34883   5.055  12.006   3.368  0.3772 -0.0060  0.4295
16030W        W34884  18.495  14.509   2.137 -0.0391 -0.2409 -0.0742
16031W        W34885   4.060  16.536   2.781  0.0139  0.0787 -0.1589
16032W        W34886   5.252  15.915  11.449 -0.0849 -0.1242 -0.1454
16033W        W34887   3.428  13.346  11.616 -0.1066 -0.0992  0.1669
16034W        W34888   2.935   4.476  12.116  0.2596 -0.1807 -0.1219
16035W        W34889  10.615   2.510   5.549 -0.1876  0.0655 -0.0659
16036W        W34890   7.431   8.449   3.994  0.1381 -0.3393 -0.0331
16037W        W34891  17.748  13.605   2.772  0.1830 -0.1234 -0.2032
16038W        W34892   9.775   6.810   3.304  0.2068 -0.0342 -0.1339
16039W        W34893   1.942  15.637  13.682 -0.1102 -0.0922 -0.0038
16040W        W34894   6.215  16.075   1.752  0.2514 -0.0546  0.2210
16041W        W34895  11.475   0.365   0.848  0.2839  0.3588 -0.1333
16042W        W34896   0.096   9.338   3.805 -0.1128 -0.3714  0.2232
16043W        W34897   5.827   0.360   3.371  0.2998  0.0975  0.0314
16044W        W34898   1.855   4.779   0.593 -0.3316 -0.1740 -0.0892
16045W        W34899   5.443   6.149  11.425 -0.0082 -0.1525  0.0116
16046W        W34900   3.366   8.040   0.924 -0.1153  0.2833 -0.0065
16047W        W34901   2.672  18.676   0.468  0.0716 -0.1177 -0.2824
16048W        W34902   3.163   8.820  13.278  0.0680  0.0449  0.1809
16049W        W34903   4.157   1.828   1.204  0.4430 -0.1375  0.2213
16050W        W34904  15.832   0.380  11.977  0.0111  0.0042 -0.1673
16051W        W34905   1.775  12.274  14.261  0.2291  0.0995 -0.1708
16052W        W34906   0.990  13.417   3.606 -0.1602 -0.0280  0.0574
16053W        W34907   4.167  10.431   1.104  0.1143 -0.0836 -0.0478
16054W        W34908  10.347   2.060  11.787  0.0423 -0.0348 -0.1040
16055W        W34909  15.670  14.082   3.453  0.2830 -0.0909  0.2174
16056W        W34910  17.365   4.881   0.312  0.0019  0.0351  0.0569
16057W        W34911   6.856  10.742  14.291 -0.0047 -0.0284 -0.1037
16058W        W34912  14.236  16.220  14.585  0.2893 -0.0691 -0.0847
16059W        W34913  17.928  12.456  11.560 -0.0528 -0.1138 -0.2514
16060W        W34914   9.980   8.823   3.197 -0.1360 -0.4074 -0.0810
16061W        W34915   9.617  11.930   4.261  0.2261 -0.1108  0.0001
16062W        W34916   0.575   8.894  12.940 -0.1252 -0.3328  0.1675
16063W        W34917   5.182  17.784  12.883 -0.2968 -0.0027 -0.0023
16064W        W34918  17.134  13.484  11.788  0.3039  0.1564  0.0510
16065W        W34919   4.007   1.897  11.462  0.1486  0.0470  0.0879
16066W        W34920  12.871  18.752   1.110 -0.1181 -0.0813 -0.0460
16067W        W34921   2.442   5.967   5.574 -0.1771 -0.0551  0.0229
16068W        W34922  15.867  18.506   4.570  0.0221  0.0387 -0.0428
16069W        W34923  10.289  15.351   9.924 -0.0753  0.2161 -0.1367
16070W        W34924   3.523   6.587   3.517  0.1825  0.0726  0.0105
16071W        W34925   7.784  12.987   4.660 -0.2446  0.0583  0.2638
16072W        W34926  13.428   1.182   2.795 -0.2741 -0.0070  0.0889
16073W        W34927   2.103  18.772  13.548 -0.1680 -0.1879 -0.0331
16074W        W34928   1.039  14.729  11.414  0.3103 -0.2896 -0.0128
16075W        W34929  17.060   6.097   1.415 -0.3946 -0.2281 -0.0943
16076W        W34930  17.973  12.581   4.924 -0.1457  0.1554 -0.2248
16077W        W34931   7.047   2.536  12.473 -0.2895 -0.0792  0.1287
16078W        W34932   7.690   4.331  14.045  0.1783  0.0349 -0.0734
16079W        W34933  18.588   0.621   0.726 -0.0356  0.0369 -0.0122
16080W        W34934  10.069   6.172   1.267  0.3324 -0.2335  0.0069
16081W        W34935  16.162  17.598   2.094  0.1544 -0.1007  0.0574
16082W        W34936   5.478   5.754  12.431  0.1732 -0.0956 -0.0148
16083W        W34937   0.637  15.343   3.640  0.0972 -0.2500 -0.1711
16084W        W34938  11.225  16.136   2.379  0.0795  0.1988 -0.1989
16085W        W34939   9.348  11.692  12.499  0.0096  0.0906  0.0896
16086W        W34940   1.492  16.850   2.637 -0.0643 -0.2962 -0.0367
16087W        W34941   7.523   8.667  11.161 -0.0036  0.3587  0.2776
16088W        W34942   2.870   0.705   0.999 -0.1612 -0.0705 -0.0290
16089W        W34943  16.479  10.853   2.696 -0.0277  0.1037  0.1939
16090W        W34944   9.701   4.579  13.218 -0.3366  0.2184  0.1172
16091W        W34945  10.603   7.110   0.125 -0.1855 -0.3030  0.1086
16092W        W34946  13.409   8.401   2.354  0.2092 -0.0163 -0.3332
16093W        W34947  13.610   1.525  13.007 -0.0299  0.0489  0.1949
16094W        W34948  18.408  15.347  13.436 -0.1353 -0.1777  0.2105
16095W        W34949   5.790  12.387  11.666  0.0951 -0.2037 -0.2631
16096W        W34950   7.870  18.320   2.624  0.0222  0.1386 -0.0059
16097W        W34951  14.432   6.364   0.662  0.1779  0.0777  0.2018
16098W        W34952   5.040   2.952   1.086  0.0346 -0.2134 -0.1043
16099W        W34953  12.588  17.810  10.985  0.1442  0.0273 -0.2379
16100W        W34954  10.724   3.417   3.089  0.0551 -0.0494 -0.0507
16101W        W34955   9.462   1.715   3.789  0.2770 -0.4506  0.1534
16102W        W34956   5.086   5.233   1.293  0.0169 -0.1714 -0.2707
16103W        W34957   1.210  18.189   2.541  0.1668 -0.1454 -0.2850
16104W        W34958  12.820   6.830  14.441 -0.0188  0.1757 -0.0755
16105W        W34959  13.734   3.178   1.034 -0.0912  0.0643  0.2495
16106W        W34960  18.044   7.462   1.336  0.0114 -0.1656 -0.1207
16107W        W34961   0.558   4.221   4.470 -0.2736 -0.2683 -0.1659
16108W        W34962   0.070   4.143   0.824  0.2763  0.2015 -0.1169
16109W        W34963   8.433  14.871   0.999  0.2854 -0.2050  0.1371
16110W        W34964  12.909  18.272  11.632  0.0836 -0.0374 -0.0616
16111W        W34965   6.389   4.017  13.962  0.2307  0.1614 -0.2969
16112W        W34966   2.985  13.518  12.964  0.2424 -0.1478  0.1387
16113W        W34967  10.638   9.127   3.185 -0.0442  0.1612 -0.1420
16114W        W34968  16.043  18.664   1.632 -0.1371  0.0151 -0.1417
16115W        W34969  10.729   8.862  13.845 -0.1798  0.2606 -0.2827
16116W        W34970   7.048  18.154  10.904  0.2223 -0.1251  0.3469
16117W        W34971  18.530   5.862   0.226  0.1975 -0.1649  0.1506
16118W        W34972   8.491  10.240   1.226  0.2754  0.1494  0.2316
16119W        W34973  10.512   4.870  11.694  0.2209  0.0016  0.0074
16120W        W34974   2.095   0.404  12.331  0.2085  0.2046  0.1301
16121W        W34975   5.283  13.129   3.524  0.1124 -0.1752 -0.0075
16122W        W34976   7.446   7.485  14.805  0.1269  0.2932 -0.0349
16123W        W34977  13.645  13.110   4.075  0.0912  0.1311  0.2222
16124W        W34978  15.750   5.742  11.926 -0.1285  0.1856 -0.2827
16125W        W34979   2.184  17.486   1.356 -0.2025 -0.3493  0.1398
16126W        W34980   3.788  14.115   0.835  0.0732  0.0581 -0.0915
16127W        W34981  18.835  11.043  10.876  0.0546 -0.0805 -0.0779
16128W        W34982  17.435  18.839   1.467 -0.0577  0.1899  0.3350
16129W        W34983  14.292   8.828  11.934 -0.2929 -0.1022  0.0617
16130W        W34984   1.762  11.158  12.653 -0.2389 -0.1075  0.1170
16131W        W34985   4.708  17.621  10.899  0.1095 -0.0994  0.0786
16132W        W34986   4.733   0.109   4.427 -0.0493 -0.1351  0.0201
16133W        W34987   4.708   8.241   2.321 -0.3323 -0.0533  0.1935
16134W        W34988   0.997  13.823  11.390 -0.2481  0.1060 -0.1307
16135W        W34989  15.481   4.016  14.918  0.0942  0.1157 -0.1364
16136W        W34990   4.973  17.872   1.735 -0.0790  0.1653  0.0587
16137W        W34991  15.050   2.448  14.429 -0.1421  0.0685 -0.0281
16138W        W34992   5.350   1.771   5.570  0.1728 -0.0932 -0.2400
16139W        W34993   9.615   8.948  14.627  0.3600  0.1906  0.0668
16140W        W34994   9.621  16.256  11.773 -0.1464  0.1679 -0.0118
16141W        W34995  12.852   1.818  12.838  0.0488  0.2156  0.0354
16142W        W34996   1.081   9.080   0.698 -0.2790  0.1643 -0.1824
16143W        W34997  15.948   9.782   1.389 -0.1470  0.0655  0.2544
16144W        W34998  14.707   0.626   2.396  0.1476 -0.1526  0.1094
16145W        W34999  18.499  13.945   1.690 -0.0550 -0.0311 -0.0516
16146W        W35000   3.973  12.134  11.859 -0.1597 -0.1935 -0.1738
16147W        W35001   9.260   7.309   3.656 -0.1164  0.2209 -0.1700
16148W        W35002   7.970   2.253   2.159 -0.1075 -0.0961 -0.0960
16149W        W35003   5.205  16.203   2.624  0.1871  0.1081  0.1588
16150W        W35004   4.553  11.826  11.192 -0.1810  0.0851 -0.0633
16151W        W35005  13.242   4.153  14.073  0.2198 -0.0036  0.3794
16152W        W35006   4.983  16.067   1.130  0.0523  0.0853  0.1680
16153W        W35007  11.232  11.347   3.086  0.1585 -0.2181  0.1116
16154W        W35008  10.710  11.842   3.500 -0.1169 -0.5881 -0.1343
16155W        W35009  12.578   7.581   0.398  0.0009  0.1681 -0.4137
16156W        W35010   5.736   3.307  13.218 -0.1205 -0.1366  0.0345
16157W        W35011   8.067  18.771   0.040  0.0352 -0.0120 -0.1030
16158W        W35012   1.404   3.547  12.379 -0.0196  0.0381  0.2107
16159W        W35013   4.940  14.907   0.338  0.0893  0.0965  0.1572
16160W        W35014  17.234  11.295   1.056  0.0969  0.3106  0.1031
16161W        W35015  16.819  16.604   4.014  0.4746 -0.1015 -0.0801
16162W        W35016   0.219   1.711   2.968  0.2162 -0.3190  0.0376
16163W        W35017   1.080   8.291   3.634  0.3536 -0.0783  0.2350
16164W        W35018   0.668   8.570   5.070 -0.3455  0.1699 -0.0135
16165W        W35019   4.217   9.165   1.507 -0.4098 -0.1589 -0.1236
16166W        W35020   2.449   9.209  14.825 -0.0869  0.1743 -0.0449
16167W        W35021   6.153  13.518   3.710  0.0196 -0.2149  0.2024
16168W        W35022   0.093   8.169  10.990 -0.0602 -0.0066 -0.0169
16169W        W35023  18.077  12.152  15.116 -0.0857 -0.1741  0.1432
16170W        W35024   5.223  12.519   9.994 -0.0463 -0.2638 -0.0561
16171W        W35025   5.186   3.750   1.410 -0.2440  0.0212  0.0948
16172W        W35026   9.014   6.444  10.307 -0.2673  0.0605  0.0681
16173W        W35027  12.848  16.979   1.756 -0.1984  0.1271  0.4319
16174W        W35028   2.708   1.634  15.090 -0.0200 -0.3045 -0.0773
16175W        W35029  16.563   3.128  12.135  0.0502  0.0929 -0.3591
16176W        W35030   8.629   0.122   1.065  0.0031  0.2771  0.5298
16177W        W35031   8.155  13.967  11.350  0.4033 -0.1751 -0.1705
16178W        W35032   2.536   7.664   1.363 -0.4206  0.1904 -0.0538
16179W        W35033   7.498   3.761   4.710 -0.1410  0.3418  0.0064
16180W        W35034   6.028   5.225   1.245  0.1926  0.1361 -0.0356
16181W        W35035   3.915  17.229  13.951 -0.0659 -0.0142 -0.3754
16182W        W35036  10.642  18.829  12.559  0.3162  0.0443 -0.2809
16183W        W35037   7.047  10.128  11.838  0.3330  0.1458 -0.2375
16184W        W35038   2.724  16.799   3.143 -0.1138  0.0459 -0.0186
16185W        W35039  11.555   4.009   4.920 -0.1782  0.0482 -0.0532
16186W        W35040  18.254  11.017  11.237 -0.2225  0.0088  0.1228
16187W        W35041   0.513   0.457  11.479 -0.0640  0.0886  0.3098
16188W        W35042  10.020   9.011  11.863  0.0486 -0.2168 -0.2113
16189W        W35043  12.071   0.853  13.031 -0.3832  0.2083 -0.0042
16190W        W35044  13.532   8.607  12.776  0.0526  0.0027 -0.2101
16191W        W35045  18.511   8.163  14.514  0.1081 -0.0933 -0.0878
16192W        W35046   7.793  13.088   4.104 -0.0815 -0.3182  0.2432
16193W        W35047  10.400   3.969   3.356  0.2903  0.1170 -0.0395
16194W        W35048   3.324  12.367  14.085 -0.1778  0.1121 -0.2883
16195W        W35049   4.204   9.594   1.714 -0.0297 -0.0202  0.3493
16196W        W35050  16.341  15.245   2.376 -0.2709  0.0442 -0.2428
16197W        W35051   6.357   9.056  12.619 -0.4513 -0.2517  0.0890
16198W        W35052   8.449   3.430  12.315  0.1727  0.0154  0.1873
16199W        W35053   4.072  18.428  11.295 -0.0490  0.2340 -0.0619
16200W        W35054   2.495   6.453   1.077 -0.1775  0.1684  0.0806
16201W        W35055   1.669   1.516  14.945  0.2007  0.1471 -0.2331
16202W        W35056   3.790  14.616   2.987  0.1000 -0.0831 -0.4910
16203W        W35057   4.855   8.316  14.743  0.1842 -0.1001 -0.1475
16204W        W35058   3.083   4.677  10.643  0.0323 -0.1623 -0.0426
16205W        W35059  17.841   3.870  10.827  0.2264  0.1905 -0.2882
16206W        W35060   1.583   2.283  12.491 -0.0515 -0.0230  0.0893
16207W        W35061  13.342   0.026   4.432 -0.0528 -0.0361  0.2275
16208W        W35062   2.644   8.144  12.431 -0.0585 -0.0593  0.0846
16209W        W35063   6.611   3.840  11.627  0.2377 -0.0683 -0.2724
16210W        W35064   6.820  14.050  13.792 -0.0478  0.1810  0.2165
16211W        W35065  16.636   6.209  13.316  0.1154  0.2947  0.4255
16212W        W35066   4.547   4.358  11.895  0.1138 -0.3650  0.3084
16213W        W35067   0.351  11.697  11.986 -0.0523 -0.3765  0.1184
16214W        W35068   0.419   8.537  10.198  0.2852 -0.2193 -0.1463
16215W        W35069   4.270   2.212   3.973  0.0623  0.1404 -0.0593
16216W        W35070   0.086   9.570  12.435 -0.2152 -0.1698  0.0203
16217W        W35071  11.460  12.309   2.010  0.0246  0.1280 -0.1399
16218W        W35072   0.614   6.122  14.590 -0.1189  0.1361  0.1367
16219W        W35073  14.184   1.091   3.651  0.0852 -0.1743  0.0363
16220W        W35074  13.261   9.239   3.072  0.0967  0.1746 -0.1303
16221W        W35075  17.452   7.697   9.742  0.3757 -0.0124 -0.2990
16222W        W35076   8.280   3.554   4.446 -0.1945 -0.2405  0.2631
16223W        W35077  13.433  16.786  14.249 -0.0367 -0.0186  0.1281
16224W        W35078   1.062   5.281   3.220  0.0045  0.2698 -0.1740
16225W        W35079   9.740  12.866   4.014  0.2103  0.0294  0.1081
16226W        W35080  11.296   3.771   0.388  0.1507 -0.0361  0.0677
16227W        W35081   6.870   6.939  12.946  0.1301 -0.0519 -0.3508
16228W        W35082   7.095   8.002  12.330  0.1803  0.0533 -0.0102
16229W        W35083   6.833   8.752  11.206  0.0488 -0.0152  0.0205
16230W        W35084   0.976  15.157   2.609 -0.1176  0.3367  0.2924
16231W        W35085  13.566  15.978  11.557  0.0375 -0.1945  0.0918
16232W        W35086   9.213   6.225   1.788 -0.1044  0.0246  0.1523
16233W        W35087   6.288  16.182   0.046  0.0431  0.0214  0.0338
16234W        W35088   5.480   2.018  14.869 -0.3577 -0.2895  0.1231
16235W        W35089  13.377  13.348   0.548 -0.0013  0.0421 -0.2843
16236W        W35090  11.208  13.854  14.327 -0.0319 -0.1441 -0.0348
16237W        W35091  12.073   5.608  11.246  0.0253  0.0896 -0.1499
16238W        W35092   8.414  13.365  14.253 -0.0821 -0.1599 -0.0980
16239W        W35093  18.143   1.944   1.129 -0.1448  0.0234  0.0740
16240W        W35094  14.918  14.562  10.029  0.0786  0.1195 -0.0848
16241W        W35095   2.911  12.627  10.801 -0.1208 -0.1739 -0.4711
16242W        W35096   5.566   6.043  13.895  0.1070 -0.1223  0.3116
16243W        W35097  10.901  14.325   2.579 -0.0286 -0.2204 -0.0546
16244W        W35098  10.916   0.480   1.568 -0.0154  0.3741 -0.1044
16245W        W35099   1.545   5.916  13.247  0.2430  0.1397  0.2526
16246W        W35100  12.312  18.124   3.507  0.1702  0.0958  0.0840
16247W        W35101  17.919   2.537   3.332 -0.2665  0.1372 -0.0928
16248W        W35102  15.571   9.700   0.545 -0.0445  0.2799  0.1463
16249W        W35103  16.590   0.280   3.767 -0.1534 -0.2598  0.4041
16250W        W35104  13.265  10.887  10.935  0.3227  0.1177  0.3177
16251W        W35105  10.099  10.642  12.622 -0.0981 -0.0397  0.2269
16252W        W35106   0.899   8.027  12.981  0.0977  0.0301  0.0478
16253W        W35107  14.692   0.162   0.190  0.0365  0.1283 -0.1254
16254W        W35108  17.804  11.365  12.982  0.0551 -0.1871 -0.3053
16255W        W35109  18.552   8.112   4.093 -0.0938 -0.2307 -0.1542
16256W        W35110   7.553   8.092   2.307 -0.2241  0.4695 -0.1099
16257W        W35111   1.800  14.152   0.112  0.0341  0.0003  0.2249
16258W        W35112   9.436   4.626   0.091 -0.1138  0.0021 -0.0872
16259W        W35113  14.016   3.902   0.533 -0.1475 -0.1415 -0.1169
16260W        W35114  10.348  14.397  11.194  0.2370 -0.1046  0.1129
16261W        W35115  12.820   7.843  12.167 -0.1812 -0.2042 -0.0265
16262W        W35116  10.427   8.647   3.221  0.0985  0.0613 -0.0873
16263W        W35117   7.965   3.598   4.833  0.0718 -0.2800  0.1284
16264W        W35118   4.575  13.727  13.708 -0.0924 -0.0898 -0.4982
16265W        W35119   0.720  12.380   1.776 -0.2765  0.1535  0.0194
16266W        W35120   6.615   4.288   2.105  0.0040  0.3275  0.0172
16267W        W35121  12.297  12.792  11.670  0.3212 -0.0252  0.2450
16268W        W35122   3.473   6.545  13.268 -0.0402 -0.2200  0.0382
16269W        W35123  18.683   7.115  13.213  0.2363 -0.2700 -0.0884
16270W        W35124   5.111   1.451  14.492  0.2466 -0.3361  0.1414
16271W        W35125  11.219   2.080  13.846  0.1947  0.0380 -0.0814
16272W        W35126   9.575   0.214  14.822 -0.3344 -0.1713  0.0150
16273W        W35127   6.293   1.675   0.480 -0.2211 -0.3432  0.3782
16274W        W35128  12.846  13.374  14.329  0.0395  0.1611  0.2534
16275W        W35129   7.601  14.133  12.754  0.2247 -0.0077 -0.1827
16276W        W35130   4.072   9.304   0.617  0.1409  0.0198 -0.0790
16277W        W35131  17.826   5.758  12.511  0.0584 -0.1768  0.3689
16278W        W35132  17.976  12.587  13.593 -0.1258  0.2803  0.3904
16279W        W35133  16.632   4.022  14.034  0.2004  0.1095  0.2918
16280W        W35134  18.167   0.340   3.557 -0.2798 -0.3106 -0.0698
16281W        W35135  15.373   6.712   4.228  0.0322 -0.1684 -0.0202
16282W        W35136   0.395  14.120  14.325 -0.3321  0.0452 -0.4053
16283W        W35137  15.915  17.561   4.738  0.1971  0.1402 -0.2804
16284W        W35138   3.212   0.979  13.030  0.0828  0.0730 -0.2567
16285W        W35139  12.262   4.919  11.862 -0.2490  0.1888 -0.1483
16286W        W35140  12.276   7.147  10.583  0.0742 -0.0321 -0.0148
16287W        W35141  17.197  14.339  11.755 -0.1695  0.0213 -0.2059
16288W        W35142   6.311   3.522  10.021  0.0887  0.2175  0.1304
16289W        W35143   5.796   7.841   9.830 -0.1123 -0.0795  0.1701
16290W        W35144  11.388   9.760  11.278 -0.2346 -0.0749  0.0113
16291W        W35145  13.576   0.869   2.422  0.1484 -0.1965  0.3173
16292W        W35146   6.828  14.677  10.491  0.0490 -0.1241  0.0029
16293W        W35147  17.995   1.856   1.700  0.0217 -0.0416  0.0558
16294W        W35148   2.610  17.885   3.935 -0.1571  0.1126  0.0700
16295W        W35149  12.848  15.347  13.512 -0.0907 -0.5335 -0.2212
16296W        W35150  16.542  16.176   2.200  0.1562  0.0019 -0.0544
16297W        W35151   6.574  18.285   3.324  0.1655 -0.1538 -0.1422
16298W        W35152   4.648   9.738   3.983 -0.0820 -0.1871  0.0735
16299W        W35153   9.628  12.814  12.245 -0.1032  0.5090  0.1883
16300W        W35154  16.518  16.275  13.481  0.1240  0.0044  0.1754
16301W        W35155   6.264  17.222   2.645 -0.1237  0.0569 -0.2249
16302W        W35156   5.127   8.694   0.517  0.3160  0.1059  0.1566
16303W        W35157  10.770   7.919  15.061 -0.2340 -0.1047 -0.3729
16304W        W35158  11.834   7.177   0.185  0.0127 -0.0915 -0.2523
16305W        W35159   8.140  10.276  13.054 -0.2206 -0.3137  0.2909
16306W        W35160  14.909  11.244   3.168  0.3770  0.4936  0.0544
16307W        W35161   2.828  18.636   3.530  0.1883  0.4985  0.1383
16308W        W35162   8.871   7.028   1.195  0.2938  0.1435 -0.2164
16309W        W35163   2.553   3.406   3.013 -0.0264 -0.2150 -0.0363
16310W        W35164   6.192  14.767  12.088 -0.1319  0.2878 -0.1510
16311W        W35165  18.485   6.536  10.707 -0.0753 -0.2656 -0.0947
16312W        W35166  17.876  18.125  12.285 -0.1457 -0.0513 -0.1029
16313W        W35167   8.177   0.763   1.585  0.0836  0.0091  0.1461
16314W        W35168  11.139  15.798   0.369 -0.0342  0.3480  0.1559
16315W        W35169  13.162   7.644   1.120  0.2276 -0.2146  0.1032
16316W        W35170   5.957  10.011  10.781  0.1643 -0.0993 -0.0472
16317W        W35171   5.975   6.444  11.609 -0.2283  0.1247  0.2339
16318W        W35172  14.956   8.277  11.733  0.0540 -0.1146 -0.1064
16319W        W35173   8.428   2.508   0.201 -0.1873 -0.2340  0.0453
16320W        W35174  16.011  13.316  10.989  0.1157  0.1231 -0.0457
16321W        W35175  15.153  12.547   2.550  0.0804  0.0669  0.0482
16322W        W35176   1.820   8.627   0.238 -0.0830 -0.3963 -0.1476
16323W        W35177   3.032   5.326  14.621 -0.2238  0.4082  0.1205
16324W        W35178   5.527   0.676   2.295 -0.1895  0.2606 -0.1644
16325W        W35179   4.626   8.950  11.716  0.2103 -0.0382 -0.1308
16326W        W35180   0.725   9.706   1.279 -0.3981 -0.0990 -0.0387
16327W        W35181   0.745  10.382  13.181  0.1766  0.0290  0.1218
16328W        W35182  13.742  12.589  14.415 -0.2556 -0.2951  0.0564
16329W        W35183   6.421  12.905   4.980 -0.2376 -0.1390  0.2325
16330W        W35184  11.947  13.097  12.761  0.0266 -0.0033  0.0995
16331W        W35185  15.027   1.623   3.326 -0.2492 -0.2764 -0.1766
16332W        W35186   5.508  15.201   4.021 -0.2167 -0.0066  0.0269
16333W        W35187   1.775   8.095   2.932 -0.0718  0.2441 -0.0630
16334W        W35188  17.795  10.391  13.871 -0.0347 -0.1013  0.3224
16335W        W35189   6.981   6.123  14.181  0.3488  0.1578  0.1303
16336W        W35190   9.327   9.345   2.903  0.0125  0.2653  0.6153
16337W        W35191  11.045   4.582  14.089  0.2848 -0.1905  0.3243
16338W        W35192   7.362   9.916   4.127  0.1349  0.1342 -0.0557
16339W        W35193   1.818  12.279  12.165 -0.1670  0.1627 -0.1903
16340W        W35194   6.146   2.527   3.947 -0.0616 -0.1328 -0.1606
16341W        W35195   6.850   1.603   4.914 -0.1417  0.1464  0.0344
16342W        W35196  16.853  10.643  13.586  0.0471  0.0497 -0.0832
16343W        W35197   8.726  18.485   3.498  0.1492  0.2157 -0.0171
16344W        W35198  13.440  16.271  14.035 -0.0655  0.3370  0.1861
16345W        W35199   7.035  14.772  12.426  0.0259 -0.0502 -0.0362
16346W        W35200   2.453  13.495  13.137  0.0412 -0.0742  0.0933
16347W        W35201  17.303   2.528  12.419  0.1074 -0.0077 -0.0865
16348W        W35202   6.917   0.948  11.495 -0.4847  0.2298 -0.1465
16349W        W35203  18.597   2.329  11.656 -0.0313 -0.2058  0.1439
16350W        W35204   7.920   6.617  11.398 -0.0800 -0.0362 -0.2273
16351W        W35205  13.051   2.482   0.592  0.2309 -0.1425 -0.1943
16352W        W35206   8.792   8.652   1.214 -0.0223 -0.1917 -0.1398
16353W        W35207  15.550  12.505  14.716  0.0802  0.1007  0.0263
16354W        W35208   9.228   8.216   1.265  0.0992  0.1132 -0.0401
16355W        W35209   5.756   5.488  13.635  0.0664 -0.0888  0.0825
16356W        W35210  11.085   8.953   0.890  0.0655  0.1958 -0.1759
16357W        W35211   4.904   8.795  13.858  0.2386  0.3696 -0.0575
16358W        W35212   1.715   4.596   2.928 -0.1901 -0.0838  0.0571
16359W        W35213  10.209  15.145  12.740 -0.3033 -0.2005  0.1304
16360W        W35214   0.405   6.276  12.993  0.2572  0.1209  0.0993
16361W        W35215  16.654  14.832   3.610 -0.1382  0.0983 -0.0735
16362W        W35216  12.899   3.050  14.139 -0.2280 -0.0197  0.0838
16363W        W35217  16.818  15.874  13.719 -0.0680  0.0280 -0.1527
16364W        W35218   7.106   6.075   2.756 -0.2567  0.0575 -0.0889
16365W        W35219  16.624   5.987   3.355  0.2568 -0.0544 -0.2698
16366W        W35220  16.232  10.301   3.505  0.0644  0.1974 -0.2853
16367W        W35221  16.523  13.141  11.068 -0.1712 -0.0837  0.0812
16368W        W35222  12.481   2.891  13.759 -0.2136 -0.1602 -0.0364
16369W        W35223   7.598   3.188  14.749  0.2373  0.1083  0.0633
16370W        W35224  14.597   6.924   4.526  0.2641 -0.1234  0.1264
16371W        W35225   8.611  12.626  13.764  0.1514  0.1876  0.2122
16372W        W35226   6.791  18.542   1.792 -0.0245  0.1096 -0.2519
16373W        W35227  16.305   5.983   4.180  0.2651  0.0888 -0.1912
16374W        W35228  17.196  11.992   1.726 -0.1111 -0.2801  0.4971
16375W        W35229   3.203   3.854  14.503  0.0872  0.0392  0.0388
16376W        W35230  13.170   2.111   2.111 -0.0887 -0.1307 -0.1794
16377W        W35231   4.436   2.040   0.910  0.2874 -0.3585  0.1292
16378W        W35232   7.127   0.358   2.100  0.6322  0.4202 -0.2975
16379W        W35233   9.856  17.235   1.617  0.4899 -0.1431 -0.0990
16380W        W35234   4.990   0.183   3.838 -0.0075 -0.0071 -0.0245
16381W        W35235  11.346   2.205   3.433  0.0762  0.1387  0.0843
16382W        W35236   9.143  14.449   4.177  0.1351  0.1785 -0.2140
16383W        W35237   5.387   3.513  12.826 -0.1557  0.4078  0.2700
16384W        W35238  10.318   1.462  13.267  0.0133  0.1613  0.2695
16385W        W35239  10.660  16.093  11.111 -0.1458  0.0747  0.2430
16386W        W35240   8.901   1.787   9.749 -0.0514 -0.2550  0.1392
16387W        W35241   5.620  10.240  14.288  0.0520 -0.0553  0.2256
16388W        W35242   3.750   6.345  10.786  0.2537  0.0170  0.3277
16389W        W35243  18.582  14.587  11.082  0.1062  0.0306  0.1311
16390W        W35244  15.514  17.714   2.708 -0.1784  0.1829 -0.1102
16391W        W35245  17.853  12.635   4.356 -0.2001 -0.0589  0.0821
16392W        W35246  13.235  13.360   4.394  0.0706  0.0460  0.0267
16393W        W35247   5.584   3.100   4.259  0.0434 -0.2757 -0.0003
16394W        W35248  11.516   8.866   3.572  0.2711 -0.0406 -0.1599
16395W        W35249   6.987  11.076  11.749  0.2430 -0.2613 -0.1190
16396W        W35250  11.707  10.777   1.752  0.0410 -0.2641  0.2560
16397W        W35251   0.270  16.487  14.513 -0.0749  0.2027 -0.1334
16398W        W35252  12.007   3.648  13.957 -0.3402 -0.2289 -0.0773
16399W        W35253   9.274  14.505  14.845 -0.0976  0.0692  0.1275
16400W        W35254   6.554  18.350  12.846 -0.1044  0.0759  0.1752
16401W        W35255  11.625   4.927  15.088  0.0218 -0.2577  0.1097
16402W        W35256  16.010  15.844  13.448  0.1210  0.1064 -0.3581
16403W        W35257  15.287  18.762   3.912 -0.3178 -0.1192  0.1183
16404W        W35258   1.396   8.513  11.693 -0.3470  0.2801 -0.0661
16405W        W35259  10.088  14.045   4.424 -0.1553 -0.2070  0.1849
16406W        W35260   6.505   7.137   1.876 -0.1563 -0.1093  0.1191
16407W        W35261  15.588   8.675  14.304  0.2326  0.0811 -0.0527
16408W        W35262   4.173   1.445  11.610  0.0323  0.2127 -0.1383
16409W        W35263   6.224  17.047   3.961 -0.0678  0.1723  0.2181
16410W        W35264  17.810   6.820  12.297 -0.0115 -0.1201  0.1326
16411W        W35265   0.176   0.035   3.235 -0.2178  0.3001 -0.0878
16412W        W35266   0.014  18.807  10.839  0.3008  0.1117  0.2364
16413W        W35267  10.890  12.260   1.935 -0.0649  0.2702  0.1790
16414W        W35268  18.447   8.588  11.532 -0.0967 -0.2363 -0.2679
16415W        W35269  12.815   5.037  14.254 -0.0311  0.1110  0.4232
16416W        W35270  17.553   3.107   1.674 -0.0426 -0.1380 -0.0371
16417W        W35271  15.310   0.796  11.293 -0.0874  0.4656 -0.2307
16418W        W35272   0.669  11.875   4.514  0.2018  0.0996  0.3277
16419W        W35273   3.702  17.527   1.313  0.1644  0.0512 -0.2824
16420W        W35274   4.736   8.815   3.560  0.0345  0.0689  0.2605
16421W        W35275   4.340  10.804   3.250 -0.0833 -0.1458 -0.1047
16422W        W35276  17.698   8.210  10.910  0.2559 -0.1178 -0.1073
16423W        W35277  13.591  11.473   0.165 -0.0758  0.2943  0.0805
16424W        W35278  11.090  18.774  12.782  0.2268  0.0131 -0.2524
16425W        W35279  13.027   4.042   0.438  0.3290  0.3523  0.5182
16426W        W35280   9.652   1.890   3.307  0.3130  0.2259  0.0000
16427W        W35281  12.415   4.216  12.644 -0.3167  0.1769 -0.0667
16428W        W35282   5.002   1.837  11.937  0.0190  0.0439  0.3637
16429W        W35283   4.550  16.595  11.857 -0.1701 -0.2978  0.1517
16430W        W35284  12.271  16.240   0.492  0.2939  0.1011  0.1688
16431W        W35285  11.943   5.611   3.057 -0.0025  0.2215 -0.0689
16432W        W35286  14.932   9.573  11.577  0.1186  0.0556 -0.1284
16433W        W35287   3.088   1.774   1.928  0.0498 -0.1838  0.0199
16434W        W35288  15.991  17.965   0.235 -0.2794  0.0303  0.1530
16435W        W35289   5.460  14.242  12.195 -0.0420 -0.1539 -0.0267
16436W        W35290  12.739  10.053  12.083  0.0983  0.2396 -0.1040
16437W        W35291   5.234  12.416   1.089 -0.0009  0.1601  0.0129
16438W        W35292  13.094   8.028  11.765  0.2513 -0.6676 -0.0284
16439W        W35293   3.569   3.293  14.401  0.0587 -0.0531 -0.0526
16440W        W35294  14.388   1.540   1.432  0.2347 -0.2496 -0.0796
16441W        W35295  18.078  12.951   2.239 -0.0958  0.0437  0.0007
16442W        W35296  11.759  13.994   1.563  0.2809  0.0975  0.4505
16443W        W35297  11.916  17.225   3.252 -0.1271 -0.2612 -0.0326
16444W        W35298   1.014   6.061   9.551  0.3119  0.2684  0.5632
16445W        W35299  17.022   2.974  12.614 -0.0389  0.6969 -0.2293
16446W        W35300   4.655  17.673   3.441  0.2404 -0.1343 -0.0520
16447W        W35301  11.243   7.922   3.671  0.2595  0.0276 -0.1528
16448W        W35302   9.749   0.989   4.694  0.1527 -0.2510  0.3306
16449W        W35303   3.613   3.728   9.956  0.3378  0.0498  0.0373
16450W        W35304  15.418  11.534   3.315 -0.0206  0.1497  0.1608
16451W        W35305   4.601  14.508   2.595 -0.0394  0.0857  0.0896
16452W        W35306   1.418  14.313  12.107 -0.0489 -0.0817  0.3174
16453W        W35307   7.580  18.351   4.284 -0.1622 -0.1053  0.2623
16454W        W35308  15.084  13.969   5.623  0.0775  0.0951 -0.1449
16455W        W35309   5.626  13.508   1.315  0.0313 -0.0326  0.0116
16456W        W35310  18.147   0.629  13.531 -0.0133  0.0557 -0.1427
16457W        W35311   9.717   9.394  12.177  0.2307 -0.3746  0.2077
16458W        W35312   8.866   7.315   3.279  0.1469 -0.2506  0.0552
16459W        W35313   3.901  18.105  14.492  0.1942  0.1010 -0.0167
16460W        W35314   5.443  15.665  12.829  0.0512 -0.0710 -0.0665
16461W        W35315   5.321   3.785   3.652 -0.0103 -0.0697  0.0980
16462W        W35316  18.823  18.186   1.885  0.0672 -0.1194 -0.0608
16463W        W35317   0.170   1.164  10.364  0.1016 -0.0340  0.1523
16464W        W35318   0.759  17.319  11.193  0.3608 -0.0198 -0.1899
16465W        W35319   1.314   8.989   2.125 -0.2393 -0.0971  0.3356
16466W        W35320  14.772   4.681   3.883 -0.2567  0.2244 -0.0919
16467W        W35321   0.775  11.288   9.780 -0.1059 -0.2101 -0.0780
16468W        W35322   1.793   5.657  12.721  0.1463  0.0478  0.2597
16469W        W35323   4.952  10.690  11.675  0.3245 -0.3293  0.1043
16470W        W35324   8.116  10.573   3.501  0.2049  0.1697 -0.0929
16471W        W35325   2.955   0.715  14.874  0.0807 -0.0711 -0.0570
16472W        W35326   2.595   0.263  14.219 -0.2890 -0.1871 -0.1734
16473W        W35327  17.302   3.781   1.797  0.0663  0.0240  0.0356
16474W        W35328  10.337  16.296   2.559 -0.2850 -0.1338  0.1460
16475W        W35329   7.872   2.459  14.535 -0.0955 -0.2804  0.0625
16476W        W35330   9.365  14.583   2.284 -0.0255  0.0784  0.0912
16477W        W35331   6.231  15.519   2.438 -0.0436  0.2392 -0.2551
16478W        W35332   8.398  11.766   1.954 -0.0780 -0.0179  0.2707
16479W        W35333   2.562   6.490  11.779 -0.1483 -0.1765  0.2802
16480W        W35334  12.940  13.929   5.758 -0.0605 -0.2681 -0.0123
16481W        W35335   7.495   0.354  13.096 -0.0370  0.0666  0.1173
16482W        W35336  10.466   8.383   0.580  0.2444 -0.1122 -0.2242
16483W        W35337  17.381   1.567  12.443 -0.2571 -0.3086 -0.0802
16484W        W35338   4.633  10.098  11.401  0.0487 -0.1307 -0.1520
16485W        W35339  15.408   8.528  13.149 -0.5555  0.1748 -0.1876
16486W        W35340  15.234  12.471   1.682  0.1165  0.0279  0.3825
16487W        W35341   7.672  14.453  14.864  0.2451 -0.1542 -0.1645
16488W        W35342  17.279  15.220   2.788 -0.1340  0.0386 -0.0520
16489W        W35343  18.686  18.258  11.793 -0.0624 -0.0739 -0.0905
16490W        W35344   6.978  12.435   3.072 -0.2649  0.0739 -0.1313
16491W        W35345   9.188  17.590   4.729  0.1565  0.0055 -0.1543
16492W        W35346   8.804  16.714   2.583 -0.2508 -0.1342 -0.0541
16493W        W35347   4.203  11.602   4.040 -0.2977 -0.1672  0.1117
16494W        W35348  11.960   2.663   1.941  0.0773  0.0298 -0.1725
16495W        W35349   8.469  17.970   1.135 -0.1242 -0.3509  0.2456
16496W        W35350  11.497  11.381  10.488  0.2525  0.1176 -0.1376
16497W        W35351   2.376  14.065  11.774  0.0361 -0.1374  0.1805
16498W        W35352   0.259  17.071  14.520  0.2283  0.1409  0.0355
16499W        W35353  10.838   1.770  12.469  0.1469  0.1151 -0.1572
16500W        W35354  11.463   7.738  12.328  0.4202 -0.3043 -0.2195
16501W        W35355   6.032   4.075  13.559 -0.1559  0.0761  0.3021
16502W        W35356   1.735   3.422   1.381 -0.1027  0.2172 -0.0133
16503W        W35357  11.104  18.289  13.944  0.0081 -0.2263  0.0159
16504W        W35358   9.230  12.866  14.126 -0.2472 -0.0385  0.1878
16505W        W35359   0.220   8.286  11.637  0.1166  0.0010  0.2606
16506W        W35360   5.148   6.024  15.070 -0.0702 -0.0553 -0.2827
16507W        W35361   6.757   4.379  13.793  0.1530  0.0138 -0.0673
16508W        W35362   1.779   3.416  13.481  0.0349  0.2069  0.3066
16509W        W35363  15.717  14.320   1.595  0.0678 -0.1162  0.0670
16510W        W35364  12.592  18.256   3.970 -0.1027  0.1910  0.1037
16511W        W35365  16.683   3.986   9.836 -0.1613  0.1043  0.2750
16512W        W35366   3.225   6.353  14.548  0.0204  0.2889 -0.0427
16513W        W35367   5.697  12.660  13.042 -0.1652 -0.2365 -0.0924
16514W        W35368  13.169   3.706  13.573  0.2588  0.0397 -0.0660
16515W        W35369   0.980   0.835   0.861  0.0579 -0.2004 -0.3051
16516W        W35370   9.374   3.083   3.898 -0.1328  0.1110  0.0025
16517W        W35371   2.176   3.201   2.242 -0.1940 -0.3372 -0.0840
16518W        W35372   3.605  16.256   0.564  0.1613 -0.1380 -0.1237
16519W        W35373   1.197  15.811   3.289  0.2340 -0.0286 -0.2451
16520W        W35374   0.736  11.782  14.729 -0.0972  0.1351  0.0652
16521W        W35375   1.187   6.578  12.062 -0.2447 -0.0781 -0.0437
16522W        W35376  10.734  13.352  10.559  0.0392  0.1535 -0.2922
16523W        W35377   9.578  14.029  11.989  0.4260  0.1438  0.1536
16524W        W35378  13.453   3.306  13.317 -0.0829 -0.0308  0.0582
16525W        W35379  18.440  11.736  12.810 -0.0289  0.1276  0.0070
16526W        W35380  17.394   6.392  14.273 -0.0527 -0.1242 -0.1769
16527W        W35381  11.769  10.750  10.846 -0.1535 -0.1700  0.3492
16528W        W35382   3.668   8.950  13.490 -0.0978 -0.0443  0.1989
16529W        W35383   3.466  17.377   0.188 -0.1224 -0.0704 -0.1354
16530W        W35384  18.525   1.162   0.643  0.2836  0.1180  0.0206
16531W        W35385  10.746  13.957   3.407 -0.0889 -0.1323 -0.3845
16532W        W35386  16.213  10.580  10.521  0.3189 -0.2950 -0.0949
16533W        W35387   7.361  15.682  12.468  0.1242  0.1588 -0.0667
16534W        W35388   9.331   7.876  11.416 -0.2095 -0.0292  0.0900
16535W        W35389   7.185   1.971   4.610  0.0861 -0.2415  0.0658
16536W        W35390  14.817   5.641  13.977  0.0579  0.1028  0.0313
16537W        W35391   3.971   6.627  13.459 -0.1890  0.0636 -0.2179
16538W        W35392   2.207   8.597  14.940  0.1524  0.0608  0.2848
16539W        W35393   1.488   5.852   3.379  0.3003 -0.1408  0.1281
16540W        W35394   4.475   6.992   1.670  0.0809  0.1239 -0.3122
16541W        W35395   6.039   4.224   3.497 -0.2545  0.1064  0.0404
16542W        W35396  10.479   0.290   1.340 -0.2346 -0.0459  0.2376
16543W        W35397   6.210   0.575   2.542  0.2252 -0.0311 -0.1533
16544W        W35398  16.331  13.390  10.645  0.5133  0.4280  0.1105
16545W        W35399  11.752   3.532   1.961 -0.0250  0.3494 -0.2461
16546W        W35400   8.666   1.395  13.222 -0.3380 -0.1571  0.1668
16547W        W35401   5.465  13.888  12.788 -0.1279  0.0235  0.0582
16548W        W35402   4.114   2.573   3.607  0.0060  0.1942  0.1446
16549W        W35403  11.663   3.013   2.008  0.1402 -0.0542 -0.4239
16550W        W35404  15.449   3.180  14.945 -0.2161  0.0009  0.2054
16551W        W35405  14.523   7.252  12.739  0.1363 -0.2963  0.1579
16552W        W35406  17.383   3.344  12.545 -0.0880 -0.0364 -0.1454
16553W        W35407  14.697   8.214  11.337  0.2376 -0.1142  0.5069
16554W        W35408   6.635   8.339  14.659  0.0657 -0.2478 -0.1265
16555W        W35409  17.713  18.116  11.711  0.2291 -0.3603 -0.1786
16556W        W35410   6.759   8.821   2.588  0.1990  0.0981  0.1318
16557W        W35411   4.347  11.747  13.314 -0.1345  0.1749  0.1648
16558W        W35412  10.124  16.227  13.507 -0.3582 -0.2830  0.3015
16559W        W35413   8.542  14.383  14.922  0.4498  0.0572 -0.1033
16560W        W35414   6.624   5.606  14.954  0.4576 -0.2233 -0.0562
16561W        W35415  10.012  15.755   0.267 -0.0139 -0.0570 -0.2170
16562W        W35416   6.438   9.222   5.410  0.0315 -0.1515 -0.1925
16563W        W35417   9.898   5.315   0.049  0.1208 -0.1224 -0.2147
16564W        W35418  18.753  13.662   1.990 -0.4111  0.0866  0.1105
16565W        W35419  15.408  12.213  10.891  0.2763  0.0891 -0.0104
16566W        W35420  12.239  13.671   1.882 -0.2733 -0.1924  0.0699
16567W        W35421  11.031   3.071  14.650 -0.0575 -0.3121  0.0561
16568W        W35422   9.098  14.439  13.390  0.3576  0.2058  0.0302
16569W        W35423  15.227  12.477  14.262  0.2211  0.2303  0.0437
16570W        W35424   5.116   7.679  12.152 -0.2851 -0.0457 -0.1137
16571W        W35425   4.783   2.327   2.840  0.0030 -0.0179 -0.0544
16572W        W35426  15.147   3.586  10.937 -0.1165  0.0140 -0.0736
16573W        W35427  13.790   3.693   3.263 -0.3150  0.0888 -0.0246
16574W        W35428   9.500   3.553  12.210  0.1075  0.2718  0.1674
16575W        W35429   9.743  14.593  13.961 -0.1355 -0.3446  0.1536
16576W        W35430   6.205  10.594   3.986  0.1475 -0.1035 -0.0635
16577W        W35431  15.331   6.610  15.078  0.2086 -0.2213  0.0545
16578W        W35432  16.364   2.417   2.240  0.0802  0.1794 -0.0833
16579W        W35433  13.543   9.487   0.816  0.0666 -0.0645  0.1657
16580W        W35434   4.040   9.025   4.086  0.4151  0.0152 -0.1692
16581W        W35435  12.094   8.986  13.947 -0.2461  0.1015  0.0294
16582W        W35436   2.822  10.787   2.355 -0.3875  0.0495  0.5058
16583W        W35437  14.206   4.523   1.054 -0.0412 -0.0487 -0.1556
16584W        W35438   8.671   0.156  13.879  0.0085 -0.0420  0.1916
16585W        W35439   9.467  17.148   4.808 -0.0096  0.1513 -0.1466
16586W        W35440  12.144  14.966  14.818 -0.2259  0.0339  0.2578
16587W        W35441   8.795   4.090  14.160  0.1298  0.1137  0.0479
16588W        W35442  11.241   6.539   4.411 -0.1585  0.1281 -0.0049
16589W        W35443  15.347   5.474  11.989  0.2011  0.3122 -0.0327
16590W        W35444   6.642  10.278  14.248 -0.1257  0.4805 -0.2609
16591W        W35445  16.526  13.618   9.755 -0.0402 -0.1575 -0.1088
16592W        W35446   5.719   0.249  14.812 -0.0768  0.0858 -0.1223
16593W        W35447   0.751   2.481  12.048  0.0299  0.3341 -0.1488
16594W        W35448  13.950  12.023  13.708  0.1630 -0.0303  0.0696
16595W        W35449  16.033   1.930   0.629 -0.0271  0.2178  0.0144
16596W        W35450   9.315  18.413   3.806 -0.0936 -0.0438 -0.1248
16597W        W35451   7.258  11.591   2.574  0.1135 -0.1484  0.1668
16598W        W35452  17.432   9.658  11.656  0.0827 -0.0529  0.0355
16599W        W35453   9.296   4.777  13.042  0.2422  0.0585  0.3013
16600W        W35454  18.258   8.682  12.378 -0.1273 -0.2310 -0.1070
16601W        W35455   3.257   0.222  13.906  0.2218  0.0658  0.0758
16602W        W35456   9.949  14.650  12.673  0.0528  0.3763 -0.0034
16603W        W35457   2.530  18.570  11.688 -0.0678  0.1154  0.2676
16604W        W35458  17.207   4.396   0.645 -0.1631  0.0962 -0.1934
16605W        W35459  17.742   3.222  15.037 -0.2412 -0.1280 -0.0344
16606W        W35460  17.852   1.908  10.740  0.0326 -0.3266  0.1822
16607W        W35461  14.634  16.539   0.733 -0.0425 -0.0213 -0.0616
16608W        W35462  14.405   8.858   0.766 -0.1095 -0.0570 -0.0313
16609W        W35463  17.545  10.203   1.659  0.1020  0.4038  0.0025
16610W        W35464  14.366  14.574   3.741  0.2734  0.0524 -0.1647
16611W        W35465  13.958  17.317  13.645  0.1117 -0.1235  0.1477
16612W        W35466  15.085  17.819   2.254 -0.0450 -0.0982 -0.1177
16613W        W35467   9.441   7.564  12.993  0.1219 -0.0592  0.2197
16614W        W35468  11.020   6.228   2.057 -0.2790  0.1164  0.0105
16615W        W35469  16.013  11.213   0.868  0.0590 -0.0813 -0.0203
16616W        W35470   3.093  13.833  15.076 -0.1237  0.1242  0.1191
16617W        W35471   7.196   0.840   4.709  0.3446  0.1512 -0.2725
16618W        W35472  10.532  14.784   0.702 -0.1772  0.1079 -0.1971
16619W        W35473  17.493  11.528   3.632  0.0750  0.3023 -0.1244
16620W        W35474  12.804  16.277   2.181 -0.1923 -0.0231  0.2233
16621W        W35475   5.580   1.097   2.514  0.1162 -0.0601  0.1372
16622W        W35476   8.599   4.819   1.080  0.1179 -0.1309 -0.0461
16623W        W35477   9.839  16.464  12.171  0.2626  0.2370  0.0305
16624W        W35478  17.521   4.760   1.493 -0.0486  0.2203  0.2384
16625W        W35479   7.782   8.759   1.470  0.2046  0.2846  0.0863
16626W        W35480   1.823  17.928  14.080 -0.2660 -0.0998 -0.0111
16627W        W35481   3.210  15.572  12.085  0.2436 -0.0449 -0.3112
16628W        W35482  17.244  17.874   0.723  0.1533 -0.1289 -0.1583
16629W        W35483  17.813  18.001  12.735  0.0481 -0.0314 -0.0492
16630W        W35484  10.573  17.055  13.451  0.1375  0.0276 -0.0345
16631W        W35485  14.129   3.708   1.760 -0.0786  0.0786 -0.1674
16632W        W35486  16.096  12.899  13.932  0.0440 -0.2665  0.0734
16633W        W35487  17.132   4.908  14.063 -0.0201  0.1300 -0.2060
16634W        W35488  18.461  13.622  13.751 -0.0270 -0.0185 -0.4865
16635W        W35489   2.242  15.069  12.736 -0.2625  0.2436 -0.1128
16636W        W35490  16.054  17.845  14.257  0.0992  0.1849 -0.0110
16637W        W35491   9.441   1.096  15.104  0.0058  0.0398 -0.1551
16638W        W35492  16.645   0.847   0.623  0.2469 -0.2370 -0.2232
16639W        W35493  14.743   2.407   3.778 -0.1899  0.2409 -0.0119
16640W        W35494  13.872  18.082  14.226  0.1188 -0.1016  0.3323
16641W        W35495   3.743  16.755  14.232  0.1025  0.1602  0.1221
16642W        W35496  13.779   6.256   1.461 -0.1081 -0.1265  0.0540
16643W        W35497  12.518   7.633  14.907 -0.1031  0.2714 -0.2641
16644W        W35498   4.627  16.971   2.308 -0.3844 -0.0341 -0.2192
16645W        W35499   3.687   9.763   0.053 -0.1535 -0.1685  0.2905
16646W        W35500  12.663   6.267  12.355 -0.4542  0.1741 -0.0891
16647W        W35501  17.584   2.844   0.721  0.5613  0.0615 -0.1277
16648W        W35502   4.522   7.468  14.292  0.0072 -0.0041 -0.0409
16649W        W35503   7.843  16.506  11.901  0.2807  0.0159 -0.0175
16650W        W35504  15.300   8.744  11.808 -0.3825 -0.0504 -0.1461
16651W        W35505  17.394  18.432   1.902  0.1604  0.0809 -0.1606
16652W        W35506   4.427   1.742   2.290 -0.2211  0.1484  0.2107
16653W        W35507  12.905   6.830  12.240 -0.0143 -0.1059  0.0344
16654W        W35508   2.339   6.855  14.750  0.1768  0.2264 -0.0978
16655W        W35509   9.836  12.467   3.604  0.3824  0.0711 -0.0561
16656W        W35510   3.598   7.201   0.016  0.0675 -0.1876 -0.1444
16657W        W35511   3.277   5.737   3.771 -0.0577 -0.2691 -0.1434
16658W        W35512   9.504   3.641   1.502  0.2623 -0.1289  0.2474
16659W        W35513  10.863  17.623   0.068  0.0556 -0.0896 -0.2048
16660W        W35514  17.190   7.030   2.241 -0.0293  0.1921 -0.0530
16661W        W35515   6.750   7.384  14.221 -0.0237  0.2512 -0.0655
16662W        W35516  12.043   1.805  11.373 -0.3257  0.1882 -0.0785
16663W        W35517   2.484   4.929   4.188 -0.0996 -0.0964 -0.1972
16664W        W35518  15.976  11.347   4.710 -0.2022  0.0729 -0.1218
16665W        W35519   5.867  15.258  12.909 -0.0629  0.1239  0.1070
16666W        W35520   3.643  18.678  13.855  0.0876  0.2154  0.1076
16667W        W35521   3.079   2.453  12.767 -0.3645  0.1672 -0.0915
16668W        W35522   2.139  12.427   3.863 -0.2424 -0.0168  0.2222
16669W        W35523  11.801   7.976  11.706  0.2143  0.0559 -0.1121
16670W        W35524   7.783  15.360  12.519 -0.2626 -0.3620 -0.1029
16671W        W35525   8.032  17.131   3.568  0.0281  0.3999 -0.1468
16672W        W35526  14.670   9.964   3.471 -0.0205  0.1789  0.2989
16673W        W35527  14.684   9.100  11.322  0.1289 -0.1575  0.0471
16674W        W35528  10.640  14.902  12.482 -0.4122 -0.2771 -0.0101
16675W        W35529  10.637  15.448  12.399  0.0312  0.1500  0.0888
16676W        W35530  16.696  13.345  12.073 -0.2244  0.2435  0.0373
16677W        W35531  13.596   8.835   0.859  0.0078 -0.0013  0.0088
16678W        W35532   6.937   7.694   3.469 -0.2984 -0.0653  0.2964
16679W        W35533  15.740   1.265   3.448 -0.1471  0.2197 -0.5862
16680W        W35534  10.064  18.031  12.881  0.1284 -0.0556 -0.0152
16681W        W35535  13.139   0.033   3.838 -0.0702  0.3198 -0.2120
16682W        W35536  14.401   3.244   4.212  0.1237  0.0847  0.2434
16683W        W35537   3.592  11.682  10.356 -0.2940  0.0615 -0.2910
16684W        W35538  16.932   4.291   4.172  0.0082 -0.1194 -0.0221
16685W        W35539  18.823  16.268   2.912  0.1984 -0.0078 -0.1310
16686W        W35540  13.668  15.038  10.807 -0.1712 -0.0807 -0.0565
16687W        W35541  14.010  10.021  14.947  0.0476  0.1632  0.1823
16688W        W35542  12.994  10.867  12.439  0.0469  0.0706 -0.1600
16689W        W35543   0.333  14.353   2.405  0.1225  0.0478 -0.0518
16690W        W35544   0.613  14.435  11.627  0.0645 -0.1661 -0.0999
16691W        W35545  11.892   4.342   1.892 -0.0587  0.2451  0.1447
16692W        W35546  16.514  17.510  13.178 -0.0269 -0.1367 -0.1065
16693W        W35547   6.244   5.928  14.224  0.2060  0.1037  0.0924
16694W        W35548  12.159  12.137   0.945  0.0857 -0.0676 -0.2260
16695W        W35549   7.211   5.927  14.596 -0.1893 -0.2787  0.0229
16696W        W35550  13.514  11.459  14.321 -0.0798 -0.0939 -0.2078
16697W        W35551   7.932   0.963   3.220  0.0975  0.1895 -0.0912
16698W        W35552   5.877  10.681  14.179  0.1214  0.0691 -0.0847
16699W        W35553   6.008   1.106   2.309  0.0680 -0.2803  0.4700
16700W        W35554   5.356  11.893  13.646  0.0152 -0.1357 -0.1128
16701W        W35555  12.790   7.526   1.616 -0.3631 -0.2440  0.0229
16702W        W35556   1.757  12.591   1.978 -0.3701 -0.0322  0.1263
16703W        W35557   3.665  10.098   3.834  0.1732 -0.0778 -0.2651
16704W        W35558  16.522   1.359   2.863  0.1614 -0.0238 -0.4199
16705W        W35559  14.345   3.098   0.010  0.0557 -0.1287  0.0950
16706W        W35560  10.422   0.420  11.584  0.2106 -0.0488 -0.2395
16707W        W35561  14.496  18.793   2.596  0.1600 -0.1450  0.2055
16708W        W35562  16.266   5.971  14.113  0.1516 -0.4648  0.2505
16709W        W35563  18.072   8.439   2.011  0.3389 -0.0881  0.0690
16710W        W35564   6.417  15.461  10.049  0.1134  0.0809  0.0239
16711W        W35565  12.882   9.514  14.081  0.0152  0.0093 -0.4372
16712W        W35566   8.537  17.790   1.874 -0.2761 -0.1256  0.1904
16713W        W35567   1.349   4.153   3.864  0.1210 -0.0689 -0.0936
16714W        W35568   3.973   0.112  11.380  0.1340 -0.3002  0.0660
16715W        W35569   9.436   2.522  14.431  0.3598  0.1010  0.1838
16716W        W35570  13.166  15.681   4.324 -0.0142 -0.0209 -0.0174
16717W        W35571  18.348  14.957  14.438  0.1417  0.3727 -0.2079
16718W        W35572  10.190   8.215  11.761 -0.1155  0.0174 -0.1285
16719W        W35573  16.692  16.436  13.016 -0.1934  0.0990 -0.0431
16720W        W35574  10.710  14.542  13.826 -0.1736 -0.1215 -0.1395
16721W        W35575   4.146   2.203   0.052 -0.0678  0.4538 -0.1892
16722W        W35576  16.932  12.877  13.020  0.2930 -0.1842 -0.2491
16723W        W35577   5.175   8.846   1.550 -0.1781  0.1352  0.0341
16724W        W35578   4.247  11.375   2.103 -0.2202 -0.3803 -0.4937
16725W        W35579  14.430  10.490  13.234  0.0371  0.2125  0.2503
16726W        W35580   8.784   9.866  11.448 -0.2631 -0.2394 -0.2155
16727W        W35581   5.137  10.237  12.258  0.1246  0.0832 -0.0272
16728W        W35582  14.187  12.404   4.376  0.1047 -0.2295  0.0219
16729W        W35583   2.277   7.826   0.656  0.1592 -0.2485  0.0204
16730W        W35584  11.180  18.588   0.134  0.5482 -0.2710  0.1383
16731W        W35585  18.750   1.426   0.301 -0.2028  0.1475 -0.0591
16732W        W35586  11.587   0.837   0.043  0.1505  0.0387 -0.0254
16733W        W35587  11.826  13.065   3.031 -0.2220  0.2069  0.0950
16734W        W35588  17.950  13.393   3.208  0.0956 -0.0945  0.2060
16735W        W35589  11.158   5.041  12.324 -0.3492 -0.0783 -0.0684
16736W        W35590   5.080  17.838   4.415  0.0985  0.2397 -0.0303
16737W        W35591   7.488   0.604  14.644 -0.0484  0.1185 -0.1265
16738W        W35592   8.587  15.947   1.577 -0.1132 -0.2104  0.2531
16739W        W35593   5.482   5.769   1.842 -0.1860 -0.0270  0.1636
16740W        W35594   1.026   0.143  12.257 -0.2378 -0.2039  0.2305
16741W        W35595   6.968  14.547   2.155  0.1145 -0.2165 -0.0509
16742W        W35596  11.572   7.579  14.765  0.0809  0.0274  0.1149
16743W        W35597  14.013   4.525   1.846  0.0609 -0.0111  0.2955
16744W        W35598   1.739   1.559   2.887  0.2238 -0.0269  0.1809
16745W        W35599   8.939   1.412   4.377  0.0346 -0.0294 -0.0281
16746W        W35600  17.569   5.144  11.353 -0.0354 -0.2885 -0.0045
16747W        W35601  17.209   9.836   4.223 -0.2625  0.3437  0.0890
16748W        W35602  12.139  14.222  14.522  0.3377  0.0524 -0.2615
16749W        W35603  12.592   8.422   2.779  0.1076 -0.2060 -0.0805
16750W        W35604   8.046  18.189   3.076 -0.0592  0.0916  0.0913
16751W        W35605   0.203   2.496  11.706  0.0372  0.0616 -0.0827
16752W        W35606  10.559   4.461  10.235  0.0017  0.3729 -0.1098
16753W        W35607   8.292   0.577   3.872 -0.3110  0.0311  0.1761
16754W        W35608   7.647   6.880  14.527  0.0088 -0.2913 -0.1116
16755W        W35609  18.753   2.089   3.682  0.3730  0.1050  0.0332
16756W        W35610  15.336   0.411   3.821 -0.1582  0.0305 -0.0282
16757W        W35611   0.798   4.524   4.143 -0.1653  0.5068 -0.3305
16758W        W35612  10.276  15.562   0.635 -0.1691  0.2359 -0.0205
16759W        W35613  14.886  12.293   1.987 -0.1833 -0.1094 -0.2569
16760W        W35614   6.170   3.705   3.707 -0.1060  0.2632 -0.0162
16761W        W35615  13.830   6.196  14.865  0.3450  0.2805  0.2034
16762W        W35616   2.074  13.804  12.045 -0.0544 -0.0321 -0.0253
16763W        W35617   0.615   7.792  10.796  0.0329 -0.1188 -0.3820
16764W        W35618   0.867  18.003  12.772  0.3642 -0.1067 -0.0642
16765W        W35619   6.947   8.183  12.793  0.4845  0.0807 -0.0601
16766W        W35620   4.978  10.097   2.290  0.3246  0.3180 -0.0947
16767W        W35621   0.310  16.607   0.981 -0.0513  0.0501  0.0232
16768W        W35622   4.005   7.644   0.361  0.1874  0.2226  0.0436
16769W        W35623   9.856   4.761  14.941  0.4367 -0.2863 -0.2311
16770W        W35624   9.134  15.434  14.216 -0.2390 -0.1212  0.0679
16771W        W35625  14.716   6.256   1.327  0.1060 -0.0265 -0.0531
16772W        W35626   6.444  10.136   3.929  0.1256 -0.3556  0.1332
16773W        W35627   3.463   6.612  14.968 -0.2069 -0.2072  0.0192
16774W        W35628  12.623   0.569   2.757 -0.0919  0.1397 -0.3975
16775W        W35629   0.192  13.658   0.575  0.0281 -0.1750  0.3482
16776W        W35630   2.405   0.807   1.866 -0.2731  0.0108 -0.0011
16777W        W35631   9.585  12.346  14.828  0.1210  0.2171  0.3020
16778W        W35632   4.640   7.290  13.509  0.0416  0.0424 -0.2960
16779W        W35633  15.564   6.091   4.586 -0.1464 -0.0875 -0.0521
16780W        W35634   3.519   5.287   2.293  0.1879 -0.2692  0.4529
16781W        W35635   2.237   6.292   3.367 -0.0752  0.0931 -0.0592
16782W        W35636   1.511  14.050  10.898 -0.2974  0.0018  0.1329
16783W        W35637  13.558   0.320  15.074  0.1252  0.1132  0.1863
16784W        W35638  17.198   0.787  10.979 -0.2451  0.0771 -0.1818
16785W        W35639  12.572   3.474  10.827 -0.2721  0.1723 -0.1747
16786W        W35640   1.506   2.411  11.607 -0.1267 -0.0551 -0.0142
16787W        W35641   7.099   1.043  12.805  0.0751  0.0989  0.0785
16788W        W35642   1.982   3.389   0.323  0.1515 -0.0931  0.1009
16789W        W35643  13.699   4.619  10.943  0.2442  0.1026  0.1126
16790W        W35644  18.678   5.240   1.011 -0.2983  0.0433 -0.0216
16791W        W35645   1.880  10.985   1.344 -0.1087  0.1200  0.0872
16792W        W35646   9.015  16.935  11.574  0.0502  0.0671  0.0235
16793W        W35647  18.684  14.060  13.597  0.0220 -0.0861  0.3375
16794W        W35648  16.812   0.066  12.115 -0.2603 -0.1254  0.1352
16795W        W35649   3.599   0.821  10.809 -0.1910 -0.0446 -0.0153
16796W        W35650   9.165   1.750  12.565 -0.1203 -0.1185  0.1433
16797W        W35651   1.390  12.596  14.815 -0.0100 -0.0155  0.0010
16798W        W35652  10.058  12.066  12.643 -0.0393 -0.1459 -0.5256
16799W        W35653   1.050   8.802  12.042 -0.0310  0.2313  0.0852
16800W        W35654   4.197   4.035  11.694 -0.0721  0.0124  0.2680
16801W        W35655   4.487  12.751   4.316 -0.0660 -0.2947 -0.1009
16802W        W35656   8.707  18.254   2.098 -0.2001  0.0887 -0.0826
16803W        W35657  12.070  15.983   3.212 -0.2875  0.0673 -0.1021
16804W        W35658   5.732  17.040  13.060  0.1170  0.2840  0.1562
16805W        W35659   3.227  14.262  13.467 -0.0681  0.0151 -0.0675
16806W        W35660  14.608   7.987   1.598 -0.0416 -0.2274 -0.1307
16807W        W35661  16.205   9.849   3.289  0.2070  0.0940  0.2478
16808W        W35662  12.288   5.651   2.173 -0.1145  0.2601  0.3576
16809W        W35663   2.515  10.068   2.751  0.0308 -0.2464  0.0679
16810W        W35664  15.194  11.669  11.540 -0.1511  0.0086 -0.0216
16811W        W35665  16.846   5.564  15.036  0.1127  0.1018  0.3589
16812W        W35666  13.433   4.788  13.195 -0.1482 -0.1224 -0.1038
16813W        W35667   7.334  14.505   2.513  0.3210  0.0380  0.1286
16814W        W35668  11.306  11.106   3.545  0.2496 -0.4160  0.1199
16815W        W35669   3.010   3.148   1.242 -0.0743 -0.1138  0.2881
16816W        W35670  13.015   5.896  12.632  0.1863  0.0051 -0.0262
16817W        W35671   0.532   9.135   2.643  0.1321  0.1906  0.1866
16818W        W35672   8.178  14.705   0.603  0.0065  0.1808  0.0850
16819W        W35673  15.344  17.456  12.491 -0.2117  0.1098 -0.0126
16820W        W35674   5.071  18.655   4.142 -0.0077 -0.0704  0.1955
16821W        W35675   9.742  14.899  10.608  0.2967 -0.0157  0.2608
16822W        W35676   0.620   2.957   2.867  0.0478 -0.1447 -0.0571
16823W        W35677   7.906  18.497   0.473 -0.1595  0.1807 -0.0574
16824W        W35678   9.602  15.192  12.662 -0.0264 -0.2849  0.2226
16825W        W35679  14.439  10.682   1.793 -0.0833  0.0936  0.0056
16826W        W35680  12.045  11.012  12.136  0.2638 -0.1121 -0.1404
16827W        W35681  15.568  15.576  13.642  0.0784 -0.1306 -0.0132
16828W        W35682  17.780  17.262  14.766  0.2943 -0.1195 -0.0064
16829W        W35683   5.488  14.334   1.635 -0.2097 -0.1278 -0.4487
16830W        W35684   6.986   9.542  11.996 -0.0135  0.1466 -0.0538
16831W        W35685  15.073   3.144   3.700 -0.1638  0.3901 -0.0340
16832W        W35686   0.467   0.379  14.135 -0.2625  0.0466  0.2004
16833W        W35687   3.443  17.718  10.136 -0.1436  0.2094  0.1996
16834W        W35688   8.961  17.933  11.611  0.1348 -0.0735  0.0927
16835W        W35689   1.098  17.070   4.581 -0.1350 -0.0561  0.3696
16836W        W35690   5.955  12.119   9.633  0.0086 -0.1471  0.2165
16837W        W35691  11.994   8.774   2.241 -0.1673  0.0328 -0.3363
16838W        W35692   5.925  18.199   3.766 -0.1615  0.2638  0.1604
16839W        W35693   2.515   2.094   4.012  0.2031  0.0179  0.4875
16840W        W35694   4.327   6.806  10.458 -0.3224  0.2626 -0.1175
16841W        W35695  17.115  10.415  12.095  0.1535 -0.0717  0.2586
16842W        W35696   2.291   7.338  10.545 -0.3486  0.2926  0.2065
16843W        W35697   3.724   4.461  13.749  0.0188  0.0004  0.1824
16844W        W35698   6.826   4.224  14.272  0.1864  0.0919  0.1445
16845W        W35699  14.331   2.537   0.472 -0.2555 -0.4037 -0.0874
16846W        W35700  12.436   3.828  14.892  0.1640  0.1718 -0.1106
16847W        W35701   0.293  17.913   0.717  0.1341 -0.0010  0.1577
16848W        W35702  16.228   6.424   0.113  0.2217 -0.0484 -0.0451
16849W        W35703  15.882  16.533  14.186 -0.1489 -0.3054  0.0200
16850W        W35704  13.499   9.593   1.546 -0.1467 -0.3839 -0.0803
16851W        W35705   1.892  10.019   4.719 -0.3482 -0.4784  0.1060
16852W        W35706   2.571   4.407   1.000  0.1816  0.1648 -0.5293
16853W        W35707   2.564  17.177   1.132 -0.0235 -0.2452 -0.1195
16854W        W35708  17.141  17.873  10.808 -0.0053 -0.1644  0.0573
16855W        W35709  15.036  13.554   2.522 -0.0965 -0.1541  0.0044
16856W        W35710  16.988   2.268  10.389  0.0153  0.0856 -0.3396
16857W        W35711  18.006   5.843   2.184 -0.0075 -0.0728  0.0217
16858W        W35712   8.525   8.050   1.937 -0.1229 -0.1976  0.2295
16859W        W35713   7.225  14.676  11.964  0.2257 -0.1452 -0.1038
16860W        W35714   3.737  10.116   0.412  0.0232 -0.0140  0.0493
16861W        W35715  17.890   0.991   3.830 -0.1597 -0.0236  0.1471
16862W        W35716  10.085   4.415   1.644 -0.0315 -0.1225 -0.3157
16863W        W35717   6.912  15.236   1.046  0.2792 -0.2771  0.0480
16864W        W35718   4.521   0.492  13.745  0.0548 -0.1787 -0.0893
16865W        W35719  13.110  15.278  11.505  0.1245  0.1010 -0.1470
16866W        W35720  10.173   5.774  13.749 -0.1428 -0.1709 -0.0288
16867W        W35721  15.307   9.079  14.419 -0.1283 -0.0047  0.1140
16868W        W35722   3.415  16.218   1.633  0.0436  0.2230  0.2808
16869W        W35723   2.516   3.558  13.141 -0.1323 -0.0973  0.0843
16870W        W35724   1.964   1.131   3.250  0.0240 -0.0989 -0.2076
16871W        W35725  16.964   2.455  13.705 -0.1423 -0.1202 -0.0261
16872W        W35726   3.450   9.627  10.820 -0.1978 -0.3823 -0.1143
16873W        W35727   1.568  17.289   2.410 -0.2371 -0.0114  0.0929
16874W        W35728  10.761   3.265   0.611 -0.0140 -0.0511  0.1571
16875W        W35729   2.618  18.481   9.813  0.2587 -0.0334  0.0266
16876W        W35730  12.809  12.705  14.912  0.0156 -0.3714 -0.1796
16877W        W35731   0.453   4.106   2.392 -0.2132  0.0004 -0.3037
16878W        W35732   8.078  14.898  13.520 -0.2865  0.1284 -0.0762
16879W        W35733  12.456  16.390   1.800  0.1105 -0.1306  0.0011
16880W        W35734  16.995  12.202   2.950  0.0303  0.0506 -0.0413
16881W        W35735  10.403  10.940  12.888  0.0805  0.0114 -0.2538
16882W        W35736  16.537  13.592   1.711 -0.0253  0.0140 -0.2405
16883W        W35737  12.375  11.888   0.083 -0.2540 -0.2512 -0.0203
16884W        W35738   2.615   3.660  14.469 -0.1359  0.2138 -0.0359
16885W        W35739  12.190  16.982  11.381  0.3397  0.1409 -0.0667
16886W        W35740  17.727  15.454  14.798  0.4275 -0.0098 -0.1781
16887W        W35741  12.838  15.142   1.562 -0.0378 -0.2604 -0.2103
16888W        W35742  11.681   8.964  14.897 -0.1134  0.1249  0.0830
16889W        W35743  10.178  15.764   3.452  0.2828  0.3017 -0.1473
16890W        W35744   0.108   0.132  14.411 -0.1270  0.1790 -0.1307
16891W        W35745  18.529  15.780   0.902  0.1018  0.2313 -0.1153
16892W        W35746   5.073  13.252  12.307 -0.1035 -0.1361  0.0081
16893W        W35747  17.139   7.123  14.880 -0.0107 -0.2490 -0.2771
16894W        W35748   4.410  13.361   3.290  0.1396 -0.4525 -0.0184
16895W        W35749  16.805   7.802   0.426  0.3292  0.2307 -0.1692
16896W        W35750  12.686  15.541   1.273  0.1745  0.0542  0.1080
16897W        W35751   2.083  15.885   3.611  0.0090 -0.0457 -0.1934
16898W        W35752   7.251  12.051   3.480 -0.0746 -0.1467  0.1532
16899W        W35753   0.918  16.931  12.369 -0.0075  0.0299 -0.0400
16900W        W35754  11.342  15.316   4.807  0.1131  0.1410  0.1584
16901W        W35755  18.644   0.360  14.107 -0.2423  0.2651 -0.1985
16902W        W35756  13.072   2.396  12.587 -0.0753  0.0745  0.2482
16903W        W35757  10.545   9.181  14.210  0.0066 -0.0613 -0.2850
16904W        W35758  10.937   7.031   4.588  0.1841  0.2872 -0.0965
16905W        W35759  16.937  16.959   0.490  0.0264 -0.2297  0.1268
16906W        W35760   2.294  15.548  11.274  0.1682  0.2444  0.1840
16907W        W35761   1.525   1.858  11.644  0.2416  0.0454 -0.2966
16908W        W35762  13.064  11.466   9.586  0.1936 -0.1285  0.2414
16909W        W35763   6.572   1.128  12.468  0.0006 -0.1401 -0.0722
16910W        W35764  12.188  17.974   2.616 -0.0479  0.1845  0.1022
16911W        W35765   6.806   6.605   3.899 -0.1271  0.2521 -0.4808
16912W        W35766  15.458   7.559  14.089  0.2510  0.0907  0.0537
16913W        W35767   7.596   3.737   1.239 -0.0427  0.0125  0.0942
16914W        W35768  17.043   9.221   3.389 -0.0485  0.0311 -0.2016
16915W        W35769  11.426   9.400   2.771  0.0627  0.0588 -0.1577
16916W        W35770   9.602  14.234   4.333  0.0852 -0.0384  0.0037
16917W        W35771  16.917  10.680   0.404 -0.2374 -0.0677 -0.1460
16918W        W35772   2.027  11.403  12.123  0.3266 -0.0103 -0.2138
16919W        W35773  12.380   2.891   1.738 -0.1349 -0.3566  0.1384
16920W        W35774  13.549   2.495   4.395 -0.1289 -0.2883 -0.1860
16921W        W35775  10.815  15.225  11.109  0.3332  0.3439 -0.0569
16922W        W35776  11.322   2.990  12.800  0.0901  0.2517 -0.0137
16923W        W35777   0.909  12.181   4.842 -0.1833  0.3508  0.1702
16924W        W35778   2.877  10.154  12.884  0.0919 -0.2185  0.1481
16925W        W35779   7.895  13.678  14.943 -0.1916  0.5596  0.1566
16926W        W35780  10.210   8.545   0.160  0.2204 -0.0427 -0.1381
16927W        W35781   5.701  13.907  11.928  0.0691 -0.1831 -0.1394
16928W        W35782  11.893   7.103   1.701  0.0647  0.0190  0.0451
16929W        W35783   0.244   5.547   5.412  0.0308 -0.0601  0.1642
16930W        W35784   8.659   0.931   4.174 -0.1061 -0.0732 -0.0539
16931W        W35785  14.349  10.417  14.392 -0.3704  0.2576 -0.0844
16932W        W35786   1.779  15.396   1.386  0.3531  0.0911 -0.2603
16933W        W35787  13.383   1.251   4.106  0.1308 -0.1878 -0.0311
16934W        W35788  12.804   2.342   3.286  0.2022  0.0352 -0.4354
16935W        W35789   9.905  12.422  14.386  0.0528  0.0234  0.0618
16936W        W35790   9.742   4.291  11.630 -0.2841 -0.1479 -0.3081
16937W        W35791  13.509  10.228  11.043 -0.2317  0.0904  0.0474
16938W        W35792   0.422  12.746   0.713  0.0172  0.1000  0.0892
16939W        W35793   3.596  16.044   1.167  0.0560 -0.1431  0.1951
16940W        W35794  10.347   5.360   1.525 -0.0875 -0.0646  0.1318
16941W        W35795  12.578   9.510   0.460  0.0828  0.0788  0.3602
16942W        W35796   8.504  12.229   3.784 -0.3040  0.3503 -0.0689
16943W        W35797   1.632  14.675   5.183  0.0877 -0.0027  0.1478
16944W        W35798   5.677  10.615  14.657  0.2651  0.0780  0.2244
16945W        W35799   2.030  15.122   1.945 -0.0332 -0.0166  0.0003
16946W        W35800   4.128   5.902   0.200 -0.3564  0.2735 -0.1186
16947W        W35801   5.737  11.678   1.021  0.2971  0.0807 -0.1849
16948W        W35802  11.284  17.244  14.834  0.0301 -0.1769  0.3835
16949W        W35803   3.449   9.074   0.922  0.1048  0.3753  0.0808
16950W        W35804  11.353   0.166  14.026  0.3570 -0.2478 -0.0911
16951W        W35805  17.057  11.497   4.087 -0.2119 -0.2432  0.0846
16952W        W35806   4.888   1.640   3.856  0.0184  0.1125 -0.1724
16953W        W35807  15.603   7.470  13.250  0.3330  0.0203 -0.1422
16954W        W35808   6.784  16.710   3.086 -0.2708 -0.0408 -0.3941
16955W        W35809   5.068   9.895  11.862  0.2027  0.0164 -0.0137
16956W        W35810   1.329   5.147   0.209  0.1285  0.2915 -0.1085
16957W        W35811   1.304  15.929  10.739  0.0185 -0.3739 -0.4598
16958W        W35812  10.211  14.282   4.836 -0.2786  0.0200  0.0304
16959W        W35813  17.758  18.385  11.243 -0.0698 -0.0933  0.2370
16960W        W35814   0.867   7.515  14.449 -0.1327  0.0169  0.1731
16961W        W35815  11.764  15.544  11.544 -0.0353  0.0104  0.0225
16962W        W35816  18.438  17.654   0.731 -0.1181  0.2684  0.3501
16963W        W35817   6.583   7.214  15.051 -0.2138  0.1603 -0.0993
16964W        W35818   1.594   2.414   0.331 -0.1180  0.0041  0.0755
16965W        W35819   4.864   6.704   9.817  0.1655  0.1926 -0.0502
16966W        W35820  13.394   2.726   2.296  0.4791 -0.0107 -0.2441
16967W        W35821   8.599   9.517  12.928  0.0355  0.0277 -0.1192
16968W        W35822   1.796   5.776  14.497 -0.1647  0.0733 -0.1238
16969W        W35823  16.172   8.181   0.977 -0.0260 -0.0640 -0.0293
16970W        W35824  10.748   5.825  12.565  0.1836 -0.0480  0.2290
16971W        W35825  14.497   1.775  14.690 -0.2429 -0.0580  0.0989
16972W        W35826   0.163   6.688   2.403  0.0902  0.0256  0.0810
16973W        W35827   3.555  13.911   3.437  0.2525  0.0187 -0.2545
16974W        W35828  14.453   2.966   3.752  0.0878 -0.2877 -0.0147
16975W        W35829   5.518  16.623  13.326 -0.2224 -0.0833 -0.0888
16976W        W35830   8.534  16.023  13.713  0.0146  0.0704 -0.3896
16977W        W35831   7.710   3.180  12.977  0.1826 -0.2602  0.0963
16978W        W35832  14.424   1.555  11.272 -0.0444  0.0706  0.1074
16979W        W35833   6.765   9.323   0.469  0.1004  0.0111 -0.0482
16980W        W35834   5.950  18.429   5.554  0.5923 -0.1389 -0.0076
16981W        W35835  15.773  10.745  12.413  0.4079  0.1447  0.0149
16982W        W35836  14.112  18.201  13.370  0.1293 -0.2617 -0.0714
16983W        W35837  18.727   0.254  11.232 -0.1077  0.1262  0.0070
16984W        W35838  13.188  13.877  11.881  0.2446  0.0470 -0.0152
16985W        W35839  10.644  14.805   1.723  0.1063  0.3050 -0.0863
16986W        W35840   5.541   5.377   1.125 -0.2803  0.1765  0.0675
16987W        W35841   1.090   9.519   0.938 -0.0167  0.1846 -0.0036
16988W        W35842   3.719  15.769   4.861 -0.1222  0.3440  0.2662
16989W        W35843   5.666   7.671  11.346  0.1241 -0.0826  0.1086
16990W        W35844   5.144   4.753   4.935 -0.0431 -0.0899 -0.1105
16991W        W35845   5.912   9.429   1.571  0.2797 -0.0380 -0.1552
16992W        W35846  11.112   0.382  14.426  0.3191 -0.2182 -0.0321
16993W        W35847  13.708   2.963  11.579 -0.2759  0.0864  0.3371
16994W        W35848  18.743  11.777   4.163 -0.1767  0.2514 -0.0438
16995W        W35849  13.662  10.828  11.718 -0.1423 -0.1179  0.4161
16996W        W35850   7.412   7.504   1.038 -0.0880 -0.0643 -0.0991
16997W        W35851   7.071   8.930  14.306 -0.0120  0.1294 -0.0490
16998W        W35852   2.845  11.828   3.212 -0.0030 -0.3639  0.3057
16999W        W35853  12.002   4.142   4.609  0.0809  0.1483 -0.2579
17000W        W35854   7.874  16.408  12.948 -0.3341  0.0907 -0.0944
17001W        W35855   7.658   1.599  11.192  0.1702 -0.0609  0.1887
17002W        W35856  11.794  11.842  10.867  0.1095  0.0975  0.1241
17003W        W35857   0.873   4.207   3.651 -0.1528  0.2195  0.1268
17004W        W35858  11.609   1.127   2.973 -0.0109  0.1921 -0.2801
17005W        W35859  11.674  18.020   0.996 -0.0433 -0.1227  0.3867
17006W        W35860   5.322   7.054  13.685 -0.0528  0.0123  0.1481
17007W        W35861  17.730   3.402  10.531 -0.0353  0.1924  0.1466
17008W        W35862  14.247   7.301   2.654  0.0957  0.0403 -0.0273
17009W        W35863  17.673   9.323  13.322  0.0416 -0.1359 -0.1829
17010W        W35864  17.897   8.353   0.023 -0.1230  0.0366  0.1240
17011W        W35865   1.737  10.847  14.985  0.2627 -0.1945 -0.0135
17012W        W35866  11.841   9.903  14.179  0.0763  0.2435 -0.2289
17013W        W35867   0.167   7.286  11.124  0.1097  0.0861 -0.0104
17014W        W35868   3.539   3.466  12.530  0.0107 -0.1496  0.1939
17015W        W35869  14.137  13.739  11.836  0.4355 -0.0757  0.2284
17016W        W35870  11.927  15.226  10.890 -0.1647  0.0501 -0.0250
17017W        W35871  17.388   9.295   2.131  0.2674  0.2894 -0.4252
17018W        W35872   5.545   9.083  12.922  0.0176  0.3223 -0.1135
17019W        W35873   1.574   7.994   3.668  0.0494  0.0348 -0.3781
17020W        W35874   4.755   1.376   2.462 -0.1614 -0.1294 -0.1948
17021W        W35875  17.795   9.132   2.360  0.2582 -0.1505  0.2256
17022W        W35876   0.591  11.465   1.069  0.2029  0.1997 -0.0262
17023W        W35877  18.021   6.249   0.547 -0.1634 -0.2636 -0.0539
17024W        W35878   1.033   3.339   5.283 -0.1305 -0.1080 -0.0246
17025W        W35879   4.074   4.349   0.274  0.0172  0.0762 -0.1197
17026W        W35880   9.087  14.494  13.873 -0.0790  0.0329  0.1859
17027W        W35881   2.499   4.050   4.875 -0.1196  0.1719  0.0308
17028W        W35882   7.117  17.361  10.879 -0.0723  0.2009 -0.3427
17029W        W35883   9.152  16.641   1.393  0.0055 -0.1829 -0.1127
17030W        W35884  18.625  11.827  11.102  0.1296  0.1950  0.2015
17031W        W35885  16.857  14.897  13.512  0.0906  0.2274 -0.0959
17032W        W35886   1.534  17.431  14.797  0.0440  0.1627  0.2491
17033W        W35887   8.015  17.027   2.029 -0.1231 -0.1291  0.0991
17034W        W35888   5.745   0.873  11.028 -0.0144 -0.1596  0.0178
17035W        W35889  17.998  14.627  11.369 -0.4304 -0.0764 -0.3505
17036W        W35890  11.190  14.638   1.740 -0.0969  0.0602  0.0422
17037W        W35891   1.995   7.992   2.512 -0.1163 -0.0080 -0.1071
17038W        W35892   2.486   7.316   1.724  0.1660 -0.3494 -0.0502
17039W        W35893  11.819  18.582  14.833 -0.2902  0.1034  0.2348
17040W        W35894   0.617   2.236   4.231 -0.1322  0.3891  0.1352
17041W        W35895  11.813   1.115   2.525 -0.1693  0.0033 -0.2528
17042W        W35896  15.043   5.334  14.251  0.0439  0.0758  0.0785
17043W        W35897   7.703  14.092  11.143 -0.0034  0.0777  0.1831
17044W        W35898  11.877   9.513   2.981  0.0211  0.1476 -0.1940
17045W        W35899  15.800  10.416   2.094  0.2129 -0.3601 -0.1889
17046W        W35900  16.653  15.864   3.189 -0.3255 -0.1515 -0.0989
17047W        W35901   4.802  13.895  11.681 -0.0198  0.1472  0.2138
17048W        W35902  17.501   9.899   0.456 -0.0928  0.0808  0.0637
17049W        W35903   3.824   1.854   3.985 -0.1086  0.1301  0.2324
17050W        W35904   7.953   6.694   5.080 -0.1233  0.1759 -0.0034
17051W        W35905  14.773   7.233   0.239  0.0790 -0.3222  0.1506
17052W        W35906  13.656   0.544  11.909  0.0385  0.2139 -0.4606
17053W        W35907  18.548   2.064  12.943 -0.1730  0.1256 -0.0678
17054W        W35908  12.644  12.501  12.290 -0.0030 -0.0316  0.3010
17055W        W35909   9.715  18.585   2.843 -0.1317 -0.2736  0.0207
17056W        W35910   4.806   7.212   4.351  0.0654  0.0975 -0.1078
17057W        W35911   8.346  11.751   3.493  0.0446  0.3043 -0.1446
17058W        W35912  15.181   9.065   4.647  0.1266  0.0798 -0.0578
17059W        W35913  10.445   6.871  11.387  0.1439 -0.4064  0.0078
17060W        W35914  13.308  16.770   0.561  0.1049  0.3304 -0.1171
17061W        W35915   0.598  14.008   0.973  0.0539 -0.0300  0.0918
17062W        W35916   1.040  14.480  14.572  0.2532  0.2846  0.2198
17063W        W35917   5.762   8.434   2.440  0.0990  0.2373  0.0082
17064W        W35918  14.133  16.719   2.203  0.0635  0.0355  0.0844
17065W        W35919  18.666   9.764   2.656  0.2416  0.2440 -0.0255
17066W        W35920   5.384   9.820  14.626 -0.1308 -0.0598 -0.2570
17067W        W35921   8.970  15.289  14.714  0.1128  0.1974 -0.2278
17068W        W35922  16.644   8.027  13.198 -0.1122  0.0021 -0.1429
17069W        W35923   3.695  12.270   0.173  0.1738  0.0288 -0.0877
17070W        W35924   1.358  16.445   2.468  0.3739  0.2016  0.0329
17071W        W35925   9.314   2.717  13.150 -0.1634  0.0587  0.0354
17072W        W35926   4.838   3.709  10.509  0.4556 -0.3461 -0.1781
17073W        W35927   0.568  15.518  12.243  0.0304 -0.0665  0.3874
17074W        W35928   8.573  11.914   2.590  0.0786  0.0211  0.0859
17075W        W35929   7.067  13.705  11.607 -0.0153  0.3107  0.1409
17076W        W35930  16.604   5.376  10.018  0.0122 -0.0003  0.0008
17077W        W35931   1.735  10.613  12.680  0.0003 -0.0273 -0.0310
17078W        W35932  15.952  14.881   4.463 -0.0835 -0.0746 -0.2188
17079W        W35933   0.639  10.916  13.212 -0.2864 -0.2362 -0.3057
17080W        W35934  14.382   2.671   2.594 -0.0005  0.0088 -0.0341
17081W        W35935   2.118   7.495   0.995  0.2783  0.0394 -0.0219
17082W        W35936  12.695   9.030  13.294 -0.2482 -0.2314  0.0398
17083W        W35937   2.989   2.450   0.535  0.1770  0.1873 -0.1973
17084W        W35938  13.379  16.571   4.266  0.1448  0.0475 -0.1234
17085W        W35939   2.736   6.604   3.705 -0.0278 -0.0736  0.2159
17086W        W35940   1.282  12.392   9.884 -0.0726  0.2351  0.0602
17087W        W35941  13.470   7.409   2.804 -0.1804 -0.1155 -0.0055
17088W        W35942  16.714  14.052   0.744  0.0171  0.0739 -0.1236
17089W        W35943   5.141   7.943   2.111  0.0077 -0.4377  0.2234
17090W        W35944   2.894   3.641  11.798 -0.1613 -0.0195 -0.2512
17091W        W35945   6.001  14.398   2.757  0.2876 -0.2877 -0.0144
17092W        W35946   8.870  17.035   1.417  0.0324 -0.2227 -0.1753
17093W        W35947   2.275   1.578   1.156  0.0834 -0.0156  0.0500
17094W        W35948   7.855   5.323   2.858  0.0384 -0.0324  0.0898
17095W        W35949   8.175   2.953   0.133  0.2842  0.5072 -0.0922
17096W        W35950   5.256  12.753   0.657 -0.3743  0.1875  0.0525
17097W        W35951   9.238  11.181  12.355  0.3404  0.2016  0.1217
17098W        W35952  17.279   6.107  11.122 -0.0881 -0.0215  0.0132
17099W        W35953   6.735   6.656  15.083  0.1114 -0.2234 -0.4248
17100W        W35954   6.282   7.331   0.346  0.2670  0.2042 -0.2176
17101W        W35955  14.173   3.630   2.955 -0.1906 -0.3653  0.1443
17102W        W35956  10.536   2.467  11.367  0.0923  0.1980  0.2018
17103W        W35957  18.534   0.636  11.666 -0.3497  0.1822 -0.1216
17104W        W35958  11.331  12.383   3.104 -0.0072  0.1337 -0.0875
17105W        W35959  13.794  14.729   2.179 -0.0408 -0.1086 -0.0504
17106W        W35960  15.104  15.949   3.624 -0.0779  0.1533  0.0263
17107W        W35961   9.277   5.943   4.391  0.0610 -0.0573 -0.0344
17108W        W35962  17.877   8.504  14.397 -0.2101 -0.1144 -0.0764
17109W        W35963   2.709  12.690  14.545 -0.1557  0.0976  0.2489
17110W        W35964   9.623   6.162  13.587 -0.3697  0.2318  0.0820
17111W        W35965  12.100  12.209  14.559  0.1810 -0.0132  0.0344
17112W        W35966   1.898   3.584   9.877 -0.1761 -0.1225  0.2181
17113W        W35967   7.414  11.620  13.686 -0.2528 -0.0096  0.1610
17114W        W35968  12.378   0.624  13.801  0.3136 -0.1087 -0.2947
17115W        W35969  10.668   5.049   2.079 -0.4839  0.3969  0.0619
17116W        W35970  15.635   6.323  12.623 -0.0741 -0.4563  0.1806
17117W        W35971  12.653   1.530   0.564 -0.3179 -0.0521 -0.0166
17118W        W35972   9.342   3.146   1.235  0.1095 -0.1436  0.2067
17119W        W35973   5.015   5.837  11.857 -0.0228 -0.2212  0.2195
17120W        W35974  11.226  17.996  11.115 -0.0536 -0.1043 -0.0875
17121W        W35975  14.736   6.578   4.855  0.2205 -0.5445  0.0401
17122W        W35976  14.838   6.375  13.046 -0.2092  0.0354  0.2092
17123W        W35977  13.748  14.504   4.323  0.2777 -0.0629 -0.1781
17124W        W35978  16.768   4.836  13.183 -0.0484  0.2499 -0.0667
17125W        W35979  17.343   6.261  13.747 -0.0297 -0.1628  0.1964
17126W        W35980  13.234   3.743  12.601  0.1728  0.0597  0.1985
17127W        W35981   8.671   9.113   1.844 -0.3005  0.2476  0.0893
17128W        W35982   8.286   8.947   2.221  0.0279  0.0388 -0.0017
17129W        W35983   0.358  18.641   4.400 -0.3114 -0.0113  0.2493
17130W        W35984  10.507  14.245  11.861 -0.0735 -0.0585 -0.2490
17131W        W35985   6.133   0.188   3.740  0.1209 -0.1438  0.2585
17132W        W35986  12.042   7.249   2.276 -0.4470  0.1480  0.1368
17133W        W35987   0.656  12.372  10.825 -0.1638 -0.2233 -0.1152
17134W        W35988  11.480   0.044  14.552  0.2349  0.1571 -0.2896
17135W        W35989   0.747   4.645  11.958 -0.2989  0.2408 -0.0501
17136W        W35990   8.852   1.085  11.592  0.1279 -0.2951 -0.0975
17137W        W35991  10.888  15.230   3.744 -0.3538  0.5236  0.0542
17138W        W35992   8.629  18.246   1.596  0.0538  0.1850 -0.1038
17139W        W35993  16.304  14.093   1.676  0.2232  0.3058  0.0624
17140W        W35994  15.787   4.904   3.209 -0.0700  0.1553  0.4622
17141W        W35995  14.978   2.437  12.329 -0.2415  0.0022 -0.0863
17142W        W35996   3.662   9.626   4.278  0.3158  0.0351 -0.1062
17143W        W35997  10.266   7.562   1.131  0.2520  0.0072  0.0408
17144W        W35998  17.467  17.743  14.045 -0.1845  0.1811 -0.1089
17145W        W35999  17.065   1.156  14.540  0.1606  0.1301  0.1412
17146W        W36000  18.641  10.843  12.633 -0.3221  0.3120  0.0824
17147W        W36001  17.653   0.883  14.608  0.1302 -0.0125 -0.0192
17148W        W36002  11.687  15.999   5.057 -0.2347  0.0032 -0.4777
17149W        W36003   0.614  14.237  10.779 -0.3333  0.1530  0.0482
17150W        W36004   1.219   3.791   3.515 -0.3110 -0.1260 -0.0621
17151W        W36005   3.623  15.423   3.703 -0.1459 -0.0972 -0.0948
17152W        W36006  17.710   2.893  14.351  0.0572  0.0196 -0.2283
17153W        W36007  13.513   8.366  10.782  0.0842 -0.0055 -0.1226
17154W        W36008  13.333   3.065   3.754  0.1227 -0.2719  0.4505
17155W        W36009  12.989  10.160   1.090 -0.2866 -0.0309 -0.4421
17156W        W36010  15.600   3.408  10.582  0.0393  0.1828 -0.2957
17157W        W36011   9.420  17.716  11.706  0.1363 -0.0249 -0.3053
17158W        W36012  15.213   8.550   1.302  0.4261  0.2428 -0.0066
17159W        W36013   1.346   9.936  14.659 -0.0540  0.0752 -0.3038
17160W        W36014  16.399   2.961   3.251  0.0814  0.0219 -0.1299
17161W        W36015  12.461  13.781  14.824  0.2119 -0.0265 -0.0660
17162W        W36016   2.852   1.379   2.404 -0.2284 -0.3958  0.0276
17163W        W36017   3.667   3.429  11.252  0.0031 -0.2248  0.0898
17164W        W36018   9.519  11.764  11.121  0.0879 -0.0462 -0.0176
17165W        W36019  17.102  17.740   2.361 -0.0318  0.1326  0.3249
17166W        W36020  18.432   2.287   2.558  0.0730 -0.1548  0.1575
17167W        W36021   6.062   3.213   4.611 -0.1697 -0.1091  0.0438
17168W        W36022   3.433   9.288  11.174 -0.4304  0.0460  0.0200
17169W        W36023   3.604   8.826  13.014  0.2781 -0.3283 -0.0426
17170W        W36024  11.180  10.617   3.404 -0.1805 -0.3410  0.1145
17171W        W36025   2.205  18.828   0.636  0.1593 -0.2528  0.0093
17172W        W36026  11.323   1.110   2.515  0.0261  0.0489 -0.0593
17173W        W36027  14.103   2.747   9.715  0.1242  0.1564  0.1834
17174W        W36028   0.995  15.618  11.967 -0.1140 -0.0206  0.0360
17175W        W36029  12.698   0.297   1.319  0.0686  0.3903 -0.0513
17176W        W36030  13.171  17.574  13.173  0.0050  0.1591  0.1187
17177W        W36031   1.300  15.202   0.837  0.0770  0.0379  0.0126
17178W        W36032  10.848   2.329  14.712  0.0772 -0.0792 -0.0789
17179W        W36033  18.495  13.548   4.255  0.1282 -0.2048  0.1228
17180W        W36034  17.811  10.926   0.067 -0.1137  0.0287  0.0280
17181W        W36035   5.320   5.651  11.423  0.0723 -0.2002  0.0489
17182W        W36036   3.062  16.710  10.587 -0.0268 -0.2133  0.2268
17183W        W36037   4.384  14.290  13.782  0.0427 -0.0477  0.1182
17184W        W36038   5.622   8.158   2.887 -0.0300 -0.0506 -0.2820
17185W        W36039  10.758  15.610  14.739 -0.4174 -0.0461 -0.1014
17186W        W36040   8.428   4.529  11.319 -0.5887 -0.2701 -0.1866
17187W        W36041   5.282  16.860   3.648 -0.3012  0.0355  0.2773
17188W        W36042   3.211   5.873  12.135 -0.2269 -0.3720 -0.0706
17189W        W36043  13.384   8.826  10.954 -0.2654  0.0414  0.0030
17190W        W36044   5.045  12.156  11.287 -0.1844 -0.1398  0.0525
17191W        W36045  17.598  10.233   4.107 -0.3521 -0.0284  0.1285
17192W        W36046   4.321  15.697  14.488  0.0899 -0.3230 -0.4091
17193W        W36047  15.058   8.970  11.030 -0.1756  0.2143 -0.0967
17194W        W36048   1.889  10.886  11.826 -0.2283  0.0819 -0.0513
17195W        W36049   2.084   7.431  13.754 -0.2192  0.0946 -0.1577
17196W        W36050   5.551   8.246   1.990  0.2246 -0.1516 -0.0523
17197W        W36051  16.152   2.757   3.643  0.1207 -0.1657  0.2303
17198W        W36052  10.723  16.391   2.197 -0.2540  0.0392  0.0394
17199W        W36053   4.585   6.559  11.728  0.1085 -0.3565  0.1445
17200W        W36054   4.091   1.795  14.497  0.1678  0.0108 -0.1842
17201W        W36055   0.471  15.172  12.578  0.1606 -0.1890 -0.0435
17202W        W36056   2.368   4.023  14.208 -0.0179  0.3144  0.1176
17203W        W36057   7.861   9.900  14.296  0.0195 -0.0546  0.3521
17204W        W36058  17.165   9.014   2.941  0.1513  0.0890  0.1797
17205W        W36059  17.233   3.143   3.570  0.2650  0.0749 -0.1756
17206W        W36060  17.896  11.330  13.931 -0.2473  0.1518  0.0243
17207W        W36061  10.577   0.940   0.012  0.1874 -0.3260 -0.1401
17208W        W36062   9.472  10.527  14.159 -0.4510 -0.0645 -0.3278
17209W        W36063   1.782   0.335  13.725  0.1879  0.0698  0.0380
17210W        W36064   6.910   4.759  13.385 -0.0570  0.0508 -0.1145
17211W        W36065   1.163  12.383  10.913  0.2108 -0.1537 -0.0758
17212W        W36066  18.595  10.285   4.213  0.1258  0.3254  0.1004
17213W        W36067  13.101  11.816  12.595 -0.0852 -0.1411 -0.1034
17214W        W36068   3.441  11.917   1.028 -0.1414  0.0006  0.1114
17215W        W36069  12.462  16.829  10.966 -0.3281  0.1648  0.2828
17216W        W36070  10.470   3.106  13.399  0.0660 -0.0458 -0.0167
17217W        W36071  12.945  11.636   5.245  0.0779 -0.1353  0.1192
17218W        W36072   2.982  15.050  11.058 -0.0609  0.0020  0.0302
17219W        W36073  11.168  17.269   0.245 -0.1620  0.1147 -0.0904
17220W        W36074  14.924   3.888  13.091 -0.0304  0.0973 -0.1215
17221W        W36075  18.227  10.867  10.001 -0.0717  0.1745 -0.0385
17222W        W36076  18.674  13.267  10.863  0.1511  0.1184 -0.3985
17223W        W36077  13.600   4.432  14.371 -0.1721 -0.1093  0.2192
17224W        W36078   3.660  18.850   1.904 -0.0782  0.1934 -0.0091
17225W        W36079   3.702   9.323   2.685 -0.2287 -0.4484 -0.0029
17226W        W36080   8.275   6.760  13.710  0.0137 -0.1738 -0.1545
17227W        W36081   2.972   3.015   4.849  0.1773 -0.0071 -0.1252
17228W        W36082  14.150   7.366   0.992  0.1045 -0.0295 -0.1635
17229W        W36083   2.888   9.382  11.983  0.1057 -0.1272  0.0108
17230W        W36084  14.336  14.127  10.776  0.3278  0.1089  0.1383
17231W        W36085  16.443   9.297   3.952 -0.1034 -0.1578 -0.0777
17232W        W36086   2.543  15.372  10.915  0.2031 -0.0043 -0.1331
17233W        W36087   4.942   5.719  13.198 -0.2356  0.1117  0.0258
17234W        W36088   9.537   1.248  11.792 -0.0221 -0.1347  0.1235
17235W        W36089   3.389  11.973   0.493  0.1135  0.2955 -0.1411
17236W        W36090  16.205  16.199  11.381 -0.0198 -0.0477 -0.2718
17237W        W36091   1.630  10.369  11.496 -0.2366  0.0044 -0.1203
17238W        W36092  11.183   5.303   1.595 -0.2627  0.1023 -0.0271
17239W        W36093   8.362   6.268   4.142  0.0405  0.1655  0.2473
17240W        W36094   0.758  18.605   1.909 -0.0871 -0.3798 -0.1463
17241W        W36095  12.720  11.568  12.386  0.0899 -0.1537  0.0619
17242W        W36096  15.732  17.181  12.047 -0.3028 -0.0842  0.2109
17243W        W36097   2.335  14.686  11.553 -0.0802  0.1460 -0.0821
17244W        W36098   0.212   8.571   2.380  0.1993 -0.0725  0.0462
17245W        W36099  16.868   0.313  13.092  0.0687 -0.2101 -0.1118
17246W        W36100   8.368   9.617  14.805 -0.1846 -0.1698  0.4518
17247W        W36101  18.317  12.976  12.866 -0.1748  0.0872  0.0192
17248W        W36102  16.056  12.948   2.215  0.0211 -0.0774  0.2159
17249W        W36103  17.386  15.548  13.839 -0.2412  0.0161 -0.2244
17250W        W36104  16.046  12.251   1.325 -0.0301 -0.1174 -0.0402
17251W        W36105  13.223  18.680  11.270  0.3174  0.1286  0.0631
17252W        W36106  13.175   1.120   2.358  0.0409 -0.3648  0.0849
17253W        W36107  13.100  12.958  11.371 -0.1968 -0.1507 -0.2734
17254W        W36108  15.965  11.821   3.904 -0.3330 -0.0820 -0.0840
17255W        W36109   0.190   0.463   0.479  0.3637  0.1448 -0.2450
17256W        W36110   3.108   2.968   4.275 -0.0878 -0.0000 -0.2479
17257W        W36111  18.572   3.400  14.567 -0.1867 -0.1246 -0.3194
17258W        W36112  18.692  15.086  12.316  0.0380 -0.2692 -0.4346
17259W        W36113   2.272   2.031   1.355  0.1023 -0.0708  0.0935
17260W        W36114  13.705  13.649   0.799 -0.1392 -0.0182  0.1414
17261W        W36115  14.712  10.693   1.298 -0.0922 -0.1771 -0.3116
17262W        W36116  16.733   7.439  14.137  0.0777 -0.0684 -0.1525
17263W        W36117   9.797  13.302  13.234 -0.1471  0.0425  0.0484
17264W        W36118  18.318  15.974   0.155  0.1160  0.0066 -0.0954
17265W        W36119   3.231  16.248  13.802  0.0882 -0.1277 -0.0194
17266W        W36120  17.253  12.361   2.062  0.1071  0.1667  0.3710
17267W        W36121  13.077  10.509   1.542  0.1286 -0.2047 -0.2235
17268W        W36122  11.354   2.140  14.792 -0.0946 -0.1626  0.0791
17269W        W36123  14.750  15.267   1.827 -0.0335  0.0297  0.1743
17270W        W36124   5.382   4.236  14.216 -0.1903  0.0087 -0.0820
17271W        W36125   0.439  18.404  14.475 -0.0792 -0.1730  0.3434
17272W        W36126   7.517  11.567  13.023 -0.0114 -0.0294 -0.2090
17273W        W36127  18.188  10.479  10.384 -0.1871 -0.1984 -0.0551
17274W        W36128   3.714  18.635   0.017 -0.0995 -0.0224 -0.1428
17275W        W36129   2.071  17.877   2.251  0.0071 -0.0775  0.1300
17276W        W36130  13.061  17.628  10.791  0.1847 -0.0621  0.0689
17277W        W36131   8.422  15.250  13.314 -0.0970  0.0922 -0.3167
17278W        W36132   0.999  17.026  12.828  0.0354  0.1893  0.1682
17279W        W36133   3.112  12.978  14.918 -0.0398 -0.4097 -0.5512
17280W        W36134   2.285  14.194   0.100 -0.0021 -0.1327  0.2216
17281W        W36135   1.008  17.525   2.046 -0.0607 -0.1238 -0.1562
17282W        W36136   8.148  14.900   3.624  0.1722 -0.0794 -0.0064
17283W        W36137   1.860  11.105  11.013 -0.0650 -0.3687 -0.2962
17284W        W36138   2.402   4.570  14.004 -0.1121 -0.0136 -0.0276
17285W        W36139   2.907  17.027  14.352  0.1940 -0.0189  0.2487
17286W        W36140  18.232   3.926   3.064  0.1239 -0.1581 -0.1911
17287W        W36141  12.032  14.396  11.352 -0.2504 -0.0138 -0.0278
17288W        W36142  18.778  16.823   0.212  0.3154 -0.2228 -0.2843
17289W        W36143  10.044  12.505   5.413 -0.0802 -0.2513  0.0299
17290W        W36144  17.744   8.236   1.114  0.1055 -0.0184  0.0317
17291W        W36145   8.366   0.388   2.895  0.1740  0.0663  0.0031
17292W        W36146   0.739  17.474  12.668  0.0298  0.0686 -0.0568
17293W        W36147   9.315   2.516   2.057  0.1554  0.2502  0.0309
17294W        W36148   4.368   0.971  15.072  0.0720 -0.2787 -0.0710
17295W        W36149   7.132   5.356   3.335  0.0846 -0.0905 -0.1345
17296W        W36150  11.133   9.085  14.071  0.0003 -0.1198  0.2061
17297W        W36151   7.312   9.202  13.198 -0.0611  0.1046  0.2141
17298W        W36152   5.125  16.046  14.845 -0.1899  0.3740 -0.1750
17299W        W36153  11.629   3.224  11.079  0.1823 -0.1217 -0.0524
17300W        W36154   2.940   4.300   2.105 -0.0248 -0.1945  0.2749
17301W        W36155  15.929  17.536  11.740  0.1955 -0.1704  0.1138
17302W        W36156   6.515  12.081   9.688  0.0021  0.0507 -0.2871
17303W        W36157   6.492   8.537   3.483  0.2850 -0.1166 -0.0888
17304W        W36158   2.213   4.706  15.040  0.1429  0.0754 -0.0484
17305W        W36159  14.087   3.562   4.347  0.3276 -0.1461 -0.0727
17306W        W36160  14.542   4.390   2.712 -0.1974  0.1514 -0.0543
17307W        W36161   9.235   1.080   4.691  0.0569  0.0632 -0.0745
17308W        W36162  16.766   0.541   1.477  0.1166 -0.1639  0.2062
17309W        W36163   2.549  14.875  14.764 -0.2884 -0.3074  0.4031
17310W        W36164   4.524   2.146   1.441  0.0041 -0.1427 -0.1435
17311W        W36165   9.624  12.244  12.574 -0.3108 -0.0377  0.0631
17312W        W36166  16.947   9.142   0.458 -0.1941  0.0478  0.0484
17313W        W36167   2.225  11.830   2.667  0.1689  0.0968 -0.0247
17314W        W36168  18.127  11.469   0.639  0.0629 -0.1937  0.1497
17315W        W36169  15.722   9.236   0.508 -0.1050  0.0245 -0.4686
17316W        W36170  15.783   1.792   3.343 -0.1607  0.1015  0.0242
17317W        W36171   4.857   0.552   4.190 -0.1982 -0.2563 -0.0130
17318W        W36172  17.774  12.060   1.220  0.2371  0.0130  0.0124
17319W        W36173  12.938   6.900   2.467 -0.0401 -0.1852  0.4763
17320W        W36174  16.750  18.780  14.669 -0.0028 -0.0286 -0.0872
17321W        W36175  14.555  16.980   2.333 -0.2288  0.1187  0.0097
17322W        W36176   3.992  11.463   0.203 -0.0768 -0.0796  0.3441
17323W        W36177  15.206   3.483   1.134 -0.1626 -0.1799 -0.0168
17324W        W36178  18.244   1.860  12.465 -0.1663  0.0387  0.1749
17325W        W36179   3.416  10.484  12.169  0.2147 -0.1686 -0.0089
17326W        W36180   9.963  16.605  11.709  0.1627  0.1921 -0.2434
17327W        W36181   5.671   1.144  14.998 -0.1926  0.3593  0.1970
17328W        W36182  10.313  13.029   0.887 -0.1040  0.0695  0.2010
17329W        W36183   1.672   4.163   2.123 -0.0660 -0.0525 -0.1111
17330W        W36184  16.012  18.652  10.897  0.1089 -0.0525 -0.0231
17331W        W36185   3.939  11.209  14.467  0.1002 -0.1680 -0.0648
17332W        W36186  13.761   3.253   3.565  0.1284  0.2707  0.2425
17333W        W36187  15.152  10.793  13.560 -0.0199  0.0451 -0.3713
17334W        W36188  13.287  13.277   9.312 -0.0719 -0.1834  0.0778
17335W        W36189  12.289   9.266   3.846 -0.1914  0.0017 -0.3732
17336W        W36190   5.842   2.271  12.626 -0.4919  0.1095 -0.0539
17337W        W36191  12.693   9.171  11.483 -0.2109 -0.2309 -0.0180
17338W        W36192   8.896  15.742  14.539  0.1687  0.0607 -0.0313
17339W        W36193   7.325   3.934   3.422 -0.1093  0.1866 -0.1999
17340W        W36194  11.540  12.009  14.473  0.2362  0.1665  0.1083
17341W        W36195   8.844   6.935   2.910 -0.0340  0.0408 -0.2432
17342W        W36196  18.750   5.362   1.530 -0.3404 -0.2934 -0.2619
17343W        W36197  12.711  12.258   0.248 -0.1579 -0.0235 -0.1293
17344W        W36198  14.535  13.537   0.568  0.0186  0.3333 -0.0650
17345W        W36199  10.541   6.205   5.379 -0.2840 -0.0862  0.1265
17346W        W36200  16.312   1.518   1.102  0.0341  0.2656 -0.3957
17347W        W36201   7.881   8.431  12.067 -0.2722  0.0544 -0.0874
17348W        W36202   9.650  15.227   0.319  0.3353  0.1774 -0.0768
17349W        W36203   2.548  14.578   0.009 -0.2866  0.1480 -0.0013
17350W        W36204  11.643   1.493  13.967 -0.1645  0.0060 -0.0081
17351W        W36205   3.398   2.114   4.109 -0.1842  0.0872  0.0699
17352W        W36206  13.278   3.254   4.654 -0.0877 -0.1693 -0.0072
17353W        W36207   6.865  14.324   2.995  0.1240  0.0269 -0.1161
17354W        W36208   7.463  13.246  13.310  0.0483  0.2323 -0.0522
17355W        W36209  17.576  11.516   3.089  0.2173 -0.4705 -0.1507
17356W        W36210  18.558   3.025  15.018  0.0234  0.1405  0.0659
17357W        W36211   1.607   6.677   2.806 -0.0583 -0.0252 -0.1865
17358W        W36212   1.501  16.550  12.116  0.1629  0.2302 -0.1570
17359W        W36213   9.607  15.675   1.043 -0.0216  0.0532 -0.1563
17360W        W36214   1.630  16.557   3.504  0.1578  0.0665  0.3216
17361W        W36215  13.598  11.791   2.794 -0.1500  0.1097 -0.2598
17362W        W36216   3.083   1.583  11.755 -0.2895  0.0252  0.0638
17363W        W36217  16.829   5.544   0.489 -0.0763 -0.1579  0.1250
17364W        W36218   2.427   9.479  12.659 -0.2099 -0.2867  0.1333
17365W        W36219  16.464   4.226  10.950  0.0246  0.3047 -0.1444
17366W        W36220  13.956   1.416  11.290  0.1347  0.0658  0.1881
17367W        W36221  17.054  16.317  13.951  0.1902 -0.0253 -0.0980
17368W        W36222   0.464   0.593   2.084  0.2357 -0.0126  0.0501
17369W        W36223   5.422   4.011  11.248 -0.3328 -0.1102 -0.1163
17370W        W36224  13.325  15.705  10.163  0.0889 -0.4197  0.2113
17371W        W36225  13.577   7.423   1.816 -0.4139 -0.2109  0.1319
17372W        W36226   9.388  17.197  11.669  0.1908 -0.0138  0.0268
17373W        W36227   6.978  13.555  14.808  0.2481  0.1241 -0.0724
17374W        W36228   9.894   7.537  12.809  0.1972  0.2146 -0.0316
17375W        W36229  18.099  10.377  14.819  0.2246  0.0936 -0.0688
17376W        W36230  10.637  10.644  13.874 -0.0425 -0.0200 -0.1844
17377W        W36231  14.812  14.991  13.153  0.0496 -0.1754  0.2192
17378W        W36232   6.620  13.767  10.584  0.3262 -0.0910 -0.0423
17379W        W36233   9.278   2.825   2.592 -0.0358 -0.2896  0.2178
17380W        W36234  18.413   6.431   3.168 -0.1883  0.1395  0.1576
17381W        W36235   7.132   2.032  14.186 -0.0864 -0.1120  0.3721
17382W        W36236   1.605  13.127   4.342 -0.0671 -0.2451 -0.3420
17383W        W36237  13.780   8.571   1.280 -0.2273  0.2095  0.0239
17384W        W36238  11.300   7.621   2.829 -0.2730  0.1303 -0.1930
17385W        W36239  13.484  17.017   3.667 -0.1278  0.1563  0.0063
17386W        W36240  14.878   9.156  14.705  0.0312  0.0567 -0.0120
17387W        W36241   3.178  14.214   3.000  0.0700 -0.1711 -0.2435
17388W        W36242   4.409   3.003   1.576 -0.2048  0.1498 -0.1497
17389W        W36243  11.711  11.387   0.036  0.1141 -0.0824  0.2424
17390W        W36244   9.644  11.308  13.317 -0.0518  0.0701  0.1752
17391W        W36245   7.477  17.823   3.522  0.0953  0.2851  0.0507
17392W        W36246   2.304   7.071   2.976  0.2260 -0.1538  0.1649
17393W        W36247   6.333   3.037   2.016 -0.1189  0.0655 -0.0097
17394W        W36248  13.005  14.308  13.340  0.2167  0.0837 -0.0271
17395W        W36249   8.499  17.091   2.754 -0.0116 -0.3978  0.1835
17396W        W36250   1.022  17.680  14.791 -0.0952  0.1667 -0.0183
17397W        W36251   7.774   7.857  14.301  0.1643  0.0924 -0.1118
17398W        W36252  17.771   8.652   2.304  0.0237 -0.0813 -0.3500
17399W        W36253   5.956   8.795  12.018  0.2159 -0.1546  0.0742
17400W        W36254  18.155  16.709  12.935  0.1788 -0.3081  0.1012
17401W        W36255   6.218  15.490   1.442 -0.1274  0.0569 -0.0350
17402W        W36256  12.265  12.279   2.663  0.1229  0.0608 -0.0901
17403W        W36257   7.600  12.958  14.721 -0.1493  0.0957 -0.3331
17404W        W36258   7.482  14.248   0.204 -0.1196 -0.2133 -0.0434
17405W        W36259   3.278   6.341   0.511  0.2131 -0.0755 -0.3082
17406W        W36260   7.470   7.837  11.130 -0.1067 -0.0645  0.3042
17407W        W36261   0.182   8.781  14.110  0.0621 -0.4142 -0.0605
17408W        W36262   9.366  17.634  13.087  0.0323  0.2478 -0.2486
17409W        W36263  15.992  16.246   1.029  0.2737 -0.0393 -0.2626
17410W        W36264   7.052  16.592   1.965  0.0245  0.0267  0.1632
17411W        W36265   7.610  10.933  14.941  0.0770 -0.1106  0.1060
17412W        W36266   2.979  11.800   0.275 -0.1258 -0.0502 -0.1838
17413W        W36267   2.344   0.737  11.908  0.1816  0.1307 -0.2861
17414W        W36268  12.964  14.890   1.938 -0.0200 -0.0425  0.2660
17415W        W36269   9.365  13.972   0.576  0.1812 -0.2611  0.0212
17416W        W36270  18.206   4.866  12.051 -0.1557  0.2629 -0.1009
17417W        W36271   5.850  17.720  14.123 -0.1886 -0.4803 -0.0620
17418W        W36272  12.851   4.452  12.149 -0.1862 -0.0651  0.0407
17419W        W36273   6.663  10.561  13.300  0.0692  0.1647  0.1441
17420W        W36274   1.434  16.200  12.503 -0.3136  0.0938  0.2431
17421W        W36275   6.714   3.584  11.194 -0.1906  0.3359 -0.1625
17422W        W36276   2.779   5.948  11.084 -0.2992 -0.0193  0.0404
17423W        W36277   2.053   9.378  14.642  0.0992 -0.0830  0.0807
17424W        W36278   2.209   2.389  13.349 -0.1612  0.1016 -0.1704
17425W        W36279  13.248   4.032   1.848 -0.2859 -0.1931  0.1007
17426W        W36280  11.400  15.583  14.856 -0.0860  0.1809 -0.0326
17427W        W36281   9.960   1.786   3.747 -0.0774  0.4523 -0.0813
17428W        W36282   0.071  14.299  11.708 -0.2682  0.2670 -0.3547
17429W        W36283  18.654   2.107   0.897  0.0217 -0.1733 -0.1806
17430W        W36284   7.790   4.397   0.691  0.1881  0.1020  0.0281
17431W        W36285  18.116  15.836  13.389  0.4177  0.0990  0.2666
17432W        W36286   9.627  17.529  13.636 -0.4745 -0.0210 -0.1766
17433W        W36287  11.062   1.771   0.897  0.0444 -0.1369  0.0828
17434W        W36288   1.403   3.507  11.888 -0.0970  0.5322 -0.2388
17435W        W36289  17.660  15.945  12.156  0.2547  0.1930  0.1853
17436W        W36290   6.970   1.134   1.494 -0.0197  0.2774 -0.1372
17437W        W36291   5.843   1.646   3.210 -0.0940  0.2998  0.3385
17438W        W36292  18.498   4.607   0.134  0.2565 -0.1073  0.0067
17439W        W36293  15.144   3.644  11.815  0.2997 -0.2000  0.0205
17440W        W36294   1.058   5.895  14.527 -0.1347  0.1678  0.0162
17441W        W36295   1.925  16.225   0.313 -0.1450 -0.2087 -0.1228
17442W        W36296   3.338   8.362  14.480 -0.1302  0.2648 -0.2429
17443W        W36297   6.473  10.737  11.143 -0.2366  0.3054  0.1847
17444W        W36298   5.028  11.607  12.473 -0.2136  0.0155  0.4433
17445W        W36299   2.710   6.988  13.520  0.0113 -0.3884  0.0167
17446W        W36300  15.505  18.769  14.115  0.0282  0.0070  0.0649
17447W        W36301  13.752   4.254   2.264 -0.0836 -0.2425  0.0612
17448W        W36302   0.444  15.682   0.705  0.1211  0.1962  0.1021
17449W        W36303   9.444   4.859   3.290  0.1254  0.2439 -0.0689
17450W        W36304  10.410  14.490  12.749  0.0141 -0.1236 -0.0669
17451W        W36305  13.588   5.095  11.287  0.1557 -0.1026 -0.2305
17452W        W36306  15.943  10.399  13.523  0.0160 -0.4000  0.2976
17453W        W36307  11.707   2.554  11.975  0.5012 -0.1234 -0.2978
17454W        W36308   1.729  17.772   1.242 -0.1915  0.1795 -0.0564
17455W        W36309  13.603   2.096  14.778  0.1999 -0.4194 -0.0604
17456W        W36310   8.629   1.154   0.474  0.0532  0.2084 -0.1048
17457W        W36311   1.242  11.225  12.609  0.3415  0.3316  0.1288
17458W        W36312   2.503   6.035  12.704 -0.2508 -0.0834 -0.3777
17459W        W36313  18.465  15.724  14.336  0.2627 -0.4485  0.1758
17460W        W36314   9.274  16.054   3.590 -0.3523 -0.1698 -0.2449
17461W        W36315  10.252  12.971   3.272  0.1151 -0.0160  0.1832
17462W        W36316  13.818   5.801  12.959 -0.2303 -0.1085 -0.5276
17463W        W36317  17.994   3.652  11.244 -0.1110  0.0169 -0.0531
17464W        W36318  14.092   5.306   4.233 -0.0220 -0.1018  0.0274
17465W        W36319  16.786   5.486  11.078  0.2424  0.2273 -0.2733
17466W        W36320  13.216   0.013   3.312  0.0662 -0.3856  0.0301
17467W        W36321  17.101   9.897   1.807  0.0931 -0.1282  0.3157
17468W        W36322   7.978  14.779   4.195 -0.0012 -0.2526  0.4585
17469W        W36323   6.744   0.029   0.177  0.0555  0.0733  0.0843
17470W        W36324   1.099  10.485   3.072  0.0965  0.1894 -0.0077
17471W        W36325  17.011  16.320   4.398 -0.2287 -0.1333 -0.2970
17472W        W36326  11.842  16.899   1.526  0.0593 -0.1124 -0.2773
17473W        W36327   4.777   8.807   2.106 -0.0227  0.1603 -0.1428
17474W        W36328  17.126   8.223  10.974  0.2533 -0.0261 -0.0512
17475W        W36329   8.758   1.914   4.321  0.2294 -0.0003 -0.1564
17476W        W36330  14.906   3.460  13.463 -0.0646  0.0749 -0.1337
17477W        W36331   4.413  15.447  12.832 -0.2602 -0.0016  0.0424
17478W        W36332  13.269  11.227   2.119 -0.0824 -0.3541 -0.1671
17479W        W36333   9.714  13.614  10.997 -0.1932  0.1472  0.1390
17480W        W36334  13.626  12.825   1.528  0.1441 -0.1640  0.0963
17481W        W36335  10.349   5.077   2.504  0.2442 -0.2903 -0.2803
17482W        W36336   5.986   3.725  14.109  0.1072  0.3049 -0.0072
17483W        W36337  13.253  14.803   3.188  0.0435  0.0037 -0.2786
17484W        W36338   9.555  15.012   3.678  0.0014 -0.3370 -0.0892
17485W        W36339   1.308  11.259   0.729  0.0764  0.1108 -0.3906
17486W        W36340   6.488   5.421   3.098 -0.0962  0.1233  0.0463
17487W        W36341   8.638   2.428  14.680  0.0218  0.1820  0.0966
17488W        W36342   1.486   8.289   0.131  0.2767 -0.0961  0.0733
17489W        W36343  14.627  10.774   3.107  0.0791  0.1404  0.1065
17490W        W36344   9.427  17.516  14.184 -0.1572 -0.0165  0.2529
17491W        W36345   8.245  17.940  14.463  0.1223  0.0280  0.1087
17492W        W36346   4.920   6.225   3.091  0.1715 -0.2378 -0.1666
17493W        W36347  13.334  14.966   1.600  0.2351 -0.1143 -0.3305
17494W        W36348  18.338   1.174   0.132  0.0461 -0.0541 -0.1628
17495W        W36349   4.929   5.351  11.589  0.1783 -0.1386  0.3352
17496W        W36350  14.159   5.977  12.214 -0.2661  0.0338 -0.2484
17497W        W36351   1.035  10.367  14.919 -0.0096 -0.3835 -0.2326
17498W        W36352   8.851   2.647   2.283 -0.0101  0.3619  0.2089
17499W        W36353  16.177  17.356  13.541 -0.0959 -0.1970 -0.0663
17500W        W36354  10.275  16.470   0.399 -0.2220 -0.1270  0.0874
17501W        W36355   0.015  14.568  13.548 -0.1182  0.1446 -0.1840
17502W        W36356  16.137   7.280   4.644 -0.3781  0.1606  0.1914
17503W        W36357  18.679  18.818   0.871  0.0315 -0.0962  0.2215
17504W        W36358   0.747  12.625  11.582  0.1929  0.1668 -0.2760
17505W        W36359   9.230   0.603  14.930 -0.0916  0.0488 -0.3223
17506W        W36360   4.406   0.930   4.745  0.2127  0.1086  0.0516
17507W        W36361   7.992  18.563  13.584  0.0904 -0.1390 -0.1042
17508W        W36362   7.835   7.559  11.952  0.0186 -0.3012 -0.0620
17509W        W36363  16.476  16.517  11.630 -0.0769 -0.1146  0.0194
17510W        W36364  18.730  12.604   1.952  0.0533  0.0238 -0.0581
17511W        W36365   5.878   0.385   1.964  0.0902  0.0141  0.0708
17512W        W36366   3.994   4.915   1.555  0.0988 -0.1412  0.4152
17513W        W36367  16.655   8.207   1.241  0.1544 -0.1608 -0.0878
17514W        W36368   9.227   7.671  10.912  0.0455 -0.0547  0.1537
17515W        W36369   1.594   1.141   4.053  0.3025  0.3818  0.1009
17516W        W36370   5.860   5.750  11.110 -0.4367  0.1243 -0.1022
17517W        W36371  13.223  15.318   0.473  0.1929  0.5021  0.3375
17518W        W36372   0.504  17.134   2.235 -0.0061  0.2288 -0.2989
17519W        W36373   9.492   5.875  12.197  0.0021 -0.1983 -0.2614
17520W        W36374   8.012   3.773  11.450  0.1859  0.3245 -0.1985
17521W        W36375   6.718   0.949   0.535  0.0419  0.4932 -0.2009
17522W        W36376   6.044   7.168   2.802 -0.2331 -0.0972 -0.1896
17523W        W36377  10.860   5.900   3.960  0.2305  0.0688 -0.2123
17524W        W36378   8.693  15.608   4.081  0.1375  0.0251  0.3282
17525W        W36379   7.214  10.321  13.718  0.2200 -0.0036  0.1559
17526W        W36380   8.713   8.056  13.411  0.0441 -0.0381 -0.2694
17527W        W36381   1.038  17.368  11.654 -0.1289  0.3675 -0.0180
17528W        W36382   1.871   0.053  12.676 -0.1304 -0.0189 -0.0477
17529W        W36383   8.674   3.512  11.466  0.1885  0.3030 -0.0834
17530W        W36384   5.998  17.285   3.014  0.0612  0.3109 -0.1547
17531W        W36385   3.947  14.766   0.120 -0.0124 -0.3020 -0.0741
17532W        W36386   6.444  15.668   0.105  0.1979 -0.0367 -0.0587
17533W        W36387   5.767  13.017   3.557  0.0294  0.2327  0.3155
17534W        W36388  15.104   6.438  10.697  0.0254  0.0146  0.1897
17535W        W36389  15.467  14.984   4.341 -0.0647  0.1992  0.0490
17536W        W36390  14.930   8.583  15.070  0.1861 -0.0456 -0.0342
17537W        W36391   7.148  12.611  14.934 -0.0836 -0.0046  0.2401
17538W        W36392   6.921  14.178   2.478  0.2172 -0.0831 -0.0152
17539W        W36393   9.286  15.729  13.840  0.1923  0.0083  0.0490
17540W        W36394  10.622   4.179   1.541 -0.2236 -0.1721 -0.0954
17541W        W36395   3.568  11.963  13.906 -0.0587  0.1842  0.1241
17542W        W36396  14.751  11.551  11.186  0.3974  0.0200 -0.3741
17543W        W36397   5.714  17.376   1.428 -0.0469 -0.1969  0.0819
17544W        W36398  17.438   8.634   1.366 -0.3247 -0.1007  0.0479
17545W        W36399   3.588   3.685   1.620  0.0212  0.2353  0.1129
17546W        W36400  18.663  17.848   3.772  0.1848  0.2904 -0.2197
17547W        W36401   8.106  14.611  14.694  0.1168 -0.0136  0.1136
17548W        W36402  11.337  12.755  10.619  0.1376  0.0347  0.0360
17549W        W36403  13.412   1.408  13.681 -0.2264 -0.2054  0.2783
17550W        W36404  11.214   9.297   1.318  0.0917 -0.0161  0.1458
17551W        W36405   8.534   3.445   3.588  0.2025 -0.1410 -0.0235
17552W        W36406  16.250  16.643   3.035  0.3607  0.2258  0.2383
17553W        W36407   0.196   1.300  10.974 -0.3092 -0.3527 -0.0230
17554W        W36408   9.922   5.673   3.625 -0.1272 -0.0211 -0.2573
17555W        W36409  15.253   0.445   3.256 -0.1464  0.7000  0.1872
17556W        W36410  15.855  18.622  13.587 -0.2155 -0.1442  0.1424
17557W        W36411   3.708  17.526   2.324  0.3087  0.0259 -0.0656
17558W        W36412  15.244  13.017  14.208  0.0029 -0.5377 -0.1710
17559W        W36413  11.852   4.950   1.336 -0.0577 -0.1685  0.2080
17560W        W36414   3.406   2.037   2.881  0.2178  0.2921  0.2006
17561W        W36415   1.888  12.581  12.642  0.0481 -0.5426 -0.1604
17562W        W36416  11.982  11.336  14.370 -0.1592 -0.3015 -0.0343
17563W        W36417   8.331   9.936   0.868 -0.1851 -0.3099 -0.0021
17564W        W36418  18.302   4.650  13.910  0.1117 -0.5139 -0.0873
17565W        W36419   6.314   1.788   3.112  0.1148  0.0293  0.3132
17566W        W36420   3.206  17.092   3.266 -0.1295 -0.0432 -0.1195
17567W        W36421  11.434  16.203   1.783  0.1596 -0.1623 -0.0634
17568W        W36422  11.801  10.188   3.952 -0.3052  0.1223 -0.0652
17569W        W36423   1.531  13.925   2.416 -0.3024  0.1629 -0.2061
17570W        W36424   5.972   5.593  13.078 -0.4686 -0.1604 -0.0727
17571W        W36425  10.758   6.451   2.541  0.1620 -0.1747  0.2173
17572W        W36426   3.247  11.682  14.955 -0.2469  0.0755 -0.1173
17573W        W36427  18.501   9.255   2.518  0.1574 -0.0757 -0.1822
17574W        W36428   3.838   4.666   1.088 -0.0276  0.1708  0.0965
17575W        W36429   5.252   7.707   0.272 -0.2878 -0.2114  0.2743
17576W        W36430   0.889   4.302   3.187 -0.2040  0.3551 -0.0817
17577W        W36431   6.971   2.429  13.098  0.0755  0.3266 -0.0597
17578W        W36432   3.206  17.031  13.488 -0.2419 -0.1537 -0.0402
17579W        W36433  12.490  14.762   5.333 -0.1162  0.2772 -0.0233
17580W        W36434   2.542  16.658   1.304  0.1100  0.1714  0.1851
17581W        W36435  13.730  16.358  13.520 -0.1250 -0.0799 -0.0557
17582W        W36436   2.863   8.339  14.719 -0.1675  0.1410 -0.2813
17583W        W36437   3.586  12.062   5.090  0.1841  0.0829  0.2030
17584W        W36438   1.885   9.024  14.983  0.2809 -0.0001 -0.1744
17585W        W36439  14.909  10.430   0.946 -0.0626 -0.1577 -0.2364
17586W        W36440   2.587  11.908   9.529 -0.2259 -0.1216  0.0306
17587W        W36441  16.481   8.959  12.650  0.0249  0.0773  0.0024
17588W        W36442   2.016   4.368   5.699  0.3399 -0.3093  0.0487
17589W        W36443   5.955   3.818   0.365  0.1033  0.0237  0.1550
17590W        W36444   7.068   5.342   3.919  0.1417 -0.0711 -0.0795
17591W        W36445   1.318   4.118   2.937  0.0104 -0.4204  0.1365
17592W        W36446   8.747   6.480  11.912 -0.1822  0.1474  0.4443
17593W        W36447   6.566  14.886  13.975 -0.0030 -0.0211 -0.2033
17594W        W36448   7.055   3.267   0.582 -0.1388 -0.2666  0.1130
17595W        W36449  16.418   7.046  14.223 -0.2876  0.1632 -0.0890
17596W        W36450  13.562   1.102  11.052 -0.3165  0.2329 -0.2410
17597W        W36451   5.565  15.630  15.114  0.5510  0.3036 -0.3102
17598W        W36452   4.583  17.483   0.408  0.0758  0.3038 -0.0086
17599W        W36453  11.813   3.221   4.539  0.2222 -0.1028  0.1139
17600W        W36454   0.131   8.877  11.719 -0.0709 -0.1693 -0.1403
17601W        W36455  15.002  16.016  10.868 -0.1369  0.0514  0.1897
17602W        W36456  16.801   7.647   2.717  0.2290  0.1909  0.1181
17603W        W36457   9.677   7.540  10.791 -0.2018  0.0352 -0.0279
17604W        W36458  11.750  16.304   0.483 -0.0264 -0.2994 -0.4015
17605W        W36459   4.814  15.678  11.442  0.0421 -0.1158  0.2076
17606W        W36460   3.004  14.550  11.020 -0.0382 -0.2005 -0.3483
17607W        W36461  14.327  12.729   1.582 -0.1683  0.3005  0.2412
17608W        W36462   7.238  17.645   1.125 -0.2154  0.0283 -0.3921
17609W        W36463   9.121   0.900   3.310 -0.2223  0.5391  0.2783
17610W        W36464  16.973  14.625   1.924 -0.1644  0.2487  0.4399
17611W        W36465   3.752  13.403  13.594  0.0677 -0.2918  0.1135
17612W        W36466  14.624  18.385  13.257 -0.2018  0.3992 -0.0619
17613W        W36467  15.858   0.264   1.557 -0.0470  0.0087  0.0284
17614W        W36468   4.030  12.717   3.478 -0.2333 -0.0066  0.1749
17615W        W36469  12.169   9.445   4.339  0.1918  0.0045  0.1524
17616W        W36470  17.972  12.440  14.064 -0.1043  0.0536  0.0223
17617W        W36471   2.006   7.964   3.332  0.0352  0.0320 -0.1006
17618W        W36472   8.936  13.053  14.477 -0.0044  0.2611 -0.0989
17619W        W36473  11.280   0.656   1.234 -0.1983  0.0880 -0.2821
17620W        W36474   9.264   6.833  11.308 -0.1445 -0.1769 -0.0696
17621W        W36475   8.164   5.659  14.605  0.2157  0.1899  0.2532
17622W        W36476   9.027  17.876   0.946  0.2750 -0.1088 -0.0614
17623W        W36477   6.926  17.628  12.243  0.0122 -0.3588  0.0781
17624W        W36478  10.793  11.221   2.867 -0.0581 -0.1396 -0.0992
17625W        W36479  10.483  18.092   1.844 -0.0765 -0.0085 -0.1300
17626W        W36480  12.983  10.210   0.482  0.0491 -0.0105  0.1525
17627W        W36481  16.243   3.402  14.803 -0.1857 -0.0845 -0.2819
17628W        W36482  16.032  12.864  13.020  0.3838  0.0579  0.2865
17629W        W36483  15.259  14.717   0.283 -0.0818  0.0450  0.2797
17630W        W36484  13.032  14.393   3.506  0.3464 -0.1339  0.0754
17631W        W36485   2.959   4.043   4.603 -0.1807  0.1484  0.0561
17632W        W36486  16.127   9.601  14.570  0.0921  0.1103 -0.1317
17633W        W36487   8.736  18.756  14.423 -0.0237 -0.3630 -0.1176
17634W        W36488  17.987   3.206  10.948 -0.0655 -0.3011  0.0909
17635W        W36489  12.569   5.117  12.763  0.0557 -0.0130  0.2339
17636W        W36490   2.796  10.330   0.452  0.2075  0.0199 -0.0204
17637W        W36491  18.426   9.524  14.389  0.0501  0.0616 -0.2647
17638W        W36492  16.070   0.238  15.095 -0.1198 -0.0785  0.0638
17639W        W36493   9.749  13.375   3.867 -0.0363 -0.0593  0.0682
17640W        W36494   7.433  18.147  11.654 -0.0089 -0.0240  0.1032
17641W        W36495   9.372  17.161   2.431 -0.0383  0.0743  0.0784
17642W        W36496  11.756   2.628  12.891 -0.0263 -0.0992 -0.1546
17643W        W36497   8.929  16.146   3.269  0.1002  0.2556 -0.1295
17644W        W36498   0.808   8.941  12.494  0.0212 -0.2597  0.4178
17645W        W36499   1.049   7.441  10.093  0.0905 -0.1243 -0.1928
17646W        W36500  12.306   8.209  13.358  0.2159  0.1319 -0.4266
17647W        W36501  18.021  17.210  12.161  0.1915  0.3590 -0.2618
17648W        W36502  12.080  11.001  11.330 -0.0984  0.2112 -0.0624
17649W        W36503   6.681  10.643   4.101  0.1751 -0.0910 -0.0961
17650W        W36504  17.004  15.767   3.669  0.1720  0.2845  0.2306
17651W        W36505   3.488   4.612  12.944 -0.0678  0.3956  0.1367
17652W        W36506  18.361  15.121   2.949  0.0182  0.1476 -0.1844
17653W        W36507   0.756   5.612  14.774  0.0359  0.1746 -0.1048
17654W        W36508   6.737  15.776   3.548 -0.2060  0.0967  0.0845
17655W        W36509  12.916   5.131   2.898 -0.1634 -0.1756 -0.1384
17656W        W36510  11.868  12.738   3.882  0.0317 -0.0574  0.0090
17657W        W36511   8.690  10.993   0.817  0.1630 -0.1329  0.3281
17658W        W36512   4.819  15.288   2.903  0.3518 -0.0592 -0.0181
17659W        W36513  10.249  10.019  11.578 -0.1289  0.2582  0.1952
17660W        W36514   9.937  14.226  11.641  0.1575  0.0611 -0.0726
17661W        W36515   8.476   6.212  14.575 -0.0388  0.1389 -0.1063
17662W        W36516   0.544  16.786   3.945 -0.0251 -0.0320  0.1824
17663W        W36517   9.271   3.615   4.226 -0.1873 -0.1560 -0.1302
17664W        W36518  17.852   2.291  11.676 -0.1363 -0.1441 -0.1887
17665W        W36519   3.530  13.422   3.354 -0.0888  0.3661  0.1376
17666W        W36520  16.310   3.804  12.635 -0.0578 -0.0293  0.1051
17667W        W36521   1.357   2.967   2.718  0.2159 -0.1600 -0.1509
17668W        W36522  11.652   0.375  12.949  0.2430  0.3659  0.0693
17669W        W36523   0.512  17.571   2.097 -0.0064 -0.0671 -0.2179
17670W        W36524   0.685   5.995  15.121 -0.1823  0.0987  0.3144
17671W        W36525  14.325   6.754  12.791 -0.3601 -0.0500  0.1524
17672W        W36526  13.645   8.926   0.391  0.0800 -0.1491  0.3338
17673W        W36527  12.539  11.784  14.076 -0.4691 -0.3747  0.1587
17674W        W36528   3.215   1.510  13.390 -0.1022 -0.0920  0.1836
17675W        W36529  13.098   8.553  10.551 -0.2812 -0.0250 -0.2058
17676W        W36530   1.109   6.304  11.111  0.2393 -0.2355 -0.3553
17677W        W36531   6.851  16.562   1.161 -0.0155 -0.3033  0.1030
17678W        W36532   1.313  15.024  13.282 -0.1662  0.1518 -0.0753
17679W        W36533  16.289  12.383  13.196 -0.0127 -0.1952  0.0814
17680W        W36534  14.306  12.779  11.684 -0.3109  0.0160  0.0914
17681W        W36535   9.797   4.012   1.907 -0.3960  0.0123 -0.1566
17682W        W36536   0.464   5.479   0.084 -0.2393 -0.0150  0.2326
17683W        W36537   0.330   6.715  11.199  0.1477 -0.0073 -0.1706
17684W        W36538   0.592  13.920   2.622  0.0174  0.1517  0.0775
17685W        W36539  13.034  14.362  11.882  0.2692 -0.1890  0.0810
17686W        W36540  14.167  16.446  13.751  0.0487 -0.0045  0.1591
17687W        W36541   9.180  10.301   0.595 -0.0602 -0.4038  0.2882
17688W        W36542  15.836   6.542   1.364 -0.0210 -0.0169  0.1886
17689W        W36543   9.252   3.506   4.700 -0.1758 -0.1992  0.1060
17690W        W36544  14.360  16.114   1.704 -0.0539 -0.2011  0.1273
17691W        W36545   8.201  13.528  11.614 -0.4600  0.0961  0.0552
17692W        W36546  18.683   7.333  12.454 -0.0952 -0.2480  0.1518
17693W        W36547  16.081  11.702   1.097 -0.1531 -0.3552  0.2418
17694W        W36548  10.412   7.744   2.765  0.0794 -0.1724  0.1263
17695W        W36549   8.310   8.617  14.045 -0.0756  0.1227 -0.4052
17696W        W36550   5.291  12.576  14.892 -0.2058 -0.2433 -0.0844
17697W        W36551   6.278  18.756   0.374  0.5145 -0.0711  0.2601
17698W        W36552   7.084  17.915  10.475 -0.2188  0.1498 -0.1503
17699W        W36553  11.276   4.563   0.001 -0.1082 -0.1278 -0.0928
17700W        W36554  16.852  15.457   2.755  0.2726  0.1061 -0.3625
17701W        W36555  15.689   7.257  14.609  0.3529 -0.1528 -0.1557
17702W        W36556  18.452  11.682  15.118 -0.0886  0.2236 -0.0846
17703W        W36557  12.406   0.217  15.010 -0.3251 -0.0937 -0.0216
17704W        W36558   7.526   0.703  12.464 -0.0504  0.5392 -0.0916
17705W        W36559  18.479   4.934   1.918  0.3918 -0.0469  0.2304
17706W        W36560   8.990   5.267  12.293  0.0779 -0.0889 -0.2528
17707W        W36561  13.919   9.090  15.076  0.1403 -0.1864 -0.2377
17708W        W36562  13.656   9.754   3.500  0.1684  0.1773  0.2526
17709W        W36563   9.730  12.136  10.813  0.0679  0.3409  0.3991
17710W        W36564   5.485   4.574   0.653  0.0581  0.2159 -0.3741
17711W        W36565   0.212   0.080  13.489 -0.1461  0.0940  0.0671
17712W        W36566  10.760  13.824  10.731  0.0999  0.1437  0.2627
17713W        W36567   7.333   8.840   1.185  0.0708 -0.1558 -0.1494
17714W        W36568  16.813  16.375   1.844 -0.1686  0.0110  0.3993
17715W        W36569  13.378  16.239   2.927  0.2075 -0.3062  0.0199
17716W        W36570  17.204  18.325  10.614  0.2824  0.2245 -0.1944
17717W        W36571   0.628   3.008   3.891  0.1127 -0.2931  0.1628
17718W        W36572  11.934   9.530   2.343  0.0321  0.1903  0.0001
17719W        W36573  12.128   2.633   0.277  0.1344  0.1895 -0.0999
17720W        W36574   4.954  15.353  12.966  0.1286 -0.0657 -0.1538
17721W        W36575   1.980   6.144  13.422  0.1005 -0.0924  0.0698
17722W        W36576  13.861   3.971   3.960 -0.0113 -0.1408 -0.2808
17723W        W36577  11.043   4.559  10.392  0.3520 -0.0687  0.1011
17724W        W36578   0.917   3.580  11.226 -0.0327  0.0980 -0.0120
17725W        W36579  18.393   6.826  15.084  0.0984  0.1600  0.0016
17726W        W36580  11.201   4.345   4.082  0.2428  0.1509 -0.0934
17727W        W36581  18.811   9.755   5.225 -0.0586  0.0926 -0.2210
17728W        W36582   4.118  15.818  15.122  0.0432 -0.0233  0.1142
17729W        W36583  13.636   0.851   3.952  0.1213 -0.1766  0.3073
17730W        W36584  17.430  11.208  10.936  0.1800 -0.2498 -0.0854
17731W        W36585   5.444   1.535  14.847 -0.3566 -0.1607  0.2609
17732W        W36586   8.923  17.802   4.306  0.0227  0.1267 -0.0765
17733W        W36587  10.144  11.887   2.312  0.1401  0.1346 -0.2183
17734W        W36588   1.340   0.547  14.281 -0.1323  0.1817  0.0789
17735W        W36589   3.680  16.793  12.127  0.2657  0.0581 -0.3046
17736W        W36590  13.536  11.622   0.870  0.3376 -0.1695 -0.1679
17737W        W36591   9.973  17.606  11.907 -0.1120  0.0685  0.0010
17738W        W36592   6.176   8.240   4.397 -0.0255  0.5006  0.1582
17739W        W36593  13.606   0.121   3.551 -0.3066 -0.0082  0.0246
17740W        W36594  17.404   9.594  11.162  0.0579  0.1706  0.1259
17741W        W36595   1.440   0.099   1.314  0.3897 -0.1299 -0.1479
17742W        W36596   6.003  12.575   1.628  0.1732 -0.0142 -0.3469
17743W        W36597   4.508   1.771   4.138  0.0445  0.1747 -0.0720
17744W        W36598   0.682   7.901  11.493 -0.2688  0.1601  0.2722
17745W        W36599  11.323  17.683   0.469 -0.0308 -0.1417  0.1473
17746W        W36600   4.758   9.000   0.609 -0.3590 -0.2549 -0.4776
17747W        W36601  10.837  15.660  11.342 -0.0944  0.1005 -0.1908
17748W        W36602   9.008   0.596  13.820  0.0982  0.0300 -0.2453
17749W        W36603   3.393   1.916  13.582 -0.0170 -0.2273 -0.2572
17750W        W36604  14.828  11.203  12.299 -0.1290 -0.0686 -0.1578
17751W        W36605   5.138   4.746   1.485  0.0729  0.1955 -0.0183
17752W        W36606   0.691   4.492  12.914  0.0912 -0.2489 -0.0011
17753W        W36607  11.971   4.029   2.643 -0.3957 -0.2968  0.0787
17754W        W36608   8.413   6.978  12.390  0.3297  0.1601  0.0674
17755W        W36609   1.461  17.763   2.185 -0.2857  0.1474 -0.1131
17756W        W36610   6.157   9.462   2.554 -0.1604 -0.1809  0.0610
17757W        W36611   4.843  15.375  11.976 -0.0151  0.2138 -0.2632
17758W        W36612  16.423  15.002   3.200  0.2488  0.1962 -0.1271
17759W        W36613   6.109  10.904  11.692  0.1210 -0.0591  0.0072
17760W        W36614   6.015   6.995  12.936  0.1249  0.3833  0.1744
17761W        W36615   3.348  15.216  10.757 -0.1360  0.0575 -0.0104
17762W        W36616   7.316  16.624   1.475  0.2004  0.0081  0.0286
17763W        W36617   1.780   3.925  12.049  0.0539 -0.2397 -0.2224
17764W        W36618   2.593   3.576  13.974  0.0941  0.1341  0.1974
17765W        W36619  11.495  10.899  12.266  0.0278 -0.1580 -0.2115
17766W        W36620   3.083  17.048   2.792 -0.0617 -0.0908 -0.2391
17767W        W36621   5.310   7.006   9.948  0.1604 -0.0664 -0.0974
17768W        W36622   1.201   9.910   2.216  0.2193  0.1885  0.0247
17769W        W36623   1.973  16.938  12.854 -0.0837 -0.0613  0.0206
17770W        W36624   8.329   3.186   2.335 -0.1872  0.2720  0.1310
17771W        W36625   3.890  13.899  14.225  0.3447  0.0106 -0.1949
17772W        W36626   9.857   8.546  11.983  0.0827 -0.1112 -0.4761
17773W        W36627  16.055   4.351   0.459  0.1082  0.2173 -0.1426
17774W        W36628  15.972   4.447  13.726  0.0133  0.0640  0.3350
17775W        W36629   1.119   5.710   3.004  0.1737  0.0540  0.1510
17776W        W36630   4.061  10.969   1.891  0.3694  0.2169 -0.5706
17777W        W36631   6.834   9.589  13.750 -0.0017 -0.1362 -0.0116
17778W        W36632  15.463   6.191   2.824  0.1710  0.1424  0.0949
17779W        W36633   4.561  15.330   2.055 -0.1622 -0.0946 -0.1309
17780W        W36634   1.364  16.028  11.244 -0.0169 -0.2094  0.1836
17781W        W36635  18.309  10.528  10.846  0.1001 -0.1932  0.2878
17782W        W36636  12.446   9.203  14.277 -0.2100 -0.0913 -0.2505
17783W        W36637   2.435   2.900  10.883  0.1760  0.1869 -0.0787
17784W        W36638  15.116  16.692  12.364 -0.2406  0.2125  0.1185
17785W        W36639  10.762  10.320  12.256  0.3421  0.1738 -0.3774
17786W        W36640   0.101  15.816  12.047 -0.1819  0.0082  0.2213
17787W        W36641  17.250  14.088  12.914 -0.1674 -0.3817 -0.0102
17788W        W36642  12.581   0.925  11.938  0.1677  0.3179  0.2932
17789W        W36643  18.082  14.690  11.907 -0.0281 -0.0302  0.0377
17790W        W36644  14.138   3.379  11.626  0.1946 -0.2120 -0.2625
17791W        W36645   5.970   5.498   3.409  0.0734  0.0462 -0.1737
17792W        W36646   2.830   1.340  14.170  0.0546 -0.1035 -0.0021
17793W        W36647  10.798  16.970  13.867 -0.1602  0.0034  0.3456
17794W        W36648  12.359   0.376  11.292 -0.3137 -0.0229  0.1787
17795W        W36649   7.725  12.898   1.240 -0.0583 -0.0721  0.2090
17796W        W36650  12.214   4.140  11.322 -0.1310  0.2745  0.0283
17797W        W36651   3.532  18.628   0.818 -0.1346  0.2218  0.1669
17798W        W36652   3.880   7.185   3.334 -0.1012 -0.0300  0.2014
17799W        W36653  13.417   9.441  13.033  0.1181 -0.0742  0.1722
17800W        W36654  12.540   3.410  11.355 -0.5291  0.2084 -0.1833
17801W        W36655   9.143   7.242  11.644 -0.0234  0.2662  0.0552
17802W        W36656  13.857   5.391   0.612 -0.1013  0.1295 -0.3851
17803W        W36657  16.066   9.982  11.409  0.1543  0.2529 -0.2646
17804W        W36658  16.943   5.073   2.560  0.0150  0.1020  0.4598
17805W        W36659   3.090  14.813  14.784  0.0593  0.1834  0.2512
17806W        W36660   9.811  12.897   0.802  0.0841  0.0072  0.0932
17807W        W36661   6.707   5.814  14.459  0.1106  0.1052  0.0282
17808W        W36662  12.225  14.117   1.653 -0.1485 -0.0561  0.2406
17809W        W36663  14.167  15.002   4.858 -0.3557 -0.1478  0.0545
17810W        W36664   0.703   9.425   0.619 -0.0826 -0.0785 -0.2834
17811W        W36665  12.176   7.302   4.218  0.0144 -0.0622 -0.1235
17812W        W36666  18.767  13.597   3.388 -0.1129  0.0847  0.0415
17813W        W36667   7.062   4.987   2.265 -0.1283 -0.2663  0.1034
17814W        W36668  17.118   2.053  12.810  0.1768  0.0513 -0.0462
17815W        W36669   1.690  18.484  13.974  0.0565  0.1579 -0.1411
17816W        W36670  17.906   9.708  12.135 -0.0952 -0.0563  0.0020
17817W        W36671   0.297   3.945  13.132 -0.1266  0.0386 -0.1460
17818W        W36672  14.483  18.423  12.268 -0.0854  0.0724  0.0358
17819W        W36673   3.033   0.000   3.942  0.2267 -0.1411 -0.2047
17820W        W36674  12.376  10.138  11.397  0.0758 -0.0425 -0.0714
17821W        W36675  12.452   3.894   2.490  0.0647 -0.0838 -0.0368
17822W        W36676   3.754  12.585  13.894 -0.1694  0.0922  0.1726
17823W        W36677   4.514  16.018  11.249  0.0383  0.0037  0.0414
17824W        W36678   2.304  13.974  13.330 -0.2129 -0.1461 -0.1032
17825W        W36679   9.932  16.187   4.432 -0.2217  0.0425 -0.2425
17826W        W36680   6.716  11.035  13.896 -0.0012 -0.3396 -0.1607
17827W        W36681   9.059   5.796  11.433 -0.0646  0.1185 -0.2086
17828W        W36682  15.802   2.764   1.539  0.0059 -0.2125  0.1436
17829W        W36683   6.174   5.914   4.454 -0.2162 -0.0523 -0.0398
17830W        W36684  14.278   3.123  12.965 -0.2596  0.0189 -0.1821
17831W        W36685  12.728  11.380  13.697 -0.1757  0.0847  0.0802
17832W        W36686   4.273  14.136   3.680 -0.3785 -0.0728  0.0360
17833W        W36687  10.451   7.038  14.364 -0.0143 -0.2049 -0.0961
17834W        W36688   2.749   4.772   2.133 -0.1430 -0.1141  0.0796
17835W        W36689  18.737   9.803  10.848 -0.0713 -0.2237 -0.0679
17836W        W36690   8.664   7.645   4.380  0.0028  0.0957 -0.0196
17837W        W36691   9.430   3.096  13.906 -0.1631 -0.0445  0.2449
17838W        W36692  10.214  16.432   4.026 -0.0965 -0.2111 -0.1313
17839W        W36693  12.695  17.848   4.294  0.0132  0.0987  0.3622
17840W        W36694  16.998  12.639  14.065  0.2125  0.1898  0.0891
17841W        W36695  12.645   4.314   2.344 -0.2119  0.0157  0.1947
17842W        W36696   9.823  11.591  12.808  0.3031 -0.1518  0.0368
17843W        W36697  18.141   2.760  14.079 -0.1099  0.0427  0.1444
17844W        W36698  15.361   5.003   1.410  0.3324  0.0895  0.4357
17845W        W36699   9.479   8.669  11.678  0.0137  0.2035 -0.3315
17846W        W36700  17.135   2.638   4.351 -0.0289 -0.2100  0.2108
17847W        W36701   4.925   5.641  14.155 -0.1923 -0.0131 -0.0429
17848W        W36702  17.246  13.064  14.309 -0.4160 -0.2469  0.0382
17849W        W36703   3.965   3.749  13.329 -0.1310 -0.0374 -0.0271
17850W        W36704  17.569   7.491   0.591  0.1167 -0.1277  0.0807
17851W        W36705  17.139  11.398   2.808  0.2265  0.0359  0.2888
17852W        W36706   5.932  11.925   3.082 -0.0912  0.0247  0.0855
17853W        W36707  11.490   6.418   2.003  0.2659 -0.1353  0.0259
17854W        W36708   4.909  16.828  13.560  0.1882  0.2877 -0.0045
17855W        W36709   0.177  10.134   2.397  0.0038 -0.0145  0.0218
17856W        W36710  16.706   4.669   3.144  0.1165  0.0066  0.0070
17857W        W36711   9.609  15.918   1.975 -0.2757 -0.4656  0.0518
17858W        W36712   7.662  10.943   4.200 -0.1638  0.0744 -0.0982
17859W        W36713  17.720  12.744  11.986 -0.1778  0.1601  0.3735
17860W        W36714   8.281   9.566  14.240  0.0657 -0.2636 -0.0927
17861W        W36715   2.441  15.229   0.980 -0.1750  0.0772 -0.0312
17862W        W36716  16.416  14.472   2.715 -0.1920 -0.0442 -0.0236
17863W        W36717   5.511  11.495  14.756  0.1657 -0.0214 -0.0956
17864W        W36718   8.792  17.617   2.733 -0.3280 -0.0825 -0.1083
17865W        W36719   5.007   0.330  11.130  0.2342  0.0439 -0.1669
17866W        W36720   5.790  15.592   4.141  0.0744 -0.0092  0.0841
17867W        W36721   9.113   1.152   0.481  0.0412 -0.2367  0.2758
17868W        W36722   5.499   1.169  11.487 -0.0732 -0.0487  0.1918
17869W        W36723   0.454   8.673  10.808  0.1413 -0.3356  0.0942
17870W        W36724   5.812   7.517   2.269 -0.2239  0.3292 -0.0997
17871W        W36725   5.747   3.830   3.355  0.2805 -0.0671 -0.0735
17872W        W36726   2.335   8.367   2.393  0.3844  0.0592 -0.0157
17873W        W36727  15.635   4.620   4.387  0.0257 -0.0853 -0.0819
17874W        W36728  15.822   6.794  12.361 -0.0124 -0.0188 -0.0679
17875W        W36729   9.833  16.342   2.262 -0.2452 -0.2982  0.0198
17876W        W36730  17.149   6.968   1.373  0.3409 -0.3275 -0.0054
17877W        W36731   9.646  15.588   3.703 -0.0286  0.1893 -0.2099
17878W        W36732  18.220  12.403   3.636 -0.0802  0.1296  0.0165
17879W        W36733   8.578   7.746   1.486  0.1089 -0.2052 -0.1802
17880W        W36734   2.289  16.981   2.839 -0.1422 -0.0223 -0.2104
17881W        W36735  18.267   6.159  13.304  0.1619 -0.2777  0.4717
17882W        W36736   4.393  12.225   2.278  0.2923 -0.2225 -0.0409
17883W        W36737  17.036  17.586  13.900 -0.0271  0.4136 -0.2431
17884W        W36738  18.648   8.330  12.428 -0.1701  0.0091 -0.0799
17885W        W36739  14.878   2.992   0.575  0.2437  0.2100 -0.1640
17886W        W36740  11.752  15.638  13.239 -0.1604 -0.1708  0.0236
17887W        W36741   9.803  15.277   4.030  0.0289  0.1102  0.1181
17888W        W36742   3.761  16.562   1.850  0.0669 -0.2081  0.0667
17889W        W36743  11.401   4.257  12.677  0.1236  0.0174  0.0798
17890W        W36744   4.639  15.990  14.721  0.1107 -0.4641  0.3256
17891W        W36745  18.316  13.113  13.345  0.3529 -0.0230 -0.3697
17892W        W36746   2.432   5.560   4.150 -0.0927 -0.5032 -0.0591
17893W        W36747   0.658   4.244  11.036 -0.1085 -0.0510  0.2178
17894W        W36748  14.582   5.300   0.628 -0.1012 -0.0463 -0.3646
17895W        W36749   4.218  17.326   5.331  0.4110 -0.1438 -0.3398
17896W        W36750  16.540   7.644   1.749  0.1861  0.0703 -0.3024
17897W        W36751   4.250  12.628  13.150 -0.2326  0.0235 -0.4345
17898W        W36752  10.794   3.283  14.192  0.0009 -0.3219  0.0555
17899W        W36753   2.603   8.650   0.531  0.2653 -0.0770  0.0411
17900W        W36754  18.774  15.672  11.555 -0.0536 -0.1835  0.2825
17901W        W36755  11.386   1.532   2.865  0.1961  0.2840 -0.2745
17902W        W36756  17.700   6.225   1.993 -0.0928  0.4739 -0.0331
17903W        W36757  14.375  10.103  12.904 -0.0147 -0.1674  0.0311
17904W        W36758  14.885  12.878   2.241 -0.1743 -0.3415 -0.1979
17905W        W36759   0.358  15.530   3.245  0.2744  0.1657 -0.1603
17906W        W36760  12.232  12.984  11.111  0.1793  0.1773 -0.0392
17907W        W36761   3.858  18.023   4.822 -0.1502 -0.1039 -0.2061
17908W        W36762   6.609  13.260  14.887  0.2750 -0.1161  0.0157
17909W        W36763  18.441  10.176   5.129 -0.0729  0.0906  0.1071
17910W        W36764   4.691   1.696   1.301  0.1364  0.1828  0.3521
17911W        W36765  17.393  11.412  12.217  0.0700  0.0801 -0.0146
17912W        W36766  10.394  14.783   3.147 -0.0605  0.1587  0.1392
17913W        W36767   9.101   3.051   4.812 -0.1221 -0.0061  0.2628
17914W        W36768   5.952   7.681  10.303  0.0027 -0.0333  0.1136
17915W        W36769  17.552  12.270  11.827  0.0487  0.0621 -0.0969
17916W        W36770   0.207  18.505  12.565 -0.0439 -0.0305  0.3900
17917W        W36771  15.490   2.006   0.658 -0.0391 -0.3587  0.1143
17918W        W36772   7.179   2.277  12.059  0.0527 -0.1961 -0.0510
17919W        W36773   6.659  15.531  10.422 -0.1314  0.2952  0.2256
17920W        W36774  10.681  18.569  14.777  0.0123  0.2611  0.0473
17921W        W36775  14.875   5.670   2.011 -0.2442 -0.1939  0.1934
17922W        W36776   5.362   3.003  12.985  0.4969 -0.1386  0.2863
17923W        W36777  14.917   1.478  11.421 -0.2375 -0.0815 -0.2348
17924W        W36778  14.077   0.975   1.566 -0.0036 -0.1947 -0.4576
17925W        W36779  18.517   8.947  11.861 -0.1999  0.1543 -0.0326
17926W        W36780  11.084  12.745  14.147  0.2451  0.0255  0.2765
17927W        W36781   7.651   6.658   1.098  0.1469  0.1033 -0.2005
17928W        W36782   9.493   0.565   4.649 -0.0081  0.3718 -0.2781
17929W        W36783   5.614   9.332   1.998  0.5615  0.0397  0.0556
17930W        W36784   0.828   3.168   1.155  0.0089 -0.0897 -0.0555
17931W        W36785   5.268   8.016   1.411 -0.0413 -0.1372  0.0832
17932W        W36786   0.911   5.160   4.324 -0.2092 -0.0275  0.2271
17933W        W36787   5.440  13.150   0.976 -0.0792 -0.1178  0.3303
17934W        W36788  14.308  14.825  11.391 -0.3797  0.3377 -0.1033
17935W        W36789   9.661  13.519   0.456 -0.0041 -0.2398  0.0147
17936W        W36790  10.025  11.870   0.244  0.1559  0.0178  0.1055
17937W        W36791   8.440  11.226  10.047 -0.0132  0.2589 -0.0793
17938W        W36792   1.271  13.381   4.005 -0.1556  0.1271 -0.1782
17939W        W36793   3.442   4.258  11.453 -0.0053  0.2674  0.0076
17940W        W36794  13.403   5.723  12.112  0.2538 -0.1199  0.3080
17941W        W36795   3.399  13.852  14.408 -0.0748 -0.0513  0.1025
17942W        W36796   2.776   2.923  11.413  0.3781 -0.0383  0.1429
17943W        W36797   0.033   2.596   2.311  0.1296  0.3958  0.1114
17944W        W36798  12.568   5.669   0.336 -0.4573 -0.0035  0.1041
17945W        W36799  13.283   3.821   2.945  0.0965  0.4542  0.1675
17946W        W36800   7.447   4.139   4.316  0.0774  0.2394  0.0885
17947W        W36801   5.904  17.807  13.501 -0.0089 -0.0043  0.3438
17948W        W36802  16.535  11.259  11.903 -0.1477  0.0695 -0.1901
17949W        W36803  14.944   9.056  12.277 -0.1963  0.2011 -0.0375
17950W        W36804  10.642   4.782  14.386 -0.0811  0.1411  0.0133
17951W        W36805   8.637  12.717   1.616  0.1679  0.1455  0.2092
17952W        W36806  10.544   7.049  12.388 -0.2165  0.0111  0.2320
17953W        W36807  18.352   5.307  11.350 -0.0099 -0.0732  0.0066
17954W        W36808  12.907  12.474   2.098 -0.0447  0.1859  0.1010
17955W        W36809   7.819   6.591  14.903 -0.0534 -0.0794 -0.0520
17956W        W36810  15.676   5.668   0.740  0.2050 -0.2803 -0.3106
17957W        W36811   7.562  12.817  12.923  0.3614 -0.2430 -0.3815
17958W        W36812   0.344  12.878   2.989  0.0194  0.2854 -0.2259
17959W        W36813   1.994  18.421   2.923  0.0620  0.1510  0.0498
17960W        W36814  11.730  11.084   9.495 -0.0672  0.2432 -0.2056
17961W        W36815   7.072  15.375   3.455 -0.5455 -0.0700 -0.2222
17962W        W36816  15.448   8.022  13.193 -0.2396 -0.3611 -0.2057
17963W        W36817   1.137  11.163   2.081 -0.3094 -0.1163 -0.2197
17964W        W36818  12.291  12.342   1.379  0.0417 -0.1673  0.1617
17965W        W36819   0.367  10.642  10.759 -0.3235 -0.1362  0.0573
17966W        W36820  14.157   2.596   2.120  0.0671 -0.1953 -0.4632
17967W        W36821  14.397  10.472  13.868  0.1658 -0.2259 -0.3052
17968W        W36822  11.621   6.993  13.573 -0.3744 -0.3073  0.1028
17969W        W36823   1.175  15.961   0.112 -0.3314  0.0067 -0.1488
17970W        W36824  14.735   3.653  13.894 -0.0283  0.0006  0.1825
17971W        W36825   9.725   7.031  14.136  0.1261 -0.2764  0.1118
17972W        W36826  13.158   6.292  12.222  0.1365 -0.1815 -0.0119
17973W        W36827   1.474   6.532  10.418  0.0442 -0.2093 -0.2485
17974W        W36828   3.336   7.849  14.256  0.0960  0.1030 -0.0005
17975W        W36829  12.237   2.055  13.915 -0.1333 -0.0646 -0.0804
17976W        W36830   5.312   7.035  14.239  0.1792 -0.0421 -0.0559
17977W        W36831   6.383  15.512  13.420 -0.0876 -0.0286 -0.0823
17978W        W36832  13.952  16.737   1.129 -0.0885  0.1531 -0.1864
17979W        W36833  14.092  14.443   4.694 -0.0594  0.2524 -0.0888
17980W        W36834  15.575  15.684  10.563  0.0737  0.2821 -0.2845
17981W        W36835   3.503  10.898   0.966  0.0980  0.0348  0.0276
17982W        W36836   2.008  14.518  14.903 -0.0891 -0.4112 -0.1777
17983W        W36837  11.192   7.240   1.792 -0.1397  0.0706  0.0939
17984W        W36838  12.101  11.597  13.177  0.1700 -0.2695  0.3740
17985W        W36839  13.263  16.201   0.585  0.1250 -0.2140  0.0455
17986W        W36840  17.750  10.033  14.786  0.0471  0.0432  0.0692
17987W        W36841  12.299  15.925   1.397 -0.1657 -0.2353  0.1085
17988W        W36842  12.174  15.155   4.585 -0.2338 -0.0284  0.0278
17989W        W36843   6.841   0.998  13.360 -0.0969  0.0005  0.0873
17990W        W36844   8.053   5.087  12.235  0.2383  0.0629  0.0870
17991W        W36845   3.455  17.053   1.042 -0.2516  0.1695  0.0359
17992W        W36846   3.267   0.544  12.119 -0.1568  0.0805 -0.0404
17993W        W36847  14.430  13.182  13.206 -0.1918 -0.0621  0.1888
17994W        W36848   6.972   7.167  12.046  0.0321 -0.3054  0.0028
17995W        W36849   6.236   6.997   3.898  0.1301  0.2433  0.1398
17996W        W36850   3.978  10.412  13.620  0.0413  0.1732 -0.1512
17997W        W36851   3.245   5.676   2.432  0.2947  0.0344  0.0682
17998W        W36852  13.917   4.718  14.093  0.2120  0.3024 -0.1350
17999W        W36853   5.776  18.411   4.648 -0.1156  0.0702  0.0428
18000W        W36854   0.830   5.151  14.936 -0.1002  0.1118 -0.1985
18001W        W36855   2.092  16.911   1.273 -0.0026  0.0214  0.1018
18002W        W36856  16.126  10.407   1.764  0.1056  0.0211 -0.1889
18003W        W36857   8.514  15.820  10.624 -0.1476 -0.1826  0.0382
18004W        W36858   2.428  17.399   0.238  0.3227 -0.0583  0.1408
18005W        W36859  10.783  13.752  13.325  0.2523 -0.1348  0.0814
18006W        W36860   0.643  11.777   3.390  0.6262  0.0399 -0.3733
18007W        W36861  11.897  11.232   3.988  0.0857  0.3575  0.3817
18008W        W36862   8.438   3.227   0.710 -0.0605  0.0667 -0.2061
18009W        W36863  13.465  18.850   2.826 -0.1654  0.2752 -0.2576
18010W        W36864   0.037  14.574   3.377  0.0022  0.2120  0.0055
18011W        W36865  16.883  14.268   3.587  0.1864  0.0422 -0.2534
18012W        W36866  10.557   6.950  13.251  0.0725 -0.0559  0.0969
18013W        W36867  16.559  17.692   1.074 -0.0081 -0.0422 -0.2638
18014W        W36868   3.921   8.981   2.355 -0.0080 -0.0387  0.1146
18015W        W36869   1.420   1.399  11.749 -0.0239 -0.1244 -0.1988
18016W        W36870  13.188  16.701   1.373  0.0355 -0.3343  0.0132
18017W        W36871  12.701   9.587  15.094 -0.0262  0.0255 -0.1445
18018W        W36872   4.714  12.902  10.896 -0.1818  0.0030 -0.0175
18019W        W36873   2.521   2.076  14.998  0.2616 -0.2518  0.1072
18020W        W36874  17.644   8.769  11.271 -0.1998 -0.0821 -0.0222
18021W        W36875   9.623   4.238  10.434 -0.1247  0.1665 -0.0180
18022W        W36876   3.046   1.978  14.101 -0.4446  0.0234  0.3610
18023W        W36877  15.200  10.961   2.937  0.0096 -0.0544  0.2987
18024W        W36878   2.763   0.379   4.187  0.1284  0.2748  0.0556
18025W        W36879   3.177   3.882  13.720  0.0098  0.6145  0.0284
18026W        W36880   1.127  10.979  14.212  0.1750 -0.2573  0.2188
18027W        W36881  11.848   2.648  14.619  0.3865  0.1081 -0.0144
18028W        W36882  11.874  14.111   0.378 -0.1500  0.0182  0.1042
18029W        W36883  11.630  14.405  14.391  0.1812  0.0082  0.0091
18030W        W36884   5.031   5.487   0.807 -0.1592  0.0561 -0.1846
18031W        W36885   1.432  17.136   0.788 -0.0460  0.0712  0.0533
18032W        W36886   8.919  15.382  10.994  0.3352 -0.0710 -0.0273
18033W        W36887  16.888   4.181   3.097 -0.1651 -0.0057 -0.1597
18034W        W36888  17.230  11.638   9.563  0.4533  0.1217 -0.1434
18035W        W36889   5.548  17.987  13.848 -0.0371 -0.0510  0.1941
18036W        W36890  14.640  11.694   2.021  0.1693  0.0314 -0.0374
18037W        W36891  15.132  13.167   1.114 -0.2245 -0.0890 -0.1411
18038W        W36892  10.348  15.560   2.861 -0.2406 -0.0414  0.2650
18039W        W36893   7.516   8.592   3.205 -0.0417 -0.1552 -0.0971
18040W        W36894  11.189   3.472  14.430  0.0226  0.0822  0.1288
18041W        W36895   4.348  15.052  11.642  0.1350 -0.0360 -0.0313
18042W        W36896   8.651   3.615  14.358 -0.2012  0.1976 -0.0309
18043W        W36897   0.057   2.643   3.413 -0.1865 -0.3551  0.0605
18044W        W36898  14.445  13.001   3.567  0.1152  0.1433 -0.2693
18045W        W36899   1.375   2.292  13.029 -0.3268 -0.1454 -0.1559
18046W        W36900  15.377  18.463   2.238 -0.1824  0.0451  0.1045
18047W        W36901   2.164  16.671  11.273 -0.1046  0.0370  0.0748
18048W        W36902  12.069   7.295  11.199  0.0755 -0.0358  0.1958
18049W        W36903   4.057   9.280  11.174 -0.3169 -0.1084  0.0436
18050W        W36904  11.345   9.908  10.610  0.0637 -0.1348  0.0897
18051W        W36905   7.611  15.093  14.141  0.3698  0.1932  0.0423
18052W        W36906  16.461  15.710  11.525 -0.0144 -0.1511  0.2554
18053W        W36907   2.010  16.070   2.113  0.0923  0.1394  0.0189
18054W        W36908  15.608  13.236   2.232  0.1837 -0.0698  0.0080
18055W        W36909  10.417  10.698  14.884  0.1603 -0.0151  0.1785
18056W        W36910  11.006  17.498   3.507  0.0788 -0.2182  0.5034
18057W        W36911  15.179  12.108  12.394  0.0736 -0.1118 -0.1982
18058W        W36912   2.670   3.372   4.429  0.2699  0.1223  0.0571
18059W        W36913  13.365  14.580   0.058  0.1491  0.0060  0.1027
18060W        W36914  15.138   1.064  11.687 -0.3528  0.1312 -0.1695
18061W        W36915   5.324   0.626   3.132 -0.0121 -0.2243 -0.1521
18062W        W36916  12.101   7.736   4.420 -0.0167  0.4288 -0.0569
18063W        W36917  18.107  11.103   1.127  0.3989 -0.2817  0.0665
18064W        W36918  10.824   8.430  12.612  0.0204 -0.2012 -0.2707
18065W        W36919   9.324   8.350   4.823 -0.0237 -0.1606  0.2398
18066W        W36920   5.152  16.324   3.736 -0.2039  0.0980 -0.1545
18067W        W36921   4.597  14.027   1.212  0.0137  0.2018  0.1347
18068W        W36922  10.005  11.967   0.842 -0.0907 -0.2991  0.1867
18069W        W36923   0.526   6.213   4.296  0.1050 -0.0512 -0.1858
18070W        W36924  10.905   9.165   3.716  0.1105  0.0683  0.0252
18071W        W36925  16.911   5.290  13.306  0.1184  0.0005 -0.2228
18072W        W36926  15.063  13.485   0.737 -0.0083 -0.1560  0.3481
18073W        W36927   6.679   8.257  11.408  0.2944 -0.1714 -0.2195
18074W        W36928  11.570   2.756   0.213 -0.0805  0.0041  0.1457
18075W        W36929  16.453   4.493  14.027  0.1864 -0.1086  0.1250
18076W        W36930   1.927   0.876   3.664 -0.1951  0.0912 -0.1087
18077W        W36931  11.183  16.322  12.405 -0.1521 -0.0874  0.1183
18078W        W36932  11.004   3.293   2.273  0.1255 -0.0675 -0.0216
18079W        W36933   2.460   2.435   1.688 -0.2210 -0.0303  0.2960
18080W        W36934  14.681   3.364   0.888  0.0806 -0.2378  0.3285
18081W        W36935  12.919   1.371   3.775  0.4348 -0.0496  0.3156
18082W        W36936   7.326  14.104  11.440 -0.2216 -0.2339 -0.2062
18083W        W36937   6.620  11.314  15.027  0.1609  0.1943 -0.2021
18084W        W36938  13.568  16.484  11.645  0.0249  0.1592  0.3536
18085W        W36939   7.356  14.853  14.868 -0.1919  0.1755  0.0537
18086W        W36940  16.874  12.653   1.849 -0.0121 -0.2073 -0.1153
18087W        W36941  17.512   3.873  12.918  0.0658 -0.0064 -0.3307
18088W        W36942   1.675   5.381  15.044 -0.1796 -0.2657 -0.1976
18089W        W36943   0.194   0.161  12.152  0.2272 -0.2179 -0.1054
18090W        W36944   9.572   5.778   2.679 -0.3225 -0.0391 -0.0912
18091W        W36945  14.914   1.102   1.980  0.0001  0.0113 -0.2472
18092W        W36946   7.680   8.282   3.559 -0.1805 -0.1310  0.2857
18093W        W36947  16.805  11.547   0.165 -0.0410  0.1543  0.3615
18094W        W36948  10.507  15.119  12.021 -0.0290  0.0053 -0.0875
18095W        W36949   9.339  14.021   2.684  0.1877 -0.0822 -0.2073
18096W        W36950   4.787  12.984   2.376 -0.1238  0.1233 -0.0631
18097W        W36951  12.537   0.037  13.144 -0.0280  0.3253  0.0005
18098W        W36952  11.572  16.420  12.671 -0.1606 -0.0003  0.0933
18099W        W36953   0.346  17.032   0.701 -0.4118 -0.0063  0.2203
18100W        W36954  11.870   2.258   3.453  0.0858 -0.2257 -0.2876
18101W        W36955   4.681   4.518   1.768 -0.1001 -0.2885  0.0062
18102W        W36956   1.951  17.510  15.121  0.0809 -0.0162  0.1109
18103W        W36957   9.408   8.916   2.568  0.0293  0.0457  0.0816
18104W        W36958  15.687  13.343  12.891 -0.2895 -0.0382  0.1428
18105W        W36959  15.910   5.643   2.151  0.1952  0.3196 -0.2293
18106W        W36960  14.160   0.114   2.260  0.2209  0.0760 -0.2382
18107W        W36961   4.669   6.368  12.528  0.1553 -0.3676  0.1608
18108W        W36962  15.336   6.910  13.398 -0.0980 -0.0969 -0.0437
18109W        W36963  15.840  16.455  11.729  0.3932  0.2234  0.2330
18110W        W36964  14.175  10.557   3.063 -0.0581  0.2790  0.3118
18111W        W36965   6.132  16.877   1.702 -0.0811  0.3241 -0.1006
18112W        W36966   6.179   4.046   1.199 -0.2969 -0.1615 -0.1024
18113W        W36967  11.650   0.079  13.509 -0.0691 -0.0031  0.2262
18114W        W36968   0.940   5.005   0.499  0.1098 -0.0715 -0.4068
18115W        W36969  16.667   7.822  12.438  0.2744 -0.0844 -0.1304
18116W        W36970   1.119  17.712  11.278  0.1662 -0.0382  0.1619
18117W        W36971   7.849  18.292  14.580 -0.0212 -0.1219 -0.0221
18118W        W36972  16.080   5.123   2.127 -0.1622 -0.1298  0.0897
18119W        W36973   8.307  18.696  12.029  0.0781  0.2501 -0.4030
18120W        W36974   7.122   7.435  11.092 -0.0526 -0.1352 -0.1101
18121W        W36975   8.582   0.439   1.594  0.2201  0.0072  0.2746
18122W        W36976   1.396   2.714   0.864 -0.1978 -0.0560 -0.2695
18123W        W36977  11.029   5.636  10.530 -0.2888  0.1347  0.0579
18124W        W36978  15.719  10.823  11.932  0.4384 -0.1542 -0.3539
18125W        W36979   8.533  13.955   4.628  0.0535 -0.2173  0.0582
18126W        W36980   1.578  15.453  13.895  0.1770  0.0827  0.2713
18127W        W36981  12.833  14.533   0.276  0.1232  0.2765 -0.0738
18128W        W36982  16.571   2.038   4.276  0.0428  0.0996 -0.3125
18129W        W36983   7.681   2.606   2.400  0.1042  0.2344  0.1361
18130W        W36984  15.601  11.491   0.469  0.2143 -0.3154 -0.0600
18131W        W36985   1.545  14.869   2.083  0.0412 -0.3252 -0.0227
18132W        W36986  14.098  11.177  13.606 -0.1647  0.1016  0.0766
18133W        W36987   6.258  16.969  11.289 -0.0113 -0.0851 -0.0398
18134W        W36988   1.865   7.247   1.868 -0.0414  0.3090 -0.1058
18135W        W36989  15.499   2.938   3.713 -0.0570 -0.3729 -0.0456
18136W        W36990  18.480  14.695  10.014 -0.2291  0.1143 -0.0471
18137W        W36991   6.280   7.566   1.991  0.1787 -0.0924 -0.0626
18138W        W36992   8.533   9.067  12.047  0.0106  0.1910  0.1571
18139W        W36993  16.701   8.904   2.448  0.2754  0.1204 -0.0063
18140W        W36994   6.035  11.154  12.773 -0.2730  0.0043  0.5293
18141W        W36995   6.539  14.293   0.255 -0.1185 -0.2003  0.2495
18142W        W36996  12.509   2.756   3.011 -0.2484  0.2575 -0.2111
18143W        W36997   8.656   2.172  13.334  0.0176  0.1949  0.0053
18144W        W36998  13.121  13.826   4.645 -0.1863 -0.0674  0.1481
18145W        W36999   0.258   8.848   0.223  0.1106 -0.1345  0.0779
18146W        W37000  13.141  12.221  14.853  0.0171 -0.1146 -0.0848
18147W        W37001   4.380  18.105  14.790 -0.0720  0.2444  0.0114
18148W        W37002   5.427   4.846   2.439  0.0083  0.2399 -0.3227
18149W        W37003  17.963  17.891   2.795 -0.3057  0.1609 -0.0508
18150W        W37004   7.251   9.110  11.965 -0.2977  0.2258  0.0895
18151W        W37005   1.438  10.810  13.010 -0.2278  0.0707  0.1871
18152W        W37006  11.567  11.075   4.430 -0.0040 -0.0144  0.2102
18153W        W37007  16.330   4.688  10.708 -0.1265  0.1078  0.1450
18154W        W37008  16.788  11.527  10.989  0.0375 -0.0263  0.0422
18155W        W37009  15.909   3.928   2.966  0.0896  0.0542 -0.1347
18156W        W37010   4.087   1.531   0.767 -0.2356  0.0516  0.0237
18157W        W37011  17.259  15.965  12.522 -0.0964 -0.1929  0.0218
18158W        W37012   1.270  13.953  12.380  0.3294 -0.3539 -0.0628
18159W        W37013  16.133   0.657   3.636  0.0366  0.1706  0.1649
18160W        W37014  11.693   8.587  11.853 -0.1334  0.4913  0.2290
18161W        W37015   2.798   8.891   3.423  0.1094  0.0759  0.0512
18162W        W37016   7.839   4.763  12.875  0.0251 -0.1662  0.0276
18163W        W37017  12.527   1.111   0.261  0.3458 -0.1364 -0.2494
18164W        W37018   8.552   2.777   3.579  0.0914  0.1596  0.3088
18165W        W37019   1.198  16.439   4.358  0.0237 -0.0959 -0.1685
18166W        W37020   4.028  13.909   2.030 -0.2217  0.5194  0.1229
18167W        W37021   2.359  18.080   1.167 -0.0297 -0.1663  0.1454
18168W        W37022  16.765  17.448   3.476  0.2141  0.2551  0.0689
18169W        W37023  17.650   7.254   1.001 -0.1621 -0.0276 -0.1582
18170W        W37024  16.737  17.256  14.745 -0.1347  0.0286  0.1627
18171W        W37025   4.059  11.111  14.950  0.1365 -0.3888  0.1052
18172W        W37026   3.219   9.678   4.535 -0.1362 -0.0398 -0.2443
18173W        W37027  12.862  17.787   3.808  0.3408  0.0688 -0.0543
18174W        W37028  10.257  10.237  12.134  0.0903 -0.0144  0.0106
18175W        W37029   7.835  16.653   2.809 -0.1117  0.0135  0.2499
18176W        W37030   3.480   3.890  13.184 -0.0558  0.0777 -0.5249
18177W        W37031  12.811   0.483   2.313 -0.0563 -0.3389  0.0166
18178W        W37032  17.834   4.771  12.891  0.1312 -0.1608 -0.2827
18179W        W37033   9.708  16.478  14.269  0.1950  0.1105 -0.0151
18180W        W37034   6.813  10.733  10.304 -0.1756 -0.1574  0.2594
18181W        W37035   3.670   2.142  12.224 -0.0845 -0.2350 -0.3356
18182W        W37036  18.235   8.716  11.067 -0.1930  0.1623 -0.1232
18183W        W37037  13.324   3.421  14.989 -0.2401 -0.3508 -0.0018
18184W        W37038  11.952   6.195   4.472 -0.1406 -0.1771  0.2338
18185W        W37039   5.267   1.714   3.411  0.1602  0.1157 -0.0285
18186W        W37040  11.694   4.315   4.250 -0.0909 -0.1009 -0.0035
18187W        W37041  18.283   9.225   1.747  0.1146  0.3241  0.2950
18188W        W37042   9.942   0.939   0.152  0.2404  0.0261  0.2828
18189W        W37043   3.402  11.081   3.671 -0.2208 -0.1507 -0.2442
18190W        W37044   2.527   5.175   2.734 -0.1125 -0.0386  0.1388
18191W        W37045  15.819   2.198   0.289 -0.0893  0.1183  0.1569
18192W        W37046   4.817   2.117   3.976  0.0336 -0.1860  0.0731
18193W        W37047   5.927  15.861   5.574 -0.0609 -0.0490 -0.0507
18194W        W37048   4.084   3.041   1.172 -0.1190  0.0943 -0.3008
18195W        W37049   0.237   1.639   4.330 -0.2289  0.2311 -0.1744
18196W        W37050  11.552   1.810  11.482  0.3180  0.1970 -0.1637
18197W        W37051  14.618  14.890   1.460  0.0108  0.2783 -0.1653
18198W        W37052   3.081  10.437  10.375  0.1569 -0.0515  0.0770
18199W        W37053   8.846  10.201  13.421  0.0777 -0.0962  0.1712
18200W        W37054  14.524   2.743  13.582 -0.0012  0.0282  0.0692
18201W        W37055  10.079   8.018  12.741  0.2883  0.0801 -0.1810
18202W        W37056  16.093  15.930   1.887 -0.1641 -0.0503 -0.2133
18203W        W37057  14.666   8.944   1.218 -0.1842  0.2826 -0.1505
18204W        W37058   8.444  12.644   3.503 -0.0101  0.1046  0.1688
18205W        W37059  15.024  10.833   0.094 -0.1813  0.1550  0.1041
18206W        W37060  13.597   9.392  14.367  0.3892 -0.1076 -0.2001
18207W        W37061   9.000   5.971   0.150 -0.0001 -0.2983 -0.1308
18208W        W37062   1.063   8.434  15.026  0.1778 -0.0155  0.4652
18209W        W37063   4.479   3.193  11.078  0.2415  0.0954  0.0408
18210W        W37064  15.125  11.967   4.418  0.1470  0.0209  0.0375
18211W        W37065  13.069   2.464  14.332  0.0681  0.1104  0.0364
18212W        W37066  17.915  12.730  11.178 -0.0259  0.0081  0.2055
18213W        W37067   9.288  12.511   1.374 -0.2258 -0.2170 -0.1137
18214W        W37068  13.222  17.590   9.982 -0.0965 -0.1126  0.3413
18215W        W37069   6.652  18.008   2.515  0.2562 -0.6451  0.2374
18216W        W37070  16.983  18.461   2.687  0.1206  0.1718  0.2273
18217W        W37071   6.420  17.384  10.910 -0.0887 -0.1684 -0.0529
18218W        W37072  10.709  12.800   4.233  0.1884  0.0194 -0.4119
18219W        W37073   6.542   7.984   2.193 -0.1515 -0.1869  0.1809
18220W        W37074   4.029  18.107   0.575  0.1604 -0.0358 -0.1297
18221W        W37075  11.653  18.493   0.186  0.2950  0.0992  0.0701
18222W        W37076   2.276   4.774  10.448  0.2752  0.1310 -0.1859
18223W        W37077  12.965   4.421  11.581  0.0134  0.1963 -0.3686
18224W        W37078  10.978   3.381  12.910  0.0822  0.1066  0.1547
18225W        W37079   4.785  11.245   1.845 -0.2384 -0.1013  0.0954
18226W        W37080  15.658   4.517   1.439  0.1498  0.1052  0.3299
18227W        W37081   5.777   4.444   2.021 -0.0693 -0.1720 -0.1731
18228W        W37082  10.877  11.615  15.098 -0.0785 -0.1064 -0.0147
18229W        W37083   1.531  15.190   3.405 -0.0510  0.0098  0.1993
18230W        W37084  10.212  10.305  11.201 -0.2847  0.3770 -0.0533
18231W        W37085   1.825  16.292  11.203 -0.1786 -0.2506 -0.1558
18232W        W37086   1.137  10.813   0.716 -0.0168 -0.3768 -0.1177
18233W        W37087   3.254  11.851   3.457 -0.2529  0.3216 -0.1475
18234W        W37088   8.074  18.778   3.038  0.0046 -0.1128  0.2612
18235W        W37089  10.013  15.203   3.611  0.0889  0.0716  0.1446
18236W        W37090  15.268   9.918  13.867  0.0208  0.0967 -0.0486
18237W        W37091   9.604  13.335   2.584 -0.1242  0.0437 -0.3086
18238W        W37092   8.191   3.027   4.335 -0.0579  0.1504 -0.2294
18239W        W37093   3.071  10.556   3.441 -0.2285 -0.3487  0.0533
18240W        W37094  10.744  13.848   1.221  0.0164 -0.1660 -0.1574
18241W        W37095   7.630   4.250   0.230 -0.1186 -0.2576  0.0976
18242W        W37096   5.726  12.315  13.576  0.0396  0.1027 -0.2309
18243W        W37097  17.002   6.016   2.883  0.0741  0.0928 -0.0656
18244W        W37098  10.014   3.003  13.815 -0.2389  0.1311 -0.1855
18245W        W37099   4.038  17.624   0.602  0.1330  0.0349 -0.0958
18246W        W37100  15.404   8.104  12.344  0.0474 -0.0405  0.2531
18247W        W37101  15.289  18.671   0.822  0.2427 -0.4266 -0.1185
18248W        W37102   4.113  13.106   2.634  0.2394  0.3110  0.0540
18249W        W37103   4.150  11.601  14.187  0.1747 -0.2128 -0.1758
18250W        W37104  15.351   1.402   1.459 -0.0854 -0.1405 -0.0913
18251W        W37105  15.274  16.818   4.142 -0.1157 -0.1867 -0.0944
18252W        W37106  13.587   3.650   4.449 -0.1468  0.0305 -0.0137
18253W        W37107  16.296  18.209  12.830  0.2702  0.1878  0.3458
18254W        W37108  18.702   8.886   4.141  0.2434 -0.1762 -0.3056
18255W        W37109  11.801  15.776  12.784  0.0848  0.1367  0.1970
18256W        W37110  11.986   4.928   0.319  0.1490 -0.1209 -0.0245
18257W        W37111  18.481   7.322  14.999  0.0249 -0.0058 -0.2604
18258W        W37112   8.975   5.672  11.978  0.0683 -0.2938 -0.0263
18259W        W37113   7.955  14.333  14.297  0.1481 -0.0723 -0.1407
18260W        W37114  18.621   9.279  12.191  0.0641  0.2559  0.0484
18261W        W37115   0.587   0.798   0.358  0.0229  0.2081  0.3961
18262W        W37116  13.798  12.529  10.063  0.0374 -0.1805 -0.2902
18263W        W37117   0.747  18.565   0.440 -0.0416  0.1261  0.0029
18264W        W37118   0.824  10.894  10.173 -0.2792  0.2512 -0.0727
18265W        W37119   4.476  17.139   1.828  0.0227  0.2439  0.0273
18266W        W37120  12.083  17.953  11.594  0.3193 -0.4307  0.1314
18267W        W37121  11.038  12.232   4.307  0.1219  0.1886  0.0804
18268W        W37122   8.903   2.098   2.979  0.0072 -0.1626  0.2148
18269W        W37123   2.890  17.319   1.811 -0.3589 -0.2105 -0.0570
18270W        W37124  14.328  18.674  13.699 -0.1682  0.1531  0.0406
18271W        W37125   6.626  13.479   2.039 -0.2769 -0.1252  0.3704
18272W        W37126   2.971   4.499  13.022 -0.3172 -0.0587  0.1205
18273W        W37127  13.433   5.080  12.656  0.0977  0.0118 -0.2490
18274W        W37128   8.211  17.486  14.766  0.2382 -0.2402 -0.2286
18275W        W37129  12.897   8.574   1.672  0.0444  0.0351  0.2425
18276W        W37130  16.775   8.661  10.683  0.0599 -0.2047  0.2884
18277W        W37131   6.021   1.564  14.254  0.1404  0.2413 -0.1783
18278W        W37132   1.688  18.836  14.502  0.0684  0.0478 -0.2763
18279W        W37133   6.619   8.244  10.708  0.1110 -0.1945  0.0854
18280W        W37134   1.875  11.901   1.677 -0.2763  0.3370 -0.1188
18281W        W37135   9.627   9.320   3.940  0.3813 -0.3428 -0.0664
18282W        W37136  10.250  10.670   1.627  0.0687  0.0477 -0.1358
18283W        W37137  13.884   9.536   1.176 -0.1075 -0.3045 -0.1652
18284W        W37138   0.051   7.922   1.552 -0.0400  0.0693 -0.0249
18285W        W37139  18.655  15.557  13.778 -0.0914 -0.0143  0.2861
18286W        W37140  15.489   4.415   0.056  0.0192 -0.1070  0.3311
18287W        W37141  13.087   1.702  13.388 -0.0212  0.2171  0.2529
18288W        W37142  11.606  17.327   1.685  0.2549  0.2321  0.1783
18289W        W37143   8.550  10.171   1.732 -0.3343 -0.0674  0.1624
18290W        W37144  11.079   4.613   2.680 -0.0757 -0.0098 -0.0470
18291W        W37145  15.246   6.269   3.266  0.1326 -0.0174 -0.0120
18292W        W37146   4.039   7.727   1.334  0.1010 -0.1401 -0.2900
18293W        W37147  18.567  10.199  10.574  0.2312 -0.1996  0.1314
18294W        W37148   4.867  16.907   1.581  0.1319 -0.0101 -0.1247
18295W        W37149   7.723   1.128   3.944  0.1909  0.0574 -0.0523
18296W        W37150  11.207   1.048  13.211 -0.1969  0.0337 -0.0545
18297W        W37151   1.382  17.304   1.904 -0.0310 -0.2464  0.2455
18298W        W37152  10.992   2.235  12.554 -0.2238 -0.0581  0.5519
18299W        W37153   2.288  15.151  11.668  0.2863 -0.3818 -0.1591
18300W        W37154   1.203   6.432   4.145  0.0446 -0.1408 -0.2568
18301W        W37155  18.822   0.971   4.290  0.2545  0.0766 -0.0722
18302W        W37156   7.222  11.510   3.535 -0.2306 -0.1086  0.1810
18303W        W37157  13.952   4.343  12.327  0.0684 -0.0418 -0.1760
18304W        W37158   2.131  15.331  10.641  0.1795 -0.1301 -0.2388
18305W        W37159  11.167   5.143   0.186 -0.0122  0.1762  0.2834
18306W        W37160  15.638   3.579  13.856  0.0875  0.0047  0.0208
18307W        W37161   6.957  10.311   3.135  0.1697 -0.3518  0.1167
18308W        W37162   5.350   9.480   0.026 -0.0448 -0.1043  0.1313
18309W        W37163   3.103   7.851  12.796  0.1137 -0.2850 -0.0617
18310W        W37164   9.449  17.943  13.482 -0.1174 -0.2322  0.1735
18311W        W37165  10.793   2.860   3.209  0.1549  0.1201  0.1996
18312W        W37166  16.571   0.689   2.012  0.1582 -0.0994 -0.1670
18313W        W37167   5.928  10.613  13.654 -0.0593 -0.1354  0.2489
18314W        W37168  16.002  18.122   4.946  0.1538 -0.2200 -0.0397
18315W        W37169   2.677   8.804  14.666  0.0046 -0.0098  0.1886
18316W        W37170  15.500  18.516  14.572  0.1054 -0.1584  0.2162
18317W        W37171  15.835  10.804   0.560 -0.5799  0.1983  0.0074
18318W        W37172  11.569   2.248   0.322  0.3885 -0.1997  0.2258
18319W        W37173   3.912   7.525  12.881  0.2179 -0.2504 -0.3335
18320W        W37174   4.631   0.410  14.763  0.3248  0.0239  0.0177
18321W        W37175   1.454   9.634  11.876 -0.0236  0.0185  0.0604
18322W        W37176   8.156  12.207   3.356 -0.0578 -0.0495 -0.1662
18323W        W37177  10.846  11.792  13.728  0.2844  0.3442  0.1971
18324W        W37178   4.438  17.417   0.909 -0.2153 -0.7193  0.1036
18325W        W37179   8.409   2.599  13.475 -0.0996  0.1418 -0.2571
18326W        W37180  15.033   7.724   1.911  0.0115 -0.2508  0.0114
18327W        W37181  18.686  17.558   4.657 -0.3534  0.0667  0.2013
18328W        W37182   3.221  11.019  14.934  0.1298  0.3115  0.4365
18329W        W37183  13.404  18.288  11.598  0.1034  0.2543 -0.2278
18330W        W37184   1.455  15.728  12.847 -0.0628  0.4770  0.3768
18331W        W37185  11.155   9.949   0.223 -0.2294 -0.1103  0.0181
18332W        W37186  13.137  17.166   3.098 -0.1551  0.6230  0.1209
18333W        W37187  17.465  16.444  13.409 -0.3155  0.0536  0.3381
18334W        W37188   6.194   7.681   2.519 -0.1602  0.2652 -0.0893
18335W        W37189  14.174  15.333  11.418 -0.0664  0.1342 -0.0715
18336W        W37190  16.951  10.068   3.736 -0.5972 -0.1369  0.3190
18337W        W37191   2.896  15.992   9.623  0.2102  0.2155  0.0038
18338W        W37192   6.584   2.153   1.680  0.1237 -0.1857  0.0287
18339W        W37193   0.137   1.983  10.735 -0.1175 -0.1243 -0.4405
18340W        W37194   8.140   3.057   4.812  0.0582  0.0206  0.2242
18341W        W37195  17.832  16.933   0.611 -0.1048 -0.2498  0.0875
18342W        W37196   6.295  15.211   0.090  0.2903 -0.0295  0.1960
18343W        W37197   7.977   1.541   1.023  0.0642 -0.0185  0.1403
18344W        W37198   7.807   1.397  12.889 -0.0887  0.2121  0.0341
18345W        W37199  14.115   9.736   2.653  0.4263 -0.0617  0.0091
18346W        W37200   1.171  10.527  13.884 -0.2557  0.0333 -0.0983
18347W        W37201   2.013   2.617  11.753 -0.4348  0.0559 -0.2218
18348W        W37202  11.986  15.345   0.100 -0.1434  0.0959 -0.0497
18349W        W37203   2.650   7.979   0.992  0.2958 -0.0924  0.1053
18350W        W37204   0.488  11.455  11.500  0.0347 -0.2004 -0.1447
18351W        W37205   8.062   1.526  11.448 -0.1007  0.0803 -0.0820
18352W        W37206   7.416  17.321   3.421 -0.1123 -0.0273 -0.6409
18353W        W37207   8.792   1.568   3.119 -0.0905 -0.0894  0.3182
18354W        W37208   5.016   8.723   3.133 -0.0841  0.0921  0.0537
18355W        W37209  11.880   1.627  12.964 -0.1582 -0.1625 -0.3992
18356W        W37210  11.786   5.191  11.116 -0.0852 -0.0688 -0.1233
18357W        W37211  17.384  13.898   3.718 -0.0804  0.0733  0.0272
18358W        W37212  12.241   9.518   1.298  0.5235  0.0704  0.2019
18359W        W37213  15.873  18.479   5.860  0.1627 -0.0298  0.0459
18360W        W37214  17.945  15.432  12.460  0.0372 -0.0531 -0.0680
18361W        W37215   5.752  16.916   3.702  0.0829  0.0299  0.2765
18362W        W37216   2.068   7.952   1.220 -0.1484  0.2035  0.1408
18363W        W37217  12.733  14.353   1.767  0.0287  0.0904  0.1663
18364W        W37218   4.973  12.736  14.014 -0.2102 -0.0252  0.1035
18365W        W37219   9.552  16.517  12.731  0.1239  0.3599  0.0046
18366W        W37220  17.414   1.988  10.481 -0.3711 -0.2916  0.1237
18367W        W37221   4.329   7.090  13.970 -0.1056 -0.0641 -0.1341
18368W        W37222  10.479  12.192   0.699 -0.0996 -0.1280 -0.0071
18369W        W37223   7.417  18.538   2.767  0.0678 -0.1357 -0.0640
18370W        W37224  13.099  15.371  14.466  0.1094 -0.2077  0.0269
18371W        W37225   7.305   6.660  14.936  0.1611  0.0402 -0.0489
18372W        W37226   2.500   5.191  12.519 -0.0577  0.0920  0.0896
18373W        W37227  12.007  13.616   5.328  0.2050  0.0754 -0.0943
18374W        W37228   2.981   3.686   1.388  0.0570  0.3173 -0.1798
18375W        W37229   2.417   1.675  12.683 -0.0787  0.0632  0.0224
18376W        W37230   9.751   7.932  13.191 -0.1282  0.1926 -0.2788
18377W        W37231   6.055   1.984   3.942  0.2181  0.0785  0.1777
18378W        W37232  13.143  10.026   1.526  0.1663 -0.1712 -0.0142
18379W        W37233   7.387  16.405   3.114  0.0629 -0.2121  0.4495
18380W        W37234   7.479   0.786  11.201 -0.1204 -0.0771  0.1851
18381W        W37235  16.745  10.150  15.048  0.2079  0.0110 -0.1647
18382W        W37236   1.984  15.308  14.853  0.0666  0.1389  0.0707
18383W        W37237   0.431   6.352   3.710 -0.3194  0.1201 -0.1039
18384W        W37238   7.711   3.868   0.676 -0.0279  0.0870  0.2059
18385W        W37239   0.300  18.163  12.955 -0.2750  0.2239 -0.1561
18386W        W37240  12.996   3.791   3.319 -0.2219 -0.0344 -0.0180
18387W        W37241   7.533  11.287   0.685 -0.1246 -0.2917 -0.2943
18388W        W37242  10.000  13.252   4.282 -0.1456 -0.1834 -0.0737
18389W        W37243  11.004   0.668  13.513 -0.2304 -0.1745 -0.2781
18390W        W37244   5.187   3.784  11.875  0.1217  0.2264 -0.2725
18391W        W37245   0.089   5.841  12.816  0.0677  0.2537  0.3796
18392W        W37246  12.487   3.368  14.102 -0.1278  0.4770 -0.3467
18393W        W37247   0.178  18.768   0.169  0.2328 -0.0539 -0.0818
18394W        W37248  15.841   4.564  12.827  0.4007  0.0440 -0.2789
18395W        W37249  11.738  15.299   2.455  0.1451  0.0599  0.0088
18396W        W37250   4.018   9.929   1.289 -0.0387  0.0874  0.3227
18397W        W37251  12.100  14.714  14.389 -0.1361  0.1683  0.0791
18398W        W37252   4.172   9.519   4.181  0.0546 -0.2161  0.3183
18399W        W37253  18.104   7.634  11.648  0.3212 -0.2192 -0.1831
18400W        W37254  14.546   2.952   1.210 -0.0154 -0.0399  0.1566
18401W        W37255  18.847   2.195  14.626  0.0630  0.1217 -0.0731
18402W        W37256   6.894   4.218   1.642 -0.1380  0.0672 -0.1425
18403W        W37257  13.299  12.298   4.757 -0.0862  0.0504 -0.0236
18404W        W37258   2.464  11.844   0.341  0.1256 -0.1981 -0.1678
18405W        W37259   8.982  11.390  12.695 -0.1216 -0.0280 -0.3994
18406W        W37260   3.781  16.163  12.761 -0.2226 -0.3251  0.1449
18407W        W37261   5.849  10.341  11.251  0.0305 -0.0185  0.0962
18408W        W37262   2.301  11.801  13.132  0.0024  0.0921  0.1090
18409W        W37263   3.384  13.160  12.116  0.2847  0.0329 -0.0725
18410W        W37264   0.898  15.560  10.763  0.0124 -0.1089 -0.0993
18411W        W37265  16.047   5.475   0.307  0.0708  0.0925  0.1066
18412W        W37266   6.339  13.001   1.175  0.1331 -0.0359 -0.3691
18413W        W37267  12.601   7.802   2.716 -0.2134  0.0538  0.1186
18414W        W37268   9.123  14.084  10.398 -0.0007 -0.0728 -0.0102
18415W        W37269   0.073   6.995  14.915 -0.1107  0.6330  0.1269
18416W        W37270   3.178   5.514   1.595 -0.1167  0.0649  0.0501
18417W        W37271  15.323   4.129  11.625  0.0197 -0.2629 -0.1572
18418W        W37272   9.244   7.578  13.986 -0.2901 -0.0578 -0.0164
18419W        W37273   9.934   0.245  12.720  0.1962 -0.0429 -0.2253
18420W        W37274   5.420   0.742  14.758  0.2381  0.2576  0.1072
18421W        W37275  11.029  17.983  11.900 -0.0520  0.0467 -0.0280
18422W        W37276  15.876   7.082   2.786 -0.5021  0.0040  0.1991
18423W        W37277  10.090   3.776   2.211 -0.0948  0.1624 -0.0148
18424W        W37278   6.784  15.763   0.539 -0.1296  0.0879  0.0471
18425W        W37279   8.107   4.940  13.267 -0.1521  0.1079  0.0492
18426W        W37280   4.614  11.531   4.407  0.0196 -0.1720 -0.0794
18427W        W37281  11.611  16.565   1.202 -0.1063 -0.2520 -0.1799
18428W        W37282  15.954   7.016   1.514 -0.0800  0.2616 -0.2208
18429W        W37283   8.432   9.881  12.199  0.0277 -0.1086  0.2226
18430W        W37284  12.043  11.835   3.398 -0.2085 -0.0010 -0.3129
18431W        W37285  15.259  16.958   1.173 -0.1295 -0.1823  0.0902
18432W        W37286   3.954  10.935   0.265 -0.1720 -0.2266 -0.1470
18433W        W37287  18.074   9.462   2.706  0.0726 -0.3405 -0.1483
18434W        W37288  15.037  12.134   3.947  0.0969 -0.2239 -0.4392
18435W        W37289  12.253  11.347   1.345 -0.2786  0.2305 -0.3046
18436W        W37290   3.058  13.565  12.000  0.1505 -0.0177  0.1425
18437W        W37291  16.240   4.052  14.330 -0.0072 -0.2283 -0.3086
18438W        W37292   9.563  17.610   0.966  0.2019  0.0938 -0.1972
18439W        W37293  16.689   7.069   1.184 -0.2261 -0.2452  0.0736
18440W        W37294  13.197   7.663  14.419 -0.2423 -0.0169  0.0869
18441W        W37295  13.058  11.038   1.597  0.0687  0.1658 -0.1705
18442W        W37296  16.214   8.560   3.243 -0.0779 -0.2368 -0.1007
18443W        W37297   5.680   8.792   2.120  0.2456  0.0939 -0.0725
18444W        W37298  11.211  14.673  13.683 -0.0726  0.1736 -0.0200
18445W        W37299   6.784  18.024   9.754  0.0943  0.1932 -0.1744
18446W        W37300   1.742  11.718   2.401 -0.1413 -0.2134 -0.0505
18447W        W37301   3.517  12.165  12.679 -0.1434  0.0988 -0.1988
18448W        W37302  12.636   9.816   1.227 -0.2128  0.1727 -0.1023
18449W        W37303   7.370   1.385  13.125  0.1134 -0.1804 -0.0106
18450W        W37304   2.808   4.975  12.230 -0.0334  0.1069 -0.0290
18451W        W37305  15.931   2.151  11.416  0.2267  0.3396 -0.1703
18452W        W37306  17.952  11.441   3.391 -0.2070 -0.0899 -0.2755
18453W        W37307   1.607  16.043   3.523  0.1109 -0.4098  0.1505
18454W        W37308  12.611  18.554  11.904  0.4019  0.2568  0.0364
18455W        W37309   6.653  12.781  11.439  0.3022 -0.4658 -0.1557
18456W        W37310   9.237  12.884   2.293  0.4547  0.0229  0.1569
18457W        W37311  18.228  14.970  13.932  0.0717  0.0624  0.0288
18458W        W37312   1.610  14.810   0.747  0.0582 -0.0556  0.1248
18459W        W37313  17.192   6.124  12.517  0.1239  0.1731 -0.0233
18460W        W37314   0.553   7.517  13.173 -0.2447 -0.3955 -0.1100
18461W        W37315   2.721  18.343   0.927 -0.0021 -0.0877  0.0351
18462W        W37316   7.046   1.299  12.259 -0.1831  0.0545  0.0844
18463W        W37317  18.659   8.430  11.909  0.0369  0.0383 -0.2441
18464W        W37318  12.144  16.224   0.021  0.2501  0.1425 -0.0677
18465W        W37319   7.196  16.935  12.766  0.1253 -0.1020 -0.1434
18466W        W37320  16.963   2.896  14.830 -0.0821  0.3886 -0.2544
18467W        W37321  17.355  13.477  11.343  0.2002 -0.5421 -0.1768
18468W        W37322  17.751   8.555  12.264  0.0441  0.1193 -0.0963
18469W        W37323   5.444   5.795  13.302  0.3150  0.0536 -0.0353
18470W        W37324   6.862  17.266  14.517 -0.4275 -0.0836  0.0596
18471W        W37325  13.729   0.118  14.113 -0.0920 -0.0684 -0.1793
18472W        W37326  16.820   1.554  14.351  0.0467 -0.0207  0.1796
18473W        W37327  13.957   5.677   2.131  0.0069  0.0581 -0.0071
18474W        W37328   8.472   1.442  14.324  0.1028  0.3211  0.1170
18475W        W37329  16.204   6.439   1.669  0.0243 -0.0096  0.0283
18476W        W37330   3.575  10.479   5.108 -0.2071 -0.0199 -0.1072
18477W        W37331  14.332  15.331   2.668  0.1426 -0.4929  0.0391
18478W        W37332   7.826  11.554  13.423 -0.0570  0.2776 -0.2377
18479W        W37333  14.787  11.583   4.258  0.1103 -0.1741 -0.2936
18480W        W37334  18.510   5.729   1.082  0.0886  0.1301  0.0581
18481W        W37335   9.641   5.769   0.334 -0.0468 -0.0402  0.2235
18482W        W37336   8.401   0.835   4.844  0.0167  0.1317 -0.1327
18483W        W37337  16.237  13.676  13.081  0.2406  0.1215  0.4049
18484W        W37338  12.977  11.513  14.152  0.1425 -0.0258 -0.0017
18485W        W37339  15.303   5.743  13.847 -0.2867 -0.1690  0.1111
18486W        W37340   0.141  13.560   2.902  0.1369 -0.0414  0.1083
18487W        W37341  18.523   5.632   2.910  0.2250 -0.0717 -0.1029
18488W        W37342   7.344   4.500   1.561 -0.0091 -0.0839  0.1950
18489W        W37343   0.267   0.922   2.471  0.3470  0.0145 -0.2535
18490W        W37344  15.937  14.513   2.578 -0.2283 -0.1271 -0.0487
18491W        W37345   1.068  14.524  13.640 -0.1232  0.3753  0.0617
18492W        W37346  13.454  15.660   0.763  0.0008  0.0892  0.0831
18493W        W37347   8.692  11.022  13.112  0.1209  0.1653 -0.1597
18494W        W37348  11.950  10.118   2.995  0.2189 -0.0737 -0.0509
18495W        W37349   6.851   1.596   1.662 -0.1907  0.2896 -0.2899
18496W        W37350   1.708   0.953  11.742 -0.1651  0.0080  0.0186
18497W        W37351   5.344   1.508  13.062  0.1298  0.1859  0.3939
18498W        W37352   8.285   3.251  11.678  0.4029 -0.0467 -0.1191
18499W        W37353   5.683   4.034  12.652  0.0197  0.1834 -0.1238
18500W        W37354   7.766  18.769  14.725  0.0019 -0.0073  0.0148
18501W        W37355   6.568  15.631   1.082 -0.0022  0.0157 -0.0257
18502W        W37356   2.340   0.430  11.376 -0.4642  0.3767 -0.2352
18503W        W37357  14.871   6.606  14.178  0.0543 -0.0592  0.0604
18504W        W37358   2.271  15.019  11.163 -0.2913 -0.1575 -0.1104
18505W        W37359  14.589   7.064  11.793  0.1911 -0.2034  0.2468
18506W        W37360   9.871  17.103   0.813  0.2393  0.0902 -0.0910
18507W        W37361   8.521   9.726   3.148  0.0862  0.2490 -0.1047
18508W        W37362  15.969  18.566  12.732  0.0025  0.1589  0.2387
18509W        W37363   9.433   1.053   3.652  0.0443  0.1279  0.0405
18510W        W37364   2.632   3.265   0.975  0.0154 -0.0799 -0.0544
18511W        W37365   7.406   4.311   2.876 -0.2282  0.0366  0.0282
18512W        W37366   6.241  13.801  10.252  0.1246  0.0630 -0.1597
18513W        W37367  17.303  14.211   1.847  0.2096 -0.0209  0.7870
18514W        W37368  18.787   3.382   0.216 -0.0374 -0.1019  0.2377
18515W        W37369  14.452   2.592  13.072  0.0219 -0.0795  0.0630
18516W        W37370   0.278  17.256  11.112 -0.3834 -0.0514 -0.0938
18517W        W37371  15.906   2.308  10.814  0.1060 -0.4037 -0.2306
18518W        W37372  18.280   5.771  14.940  0.1779 -0.1274  0.1085
18519W        W37373   2.860   6.154   0.860 -0.4137  0.0228 -0.0425
18520W        W37374  17.685   5.952   4.365 -0.2087  0.0818  0.1291
18521W        W37375  11.858   6.736  11.923 -0.0515  0.3429 -0.2276
18522W        W37376  17.762  14.896   0.422 -0.2815  0.1007 -0.1026
18523W        W37377  13.682   3.653  13.646 -0.1732  0.3393  0.0703
18524W        W37378   2.890  11.099  14.281 -0.2973 -0.0364  0.0128
18525W        W37379  18.215   9.600  13.472 -0.1424  0.1526 -0.0582
18526W        W37380   4.166   3.395   0.758 -0.1803  0.2019  0.1063
18527W        W37381  12.838  14.843   3.451  0.0862 -0.1778 -0.1682
18528W        W37382  14.223  18.792   0.764  0.1050 -0.4276  0.0217
18529W        W37383   5.220  12.810  12.140  0.1337 -0.2747 -0.1416
18530W        W37384   1.541  11.167  13.338 -0.0037  0.1253  0.1885
18531W        W37385   9.941   9.396   5.144 -0.0786  0.0882  0.1492
18532W        W37386   5.465  16.464  10.856 -0.0420 -0.0487 -0.3164
18533W        W37387   3.224  12.022   2.901  0.0153 -0.1459  0.1526
18534W        W37388  11.522   9.034   2.200 -0.0947  0.2366 -0.3429
18535W        W37389   5.482  11.767   3.315  0.0410 -0.2530  0.0581
18536W        W37390   2.294  18.841  12.953  0.2507 -0.0456 -0.2576
18537W        W37391   2.827   4.938   0.849 -0.1538  0.1477 -0.0747
18538W        W37392   8.339   3.911   2.059  0.2947 -0.2365  0.3008
18539W        W37393   2.127   5.853  13.018 -0.5196 -0.3727  0.0679
18540W        W37394   3.291   2.485   9.828  0.2078  0.0600 -0.0324
18541W        W37395  15.512  18.368   4.908  0.1308 -0.1543 -0.1806
18542W        W37396  10.924  13.160   1.972 -0.3869 -0.2779 -0.1246
18543W        W37397   3.940  14.499   4.076 -0.0247 -0.0427  0.1969
18544W        W37398  12.074   1.065   0.707 -0.1645 -0.4883 -0.2234
18545W        W37399   7.459  13.537  12.025  0.2824  0.2005 -0.1015
18546W        W37400  13.772  10.156   2.231  0.2241  0.2304  0.2473
18547W        W37401  11.111   2.861   1.933 -0.1204 -0.0817 -0.3265
18548W        W37402   8.570   2.180  14.242 -0.1230  0.3518 -0.0270
18549W        W37403   7.800   9.494   1.613  0.1121  0.0285  0.0641
18550W        W37404  16.134  10.003  13.327  0.1503 -0.0173  0.1986
18551W        W37405   4.064   0.906  13.053 -0.0172 -0.0552 -0.1734
18552W        W37406  16.160  14.889  14.326 -0.2124 -0.3800 -0.0485
18553W        W37407  12.194  18.157  14.049  0.0394 -0.2140  0.0130
18554W        W37408  17.245  10.915  13.533  0.1105  0.0763 -0.2849
18555W        W37409  12.306   1.909   1.794 -0.1959  0.2774 -0.2953
18556W        W37410   8.975   0.199  14.767  0.0707 -0.0965 -0.0542
18557W        W37411   3.378   8.105  13.459 -0.2511  0.0151  0.1523
18558W        W37412   7.802   2.244   3.229  0.1433 -0.5225  0.3131
18559W        W37413   0.715   8.012   1.372  0.0656  0.1025  0.0515
18560W        W37414  15.698   8.683   0.477 -0.0971 -0.1386  0.1159
18561W        W37415  12.598   3.289   1.004  0.3056 -0.0929  0.1244
18562W        W37416   0.929   7.639   1.034 -0.2980 -0.1676 -0.0900
18563W        W37417   8.476   7.132   1.568  0.2711  0.3833  0.2895
18564W        W37418   0.602   5.350   0.641  0.1710  0.3895  0.0642
18565W        W37419  10.607  11.945  12.657  0.3464 -0.0385  0.2950
18566W        W37420  14.134  10.907  11.886 -0.0375 -0.1403 -0.0106
18567W        W37421  15.522  13.485   1.688 -0.3506 -0.3065 -0.4095
18568W        W37422  16.522  14.699  12.195 -0.1126 -0.0021 -0.1447
18569W        W37423   1.814  13.316  12.230  0.0615 -0.3278  0.0695
18570W        W37424   0.575  13.258   2.756  0.1896  0.2872  0.2062
18571W        W37425  11.807  12.882  11.522  0.1365 -0.1305 -0.0549
18572W        W37426  16.475  15.208  13.457  0.0961 -0.0550 -0.1678
18573W        W37427  15.901  12.072  10.988  0.0753 -0.1176 -0.0036
18574W        W37428   7.283   3.119   3.075  0.0729  0.0612  0.1091
18575W        W37429  11.777   8.856   0.629 -0.2600  0.1463  0.1893
18576W        W37430  17.524   6.885  14.360  0.0274  0.3521 -0.0676
18577W        W37431   8.493  17.133  11.628 -0.0281 -0.3201 -0.1964
18578W        W37432  16.664   6.788  12.734 -0.2814  0.2390  0.1262
18579W        W37433  15.791  13.264   0.049  0.0326 -0.1106  0.2262
18580W        W37434  12.803   5.310  13.462  0.0656  0.0004  0.0786
18581W        W37435   5.169   0.073  12.175  0.0814 -0.2786 -0.0590
18582W        W37436   4.841  13.963   3.902  0.0013 -0.3064  0.0379
18583W        W37437  12.003   4.806  11.442  0.0656  0.1515  0.1110
18584W        W37438   1.933   3.629  10.375  0.1842  0.1223  0.0658
18585W        W37439  15.785   0.629   1.906  0.2835  0.0724  0.1089
18586W        W37440   9.942  15.015  14.250 -0.0415 -0.1496 -0.0012
18587W        W37441  12.753   0.034   3.467  0.0247  0.3822 -0.1913
18588W        W37442  12.361  15.946   4.114  0.2074 -0.0114  0.0698
18589W        W37443   1.244  11.464   9.938 -0.3396  0.2817  0.0388
18590W        W37444   5.487   9.440   3.112  0.2790 -0.1433  0.1310
18591W        W37445  12.160  13.394  11.789 -0.0703 -0.1304  0.3176
18592W        W37446   7.411  16.317  12.007 -0.1290 -0.0507 -0.0814
18593W        W37447  13.907  14.525  13.768 -0.1291 -0.2994  0.2687
18594W        W37448  11.447   2.979   3.885  0.2252  0.2594  0.0824
18595W        W37449  13.773  16.064  14.763  0.0302  0.0864  0.0645
18596W        W37450  14.818   3.064  12.633  0.0283 -0.4178  0.0014
18597W        W37451   7.575  11.628  11.374  0.3507 -0.4070  0.2042
18598W        W37452  15.164   8.181   1.661  0.1354  0.2437  0.2103
18599W        W37453  17.106   6.156  10.272 -0.0889  0.1585  0.2027
18600W        W37454  15.592  10.716  14.382  0.0737  0.1505 -0.0676
18601W        W37455   2.530   2.250  14.471 -0.3017  0.1330  0.0997
18602W        W37456   9.691   5.929   4.124 -0.0225 -0.0115  0.0252
18603W        W37457  17.226  12.110  15.088 -0.1602 -0.1672  0.3839
18604W        W37458  16.670   5.208   9.512  0.1000  0.1916 -0.1265
18605W        W37459  11.600  15.733   3.781  0.1751  0.0379  0.1491
18606W        W37460   2.971  18.347   1.873 -0.1450 -0.0256  0.0810
18607W        W37461  14.178  15.755  14.310 -0.3204 -0.1641 -0.0886
18608W        W37462   3.533   0.385  13.493  0.0515 -0.0329  0.1395
18609W        W37463  10.535   2.841   0.895 -0.3229 -0.1195 -0.0887
18610W        W37464   7.561   9.279   1.220 -0.0976  0.0059  0.0256
18611W        W37465   7.382  11.488   1.141 -0.1675 -0.3004  0.1608
18612W        W37466  10.276   5.537   1.019  0.4022  0.0317 -0.1149
18613W        W37467   0.021   4.211   2.040 -0.0167  0.1150  0.0740
18614W        W37468  17.473  10.666   1.512 -0.1437 -0.1490 -0.0205
18615W        W37469   2.494  16.305  14.523  0.2371  0.1443  0.0667
18616W        W37470   5.242  14.457   0.368  0.0569  0.1861 -0.1263
18617W        W37471  15.920  14.672  12.284  0.0571  0.1152  0.2726
18618W        W37472   7.016  12.088   1.674  0.2183  0.2515 -0.2222
18619W        W37473   5.087   7.730  10.671 -0.0521  0.0434  0.1296
18620W        W37474   0.488   0.430   0.894  0.2567 -0.3672  0.1869
18621W        W37475   7.036  15.813  13.971 -0.0180 -0.1789  0.1285
18622W        W37476  17.878  12.431  12.958  0.0775  0.4119  0.0578
18623W        W37477   0.943  14.718  13.173 -0.1215  0.0735  0.2074
18624W        W37478   8.697  15.728   1.129 -0.1989 -0.1224  0.0415
18625W        W37479   8.034  13.320   1.180  0.0180 -0.0710  0.2010
18626W        W37480  11.884   0.599   4.284  0.1265 -0.0330 -0.0278
18627W        W37481   3.387   8.072  14.899 -0.0272  0.0316  0.3473
18628W        W37482   3.716  18.101   3.669 -0.0249 -0.2261  0.3827
18629W        W37483   1.790   0.869  14.280 -0.0773 -0.0577  0.0344
18630W        W37484   6.398   0.340   4.553 -0.2018 -0.1349 -0.0148
18631W        W37485   4.580   8.267   3.271 -0.2405 -0.1025  0.1445
18632W        W37486   5.596  13.355  10.602  0.2451  0.0194  0.1204
18633W        W37487  13.965  16.037   0.103 -0.2072 -0.3342  0.4212
18634W        W37488  14.899   0.644   3.554  0.1719  0.2133 -0.2021
18635W        W37489  18.312   4.106  10.635  0.1364  0.6031 -0.0047
18636W        W37490  11.512  10.256   0.076 -0.3783  0.0119  0.0505
18637W        W37491   7.290  17.095   4.236 -0.2309  0.1539  0.1084
18638W        W37492   5.974  16.527  12.414  0.1886 -0.1169  0.1077
18639W        W37493   0.897   5.196  13.032  0.1806  0.1355  0.1066
18640W        W37494   2.040  11.320  14.198 -0.2948 -0.2587 -0.1318
18641W        W37495   1.887   9.658   1.914  0.0433 -0.5328  0.1390
18642W        W37496   6.461   0.545   0.772 -0.1420 -0.1524  0.1269
18643W        W37497   3.646   0.673   2.565  0.3043 -0.3162 -0.1675
18644W        W37498  10.272  13.652  13.386 -0.1481  0.2741 -0.1348
18645W        W37499  14.544  15.905  11.210 -0.0381  0.0102  0.2566
18646W        W37500  14.070  14.298   3.022 -0.0486  0.1552 -0.0001
18647W        W37501   4.058  10.527  12.738  0.0591  0.1196 -0.2076
18648W        W37502   1.590  16.027   3.028 -0.0138 -0.1304  0.0575
18649W        W37503  18.360   7.911   2.716 -0.1028 -0.2011 -0.4641
18650W        W37504   5.014   3.425  14.134 -0.0387 -0.0559 -0.0661
18651W        W37505  14.485  10.707   4.711  0.3427  0.0213 -0.1335
18652W        W37506   5.586  12.429   2.733 -0.0485 -0.2058 -0.2883
18653W        W37507   1.961  17.026  14.824 -0.0618  0.0779  0.2003
18654W        W37508   2.861  11.348  12.431  0.3325  0.2170  0.1488
18655W        W37509   1.328   4.977   2.936 -0.3622 -0.0798 -0.1384
18656W        W37510   5.349   1.524   4.006  0.1385 -0.1665  0.2568
18657W        W37511   1.009   0.209  11.470  0.1171  0.2317 -0.2466
18658W        W37512   2.228   9.321   2.321 -0.2805  0.0982 -0.1714
18659W        W37513   1.510   9.690   3.554 -0.0633  0.1933  0.3861
18660W        W37514   0.724   1.757  14.754  0.2649  0.1456  0.1772
18661W        W37515   2.372  17.022  12.453  0.2783  0.1704  0.4473
18662W        W37516  14.154   2.669  10.515 -0.0533 -0.0191 -0.0692
18663W        W37517   5.445   2.419   1.999  0.0640 -0.1254 -0.0677
18664W        W37518   3.089  10.559  13.858  0.1044  0.1607 -0.0646
18665W        W37519   8.009   3.571  12.003  0.0595 -0.1327 -0.0605
18666W        W37520  16.508   2.923   2.394  0.1308  0.0939  0.1814
18667W        W37521   6.784   6.271   0.829 -0.0005  0.1823  0.0532
18668W        W37522  14.375   5.065  12.885 -0.2186 -0.0141 -0.0156
18669W        W37523   6.505   7.596  13.421 -0.1042  0.0567  0.1288
18670W        W37524   0.338  17.082   2.904  0.2186  0.0075 -0.2497
18671W        W37525   0.635   9.419  12.406 -0.1430 -0.2394  0.0743
18672W        W37526  10.117   6.464   4.155  0.2429 -0.0839 -0.0147
18673W        W37527   6.309   7.364   5.704 -0.0324 -0.3612 -0.3825
18674W        W37528   3.560  15.315  13.546 -0.0635 -0.2124 -0.2643
18675W        W37529   7.166  10.922  13.718  0.2398 -0.0014  0.1342
18676W        W37530   0.810  16.973  14.315  0.0013 -0.1913 -0.3676
18677W        W37531  13.797  12.337   1.845 -0.0412 -0.0664 -0.1757
18678W        W37532  10.950  18.122   3.433 -0.3123 -0.1553  0.0910
18679W        W37533   8.084   9.426   2.995  0.1612 -0.2570 -0.1596
18680W        W37534   1.432   7.619   3.959 -0.0860 -0.1121 -0.2294
18681W        W37535   8.207  16.567   0.883  0.4479  0.2407 -0.2692
18682W        W37536   7.210  13.243  11.483  0.2945 -0.0701 -0.0996
18683W        W37537  10.755   3.676   0.322  0.0567 -0.2301 -0.1273
18684W        W37538  10.049   5.490   2.629  0.0110 -0.1445 -0.0806
18685W        W37539  14.176   0.167   1.277  0.2612 -0.0769  0.0404
18686W        W37540   5.172  10.868   4.067  0.0491 -0.0898  0.2608
18687W        W37541   9.566   0.363   4.193 -0.2612 -0.1068 -0.2183
18688W        W37542   9.264   1.492  14.790  0.1258  0.2621  0.1313
18689W        W37543   6.825   3.778  13.900  0.0329 -0.2448  0.1406
18690W        W37544   1.256  12.966  13.117  0.1317 -0.2690  0.0045
18691W        W37545  16.509   9.691  13.831 -0.4877  0.1005  0.1080
18692W        W37546  14.531   6.250  12.009 -0.0417 -0.2185 -0.0109
18693W        W37547   1.401  15.262  12.565 -0.1102  0.1407  0.0999
18694W        W37548   9.688   3.884  10.066  0.3188 -0.0934 -0.0477
18695W        W37549   1.982  16.433   1.192  0.0576 -0.1073  0.3546
18696W        W37550   3.000  13.600  14.208 -0.1397  0.1454  0.1370
18697W        W37551  12.126  16.479   1.415  0.0165 -0.0701 -0.1267
18698W        W37552   7.207   1.615  10.942 -0.0322  0.3585 -0.2329
18699W        W37553  11.695   1.175  13.062 -0.3157 -0.2174  0.0573
18700W        W37554  11.942   2.074   2.761 -0.0348 -0.0272  0.2473
18701W        W37555  15.615  14.789  14.439  0.1920 -0.2046  0.0820
18702W        W37556   1.717  14.862  14.005  0.0707  0.2017  0.0214
18703W        W37557  17.200   0.615  14.565 -0.1997 -0.0526  0.0829
18704W        W37558  15.677  14.915   3.839 -0.0477  0.2120  0.0065
18705W        W37559  17.301  11.312  13.139  0.1005  0.2830  0.0325
18706W        W37560   0.334   0.445   2.949  0.0569 -0.2085 -0.1455
18707W        W37561   2.585   0.974   3.929  0.0466 -0.0518 -0.2467
18708W        W37562  14.628  13.646  12.000 -0.0669  0.0892 -0.0840
18709W        W37563  15.020   3.076  11.807  0.1834 -0.0476 -0.1446
18710W        W37564   8.747  11.808   4.112 -0.0830  0.0947 -0.0787
18711W        W37565   1.931  10.679  13.158  0.0372 -0.0399  0.2364
18712W        W37566   7.225   5.542  12.625  0.2533  0.0408  0.3662
18713W        W37567   8.550  10.681   9.865  0.6106 -0.0649 -0.2112
18714W        W37568   1.685  14.192   3.919  0.0491 -0.1159 -0.2206
18715W        W37569  12.751   6.394   2.395 -0.6091  0.1622  0.0448
18716W        W37570  17.009   5.937   0.232  0.2988  0.2898 -0.1377
18717W        W37571   4.871  12.092   0.391 -0.2567  0.1688  0.2385
18718W        W37572  12.835  16.124  10.622  0.0977 -0.5978 -0.0346
18719W        W37573   4.233   9.143   2.036 -0.2384 -0.0103  0.0055
18720W        W37574  11.054  10.310  14.928 -0.1765  0.0063 -0.0870
18721W        W37575   8.426  17.324   1.722  0.4737  0.2700 -0.2313
18722W        W37576   4.426  13.168  14.764  0.2907  0.2187  0.1511
18723W        W37577   7.718   1.619  10.682  0.1929 -0.0818 -0.0514
18724W        W37578   8.597   4.443   2.127  0.3480 -0.1215  0.1047
18725W        W37579   9.836   0.929  11.321  0.2181 -0.2957 -0.1058
18726W        W37580   0.158   4.381  14.137 -0.2852 -0.0734 -0.0736
18727W        W37581  13.412   5.077   0.050 -0.0454  0.3001 -0.4443
18728W        W37582  17.231  10.963  10.469  0.3568 -0.2045  0.0637
18729W        W37583   9.962   9.215  13.719  0.2327 -0.1315 -0.0837
18730W        W37584  12.719   7.118   0.481 -0.5447  0.0014  0.1566
18731W        W37585   3.967  16.003   2.850 -0.4393  0.0649 -0.1614
18732W        W37586  12.846   5.699  12.122  0.1051  0.1132  0.0747
18733W        W37587   8.692   5.113  12.637  0.0924  0.3096  0.0227
18734W        W37588  11.366   5.032  14.155 -0.2001 -0.1814 -0.1341
18735W        W37589  13.347   5.441   4.626 -0.3441 -0.1756  0.2813
18736W        W37590   8.362  16.389   0.249 -0.0606 -0.0527 -0.1172
18737W        W37591  11.485  14.835   2.108  0.1956  0.2505  0.3529
18738W        W37592   3.874   6.828  13.960  0.2863  0.2473 -0.1322
18739W        W37593  14.126   9.468   4.040 -0.2681 -0.2222  0.0687
18740W        W37594  11.509  15.531  12.384 -0.2242  0.2143 -0.1649
18741W        W37595  15.571  16.139  12.945  0.0542 -0.0590 -0.0109
18742W        W37596   9.133   0.339   4.411  0.0549 -0.1669 -0.0920
18743W        W37597  11.462   6.929  10.022 -0.3784  0.0560  0.1074
18744W        W37598  12.889   3.227   3.424  0.1226 -0.0964 -0.0315
18745W        W37599   0.076   3.882  15.108  0.2575  0.3339 -0.2363
18746W        W37600   0.403  18.032   1.746 -0.0940  0.3315  0.2874
18747W        W37601  12.335  18.477   1.765 -0.0827 -0.3187 -0.3691
18748W        W37602  17.896   0.761  15.021 -0.0508 -0.0932  0.2065
18749W        W37603  10.059  15.474  14.501 -0.1448 -0.2229 -0.0815
18750W        W37604  14.848  12.835   1.781 -0.1466  0.2026 -0.1154
18751W        W37605   0.491  18.465  15.074  0.2928 -0.1755  0.1480
18752W        W37606  11.940  13.897  13.075 -0.1723  0.1054  0.0285
18753W        W37607  14.941  15.345  11.860 -0.3845  0.2423 -0.1012
18754W        W37608   4.514  18.029   3.761  0.0365  0.1041 -0.1718
18755W        W37609  14.756  15.170   0.872  0.2969 -0.2855  0.2645
18756W        W37610  17.466   3.536   3.314 -0.0664 -0.0857 -0.1232
18757W        W37611  12.129   8.303   0.105  0.0824  0.0867 -0.4372
18758W        W37612  17.168  18.026  14.741 -0.2342  0.0083  0.3535
18759W        W37613   9.961   0.590   4.487 -0.1866 -0.2424  0.2839
18760W        W37614   0.865   1.284  11.004  0.3675  0.0793  0.2100
18761W        W37615  17.593  11.868  14.824 -0.0781 -0.3330 -0.2333
18762W        W37616   4.310  10.961   3.750  0.0130 -0.2873  0.0727
18763W        W37617   6.511  12.291   3.540  0.3120  0.3200 -0.1584
18764W        W37618   3.660  18.103   1.310 -0.0157 -0.1188  0.0998
18765W        W37619  14.969   2.772   4.015  0.0187  0.1465  0.1377
18766W        W37620  13.719   4.400   1.354  0.0902 -0.1546  0.3409
18767W        W37621   0.596  15.091  11.991 -0.1155 -0.2555  0.2786
18768W        W37622   2.298   3.310  10.067  0.0370 -0.0225 -0.0779
18769W        W37623  12.127   4.476   2.875 -0.0377 -0.3911 -0.3372
18770W        W37624   5.757  17.334  13.775 -0.1932  0.0415 -0.1212
18771W        W37625   9.279  13.352  12.811 -0.0620  0.0200 -0.0577
18772W        W37626   8.791  11.342  11.510  0.0054 -0.1882 -0.2236
18773W        W37627  16.239  13.001   0.153 -0.0732 -0.1673  0.0851
18774W        W37628   8.322   3.921   3.596 -0.0675  0.2394  0.1226
18775W        W37629  17.385   7.328  11.714 -0.0117 -0.2590  0.1424
18776W        W37630   2.898   2.452  11.552 -0.0272 -0.2198  0.0364
18777W        W37631   5.300   8.608  14.740  0.0808 -0.1220  0.2126
18778W        W37632  16.981  15.053   2.418  0.0421  0.0169 -0.2486
18779W        W37633  18.823   8.946   4.650 -0.1343  0.1989  0.0313
18780W        W37634  10.901  10.968   0.461 -0.3324  0.2081 -0.1015
18781W        W37635   7.018  13.594   2.861  0.1318 -0.1090 -0.1021
18782W        W37636  10.414  17.902   0.588  0.4211 -0.1408 -0.2171
18783W        W37637  10.468   3.923  15.037 -0.0615 -0.0159 -0.1756
18784W        W37638  15.858  17.354   1.416  0.0044 -0.3910  0.2306
18785W        W37639  11.770   6.216  12.215 -0.1733 -0.1122 -0.0942
18786W        W37640   0.136   9.572   1.299  0.2875 -0.3297 -0.1075
18787W        W37641  13.237  17.763   2.017 -0.1616 -0.1096  0.1307
18788W        W37642   5.179  15.323  13.701  0.1477  0.0847 -0.2402
18789W        W37643  14.158   9.078  13.789 -0.0592 -0.3250  0.1243
18790W        W37644   1.226  13.839   3.786  0.3162 -0.0625  0.2002
18791W        W37645  18.051   2.674  12.583  0.0295 -0.0137 -0.1875
18792W        W37646   6.514   8.472   1.961 -0.2953 -0.1014  0.0169
18793W        W37647   6.569  17.493   3.774  0.1700 -0.0160  0.1547
18794W        W37648  12.319  17.605   3.277  0.0835  0.0547 -0.3337
18795W        W37649   9.790  13.879   0.062  0.2346 -0.0256 -0.0323
18796W        W37650  16.324   0.978  13.160 -0.0214 -0.1390  0.0023
18797W        W37651   2.891  14.647  13.342  0.0242 -0.1971 -0.0003
18798W        W37652   5.052  13.579  12.676  0.5069  0.1939  0.2952
18799W        W37653  13.928  12.063   9.746 -0.0300 -0.1624 -0.5050
18800W        W37654   0.684   1.191   0.717  0.4408  0.4507  0.1851
18801W        W37655   9.890   3.341  14.701  0.2758  0.0845  0.0872
18802W        W37656  17.191  14.210  12.221  0.0248 -0.0911 -0.4843
18803W        W37657   4.441  10.799   0.298  0.0340 -0.2899 -0.0438
18804W        W37658  13.906  17.379   4.405 -0.1537  0.0783 -0.0172
18805W        W37659  15.384   7.878   3.252  0.0497  0.1499  0.0070
18806W        W37660   5.659   2.328   3.926  0.2095 -0.0889 -0.0946
18807W        W37661  16.469   5.064  11.112  0.2769 -0.0515 -0.2122
18808W        W37662  16.599  14.050   3.162 -0.0117 -0.1951  0.1422
18809W        W37663   5.466  16.046   5.391 -0.1084  0.1913  0.0823
18810W        W37664   4.336  13.003   2.096  0.0778 -0.1514  0.0812
18811W        W37665   2.237  10.843  12.780 -0.0516 -0.2411 -0.1726
18812W        W37666  10.831   6.755  11.073  0.1820 -0.1424  0.3600
18813W        W37667   2.869  14.369   2.644 -0.1425 -0.1011 -0.1197
18814W        W37668   3.677  15.856  12.363 -0.1173 -0.2141 -0.1587
18815W        W37669   3.609   6.643   2.191 -0.0770 -0.0079 -0.0006
18816W        W37670  13.392   0.419  13.594 -0.0656  0.0465  0.2121
18817W        W37671  17.934   7.703   3.647  0.4762  0.2048  0.3389
18818W        W37672   0.052  10.015  14.837  0.3551 -0.0433  0.1444
18819W        W37673   2.584   4.314  12.459  0.1102 -0.0300 -0.1983
18820W        W37674   1.213   2.695  11.261 -0.2964 -0.2961  0.3075
18821W        W37675  16.299  16.252   3.873  0.1439  0.0349 -0.0097
18822W        W37676  17.767   8.221   3.493 -0.3399 -0.1844  0.0145
18823W        W37677   7.218  13.074   1.331  0.1653  0.2536 -0.1201
18824W        W37678  10.381   6.940  10.846  0.0303  0.3173 -0.1499
18825W        W37679   9.085  16.044  12.096 -0.1927 -0.0995 -0.0886
18826W        W37680   0.601  17.451   0.617  0.2857 -0.2019  0.1249
18827W        W37681   7.850   1.483  12.254  0.3409  0.0053 -0.1589
18828W        W37682   5.632   1.689  13.403 -0.1048 -0.2681  0.0825
18829W        W37683  18.130   1.299   2.111  0.1189  0.0987  0.1230
18830W        W37684   5.797  13.711  14.898 -0.1371 -0.0313  0.2417
18831W        W37685  12.955  10.619   2.074 -0.0541 -0.2194  0.0800
18832W        W37686   4.960   4.183   3.534 -0.3968  0.0812 -0.1280
18833W        W37687   6.501   2.661   4.258  0.0549 -0.1996 -0.0253
18834W        W37688   5.085  13.804  10.611  0.0059  0.0607  0.1694
18835W        W37689   6.525   0.811   1.400 -0.6031  0.5834 -0.0695
18836W        W37690   8.926  18.529   1.270  0.0596  0.0842 -0.2862
18837W        W37691  16.023  16.540  12.543 -0.1074 -0.0260  0.1042
18838W        W37692   8.954   7.444  11.254 -0.1617  0.3491 -0.2271
18839W        W37693   3.440  14.016   0.302 -0.5782 -0.0380  0.1032
18840W        W37694  15.426  16.372  14.758  0.0645 -0.1277 -0.0967
18841W        W37695   4.372  12.822  11.854  0.2066  0.1851 -0.1863
18842W        W37696   0.342   5.224  11.556  0.1748  0.3039 -0.0909
18843W        W37697   7.831   3.667  13.555  0.0319  0.2543 -0.0744
18844W        W37698   1.867  14.879  11.876  0.1583  0.0789 -0.2542
18845W        W37699   3.454   1.846  14.699 -0.0278 -0.1237 -0.0387
18846W        W37700  15.366  17.348   4.398  0.2867  0.2677  0.2192
18847W        W37701  16.678   5.296  11.559 -0.2947 -0.0614  0.0717
18848W        W37702   9.460   1.862  10.575 -0.0072  0.1228 -0.2583
18849W        W37703   6.746   0.370   3.194  0.0061  0.0892 -0.1235
18850W        W37704  14.943  11.229  12.822  0.0599  0.2028  0.1026
18851W        W37705   9.650   6.944   1.911  0.1498  0.1675  0.0831
18852W        W37706   9.991  16.765  14.886 -0.1565 -0.3266  0.1774
18853W        W37707   0.132   1.777   1.870 -0.0745  0.3363  0.0595
18854W        W37708  18.084   7.644  14.367 -0.1081  0.1278  0.0508
18855W        W37709   6.658   5.869  13.922  0.0410  0.0969  0.2158
18856W        W37710   0.737  11.104  12.488 -0.1628 -0.0116  0.1311
18857W        W37711   2.194   0.115  10.961  0.2497 -0.1381  0.3400
18858W        W37712  17.391   0.154   4.142 -0.0077  0.0548  0.1140
18859W        W37713   5.814  15.095  15.099  0.0021  0.0506  0.0480
18860W        W37714   5.425   0.599   1.787  0.1514  0.0554 -0.1673
18861W        W37715   8.495   0.076   0.233  0.3614  0.0331  0.1449
18862W        W37716  11.584  15.721   1.621 -0.0576  0.0116 -0.1531
18863W        W37717   7.367   9.850  12.610 -0.1832 -0.0678 -0.0855
18864W        W37718   2.605  14.432   4.456 -0.2387 -0.1546 -0.3228
18865W        W37719  13.340  14.925  14.778  0.1441  0.1870  0.1694
18866W        W37720   5.377   0.180   2.915  0.1746 -0.2471  0.0613
18867W        W37721   8.257  17.722  12.229  0.0480  0.2336  0.1276
18868W        W37722   7.296  14.134   3.300 -0.2127 -0.4926  0.2532
18869W        W37723   6.280  13.066  13.971 -0.2249 -0.1211  0.3120
18870W        W37724   2.483   1.634  14.560  0.2240  0.1538  0.1569
18871W        W37725   7.944   2.018  13.737 -0.2626 -0.1062  0.3572
18872W        W37726  16.638  10.225  12.612  0.0961  0.1753  0.0967
18873W        W37727   4.469   7.488   4.112 -0.1976  0.1439  0.3054
18874W        W37728  17.510   6.261   0.107  0.1151  0.1472  0.1298
18875W        W37729  18.105   6.337  12.345 -0.0945  0.1076 -0.1665
18876W        W37730  10.890  15.881  10.532  0.1572  0.0088 -0.1624
18877W        W37731  18.244  18.835   1.741  0.2388  0.1693  0.3641
18878W        W37732   6.882  18.405  14.524  0.0963  0.2266 -0.1071
18879W        W37733  12.763  13.530  12.936  0.0805 -0.2414 -0.1931
18880W        W37734   1.406  14.343   0.839  0.0548 -0.0713  0.2748
18881W        W37735   3.789  18.056  13.195  0.0549  0.1742  0.1592
18882W        W37736  10.444   4.619   3.839  0.0690  0.2435  0.0415
18883W        W37737   8.329   2.699  14.445  0.0112  0.1359  0.1810
18884W        W37738   0.268   1.378  12.873 -0.0689  0.0963  0.1993
18885W        W37739  16.581   4.274   2.231 -0.0995  0.3415  0.5102
18886W        W37740   1.083   2.235  11.391 -0.1023 -0.2439 -0.1219
18887W        W37741   4.351   4.013  13.171 -0.0844  0.3769  0.0295
18888W        W37742   0.833   2.493   2.780  0.2456 -0.1226 -0.1275
18889W        W37743   4.431   3.666  14.971 -0.2073  0.0821 -0.2330
18890W        W37744   7.669  10.359   1.726 -0.2707  0.1917  0.1430
18891W        W37745   3.740   6.906   1.631 -0.1134  0.0113 -0.0321
18892W        W37746   6.101   4.501  11.780 -0.1075 -0.1380 -0.1666
18893W        W37747  18.253   8.742   0.736  0.1600  0.2242  0.0473
18894W        W37748  16.180   8.176   0.018  0.1612 -0.0113  0.1102
18895W        W37749   2.208   6.840   1.717  0.1889  0.3863 -0.3974
18896W        W37750   7.590  10.557  14.631 -0.2583  0.0846 -0.1548
18897W        W37751  14.907  11.021   1.001 -0.0876 -0.3494  0.1563
18898W        W37752   6.864   5.680  11.050  0.3914  0.2185 -0.3270
18899W        W37753  14.077  12.977   0.628 -0.0940 -0.1402 -0.2604
18900W        W37754  16.966  14.408   0.986 -0.0281 -0.2492 -0.0515
18901W        W37755   8.168  15.737  11.974  0.0090  0.1583 -0.2845
18902W        W37756   1.988  16.343  13.036 -0.2578  0.1110  0.1380
18903W        W37757  15.009   4.456   0.720  0.2816 -0.0564  0.0591
18904W        W37758   7.421  10.282  15.062 -0.1342  0.2105 -0.0346
18905W        W37759   0.246   2.407  13.873 -0.1993  0.0713  0.1026
18906W        W37760  15.841  11.272   2.508 -0.2001 -0.0565 -0.1039
18907W        W37761  10.943  16.477   2.635  0.1416  0.2820 -0.1430
18908W        W37762   6.166   5.012  11.520  0.0198 -0.3608 -0.1504
18909W        W37763  15.897   8.677   0.916 -0.1458 -0.1094  0.0127
18910W        W37764  10.002   4.230  14.758  0.0989  0.3713 -0.0970
18911W        W37765  11.109   0.193  13.600 -0.1363  0.1162  0.1802
18912W        W37766   4.353   9.351   9.853 -0.2806 -0.0748 -0.0487
18913W        W37767  11.324   8.849  11.589  0.0496 -0.0898  0.0186
18914W        W37768  15.626   7.969   2.011  0.0301 -0.1793  0.0653
18915W        W37769  17.390   8.596   0.845 -0.0715  0.0853  0.2115
18916W        W37770   3.073   6.461  14.075  0.0953  0.4079 -0.0745
18917W        W37771   8.157  13.903   4.308 -0.0414 -0.1121 -0.0327
18918W        W37772  11.982  14.490   1.458 -0.0888  0.1610  0.2492
18919W        W37773   1.785  17.243   2.838 -0.2754  0.1234  0.1525
18920W        W37774  13.681   3.679  14.713 -0.0398 -0.2938  0.2103
18921W        W37775   9.710   5.088  14.432 -0.3600  0.0015  0.1750
18922W        W37776   8.149   3.415   2.782  0.0487  0.0712  0.1967
18923W        W37777  17.868   0.466   5.167 -0.0038 -0.0530 -0.3176
18924W        W37778   0.388   1.171   0.023 -0.0092  0.0680 -0.0215
18925W        W37779  10.932   4.871   1.078 -0.2122  0.3938  0.0023
18926W        W37780   4.219   3.197   4.304 -0.1695 -0.2639  0.2641
18927W        W37781   5.483   0.440  11.999 -0.2576  0.1663 -0.2677
18928W        W37782   0.545   2.203  12.398 -0.2731 -0.0850  0.4116
18929W        W37783   4.635  15.348   3.741 -0.2184 -0.1979 -0.2765
18930W        W37784  12.639   2.876  11.367 -0.0264 -0.0661  0.1013
18931W        W37785   5.356   0.667   4.197 -0.2505 -0.0767 -0.0155
18932W        W37786   4.684   0.815  14.220 -0.1740 -0.1501  0.4043
18933W        W37787  13.107   1.735  13.890 -0.1911 -0.0224 -0.0562
18934W        W37788  16.876  10.461  11.623 -0.0770  0.1015  0.1809
18935W        W37789   4.698  13.426   3.669  0.2970 -0.0173 -0.2536
18936W        W37790  11.405  13.158   1.804  0.1086  0.0781 -0.0064
18937W        W37791  13.507  17.569  10.948 -0.2966  0.0860 -0.0342
18938W        W37792  12.550  15.464   4.855 -0.2166  0.2374  0.0715
18939W        W37793   0.658  15.586   2.424 -0.3977  0.1221  0.0927
18940W        W37794   9.494  16.508   3.635 -0.4221 -0.0548 -0.2162
18941W        W37795   0.907   5.103   1.103  0.0589 -0.0220 -0.1505
18942W        W37796   9.591   8.649   0.717  0.2775  0.2348 -0.0721
18943W        W37797   0.976  15.175  12.262 -0.0310  0.0160 -0.2417
18944W        W37798  16.965   4.591   0.113  0.0443  0.2564 -0.3382
18945W        W37799   9.446   9.151  11.600 -0.1784  0.1232 -0.2694
18946W        W37800  16.590   0.255  15.037 -0.1617  0.3155 -0.2832
18947W        W37801  13.855  12.985   2.564 -0.0547 -0.1771 -0.2660
18948W        W37802   9.213  16.288  13.949 -0.0502 -0.2427  0.2109
18949W        W37803  13.175   4.438  13.600  0.0517 -0.3229  0.0446
18950W        W37804   0.022  11.468  10.354 -0.0661  0.2317 -0.2928
18951W        W37805  15.368   8.378   0.753 -0.0997 -0.0837 -0.1255
18952W        W37806   8.950   7.773   1.110 -0.2875  0.0635  0.0157
18953W        W37807   2.982   4.418   4.936 -0.0052 -0.4952 -0.1729
18954W        W37808  11.079   8.131   1.326  0.3619  0.2012  0.2299
18955W        W37809   1.349   6.367   0.744  0.1272 -0.1206  0.3638
18956W        W37810   1.643  16.045  15.089  0.1005  0.1596 -0.0131
18957W        W37811  11.193   7.288  11.506  0.1898 -0.0767 -0.0743
18958W        W37812   9.842  10.902  14.079  0.2715  0.1165  0.1592
18959W        W37813  10.858   8.022   2.697 -0.1347  0.2957 -0.1634
18960W        W37814   5.597  12.055  14.074  0.0189  0.2985  0.0790
18961W        W37815   3.328   3.605   2.684 -0.1705 -0.1576  0.0324
18962W        W37816   5.191   7.320  10.279 -0.0881 -0.1174  0.2013
18963W        W37817   8.902   2.525   0.522 -0.3265  0.0568  0.1949
18964W        W37818  17.294  12.543  12.974  0.0147 -0.1463  0.1844
18965W        W37819  14.890   7.597  14.944 -0.2661 -0.1721  0.2374
18966W        W37820   3.728   3.062  14.950  0.2550 -0.2065  0.1595
18967W        W37821   3.766   8.537   2.429 -0.0485  0.1414 -0.0567
18968W        W37822   5.197   5.102  12.841  0.2571  0.2398  0.2806
18969W        W37823   2.851  12.580   1.485 -0.0586 -0.1179  0.1227
18970W        W37824   2.607   1.478  11.392  0.1701  0.2335 -0.1684
18971W        W37825   7.448  10.755   2.032 -0.2333 -0.0255  0.0567
18972W        W37826   0.400   7.739   4.501 -0.2263  0.0653 -0.0817
18973W        W37827   3.355   3.042  13.380  0.0358  0.0198 -0.2300
18974W        W37828  11.592   5.195  13.572 -0.1152  0.1542  0.1766
18975W        W37829  12.189   9.948  15.017 -0.2252  0.2254 -0.0419
18976W        W37830  18.792   9.428  11.148 -0.1028  0.1196  0.0627
18977W        W37831   7.184  13.508  12.936 -0.0394  0.1704 -0.1815
18978W        W37832   6.611   3.814   1.456 -0.0337  0.0601  0.3295
18979W        W37833   3.005   3.554   3.778 -0.3102  0.1336  0.3531
18980W        W37834  13.770   6.909   3.074 -0.0652 -0.2426 -0.0431
18981W        W37835   2.128   9.049  12.670  0.0639 -0.1732 -0.0041
18982W        W37836  16.539  18.817  13.043  0.2224  0.3551 -0.1907
18983W        W37837  13.250   4.418   0.150  0.2616 -0.4603  0.0925
18984W        W37838   7.028  18.000   0.377 -0.1746 -0.1938  0.0839
18985W        W37839   6.060  17.787   3.162  0.2054  0.0455 -0.3228
18986W        W37840  10.059   9.735   1.712  0.2733  0.1435  0.2008
18987W        W37841   7.425   4.193   1.072 -0.0161  0.1893 -0.0901
18988W        W37842   2.787   6.318   0.296  0.1655  0.2067 -0.2953
18989W        W37843  18.472  17.433  12.757 -0.3320  0.0623  0.4384
18990W        W37844  11.356   8.639   3.107  0.2083 -0.1038 -0.0730
18991W        W37845  14.772  10.760  14.734 -0.0052  0.0976  0.2158
18992W        W37846   8.962  13.115   3.924 -0.1207  0.1431  0.0064
18993W        W37847   2.361  10.742   9.628  0.2182 -0.1325 -0.1874
18994W        W37848  18.785   2.400  12.129  0.1486 -0.0309 -0.0163
18995W        W37849  14.816  10.617  11.306 -0.1043  0.1039  0.2703
18996W        W37850   0.927   6.086   4.682  0.1783  0.3488  0.1671
18997W        W37851   8.345  12.832  15.044  0.0478  0.3211 -0.1715
18998W        W37852   9.033   8.997   4.084 -0.0870  0.2343  0.0046
18999W        W37853   7.580   7.141   2.114  0.1717  0.1350  0.1592
19000W        W37854  15.704  17.981  10.557  0.2843 -0.1055 -0.0457
19001W        W37855  12.982  16.037   0.034  0.1390  0.1520  0.5286
19002W        W37856  15.745   3.610  14.944  0.0208  0.3917  0.0719
19003W        W37857   9.832  15.433  15.031  0.0265 -0.0716  0.2141
19004W        W37858   7.392  11.151  11.464 -0.2324  0.1918 -0.0010
19005W        W37859  17.797   4.093   2.794 -0.2122 -0.0432 -0.0663
19006W        W37860   4.373   5.252   4.182  0.0973 -0.2360  0.0179
19007W        W37861   8.791  13.709   4.300 -0.0125  0.1372  0.1103
19008W        W37862   1.694  15.981   4.006 -0.1716  0.1286 -0.0773
19009W        W37863  12.229   6.800  11.568 -0.0821 -0.2227 -0.1150
19010W        W37864  12.509   5.443  11.301 -0.1029  0.0373  0.2112
19011W        W37865  18.854  10.521   4.589 -0.0309 -0.1705  0.1039
19012W        W37866  14.319  12.038   1.181 -0.0404 -0.1041 -0.0225
19013W        W37867  10.764  16.633  12.338 -0.3697 -0.0335  0.0013
19014W        W37868  12.102   4.530   1.473 -0.0513 -0.4422  0.0776
19015W        W37869   5.166  16.911   1.171 -0.1879  0.0551  0.1054
19016W        W37870  14.545  14.473   1.640  0.1827 -0.0793  0.2631
19017W        W37871   0.165  13.312  15.013 -0.1419 -0.0387  0.2903
19018W        W37872  13.565   7.819   3.298 -0.2384  0.1712 -0.2682
19019W        W37873  12.888   6.432   1.101  0.3389 -0.0298 -0.2638
19020W        W37874  15.690   5.889  11.423  0.1561  0.1254  0.0405
19021W        W37875  13.109   7.012  14.837  0.1152  0.0084 -0.1414
19022W        W37876   9.555   9.890  12.669 -0.0497 -0.1074 -0.0409
19023W        W37877   4.707   2.934   0.234 -0.1541  0.2926 -0.0137
19024W        W37878  18.800  11.260  13.712  0.1906 -0.2775 -0.2364
19025W        W37879  10.605  15.136   2.879  0.0961  0.2438  0.0235
19026W        W37880   6.769  15.125   1.518 -0.2592 -0.0111  0.0291
19027W        W37881   6.325   8.785   3.868 -0.1014 -0.1133  0.2037
19028W        W37882  14.666   3.770   3.211 -0.0602 -0.0191  0.0500
19029W        W37883  10.162   5.665  11.476 -0.2008  0.0375 -0.2352
19030W        W37884  11.581  13.634   1.839  0.0822  0.0607  0.0961
19031W        W37885   3.182   3.472  13.186  0.1128  0.1250  0.1000
19032W        W37886  12.764   5.896   3.423  0.1089 -0.4386  0.2222
19033W        W37887   0.168   2.404   1.044 -0.2199 -0.0472 -0.1639
19034W        W37888   0.530   1.483   3.847 -0.0652  0.0734 -0.1855
19035W        W37889   7.850  16.736   3.803 -0.1161 -0.1489 -0.1681
19036W        W37890   7.727  12.297   5.289  0.2002  0.1759  0.0494
19037W        W37891   0.737   8.190   3.253  0.0606 -0.2378  0.0558
19038W        W37892   3.788   5.560  13.083  0.0283  0.0953  0.2595
19039W        W37893   8.036   1.280   0.589  0.1136  0.1786 -0.0955
19040W        W37894  10.115   5.141  14.712 -0.1051  0.0451  0.0899
19041W        W37895  11.530   7.528   3.865 -0.2232  0.2073 -0.0796
19042W        W37896   8.768   1.310   1.688 -0.2253 -0.0523 -0.1060
19043W        W37897  18.467  16.468  12.489 -0.1638 -0.2412 -0.1225
19044W        W37898   1.038   4.650   0.857 -0.2019  0.0082  0.1826
19045W        W37899  10.563   2.052   3.252  0.0139 -0.1542  0.1806
19046W        W37900  15.858  11.355  13.964 -0.2257 -0.2246  0.2744
19047W        W37901   7.701   0.875   2.430 -0.0468 -0.1993 -0.1314
19048W        W37902   8.036  16.094   0.920 -0.0452  0.3503  0.0306
19049W        W37903   8.265   6.321  13.010 -0.1063  0.4220  0.1950
19050W        W37904   0.039  17.493  14.374 -0.0607  0.3687  0.0884
19051W        W37905  11.472  16.076   0.106  0.2823 -0.2162  0.0896
19052W        W37906  13.097   5.660   2.157  0.0752 -0.0521 -0.1541
19053W        W37907   6.357   7.745  12.144  0.1443  0.0438  0.0335
19054W        W37908   0.234  15.631  14.308  0.1934 -0.0567 -0.1214
19055W        W37909  11.029  14.965  10.599 -0.5933 -0.1925 -0.2263
19056W        W37910   8.873   2.561  14.189 -0.1300  0.0444  0.0516
19057W        W37911   3.657   5.044  13.843  0.1617 -0.1505 -0.0446
19058W        W37912  17.995  14.505   0.683 -0.2802  0.0156  0.1331
19059W        W37913  16.897   5.320   0.961  0.1509  0.0063 -0.2616
19060W        W37914  12.127  15.723  14.169  0.1436 -0.0637  0.2794
19061W        W37915  16.752   7.001   9.629 -0.0639 -0.0694  0.1885
19062W        W37916  12.548   5.911  11.406 -0.0372 -0.0545 -0.1271
19063W        W37917  11.931   8.453  14.773  0.0993 -0.1839 -0.1529
19064W        W37918  15.422  16.926  14.683  0.0789  0.2192 -0.0279
19065W        W37919  10.553   7.003   1.844 -0.2761 -0.0998  0.2491
19066W        W37920   9.418   1.951   1.112  0.2733 -0.2990 -0.0985
19067W        W37921  16.369   0.557  10.594 -0.2803 -0.1968  0.1281
19068W        W37922  10.298  15.761  13.395  0.1743 -0.1065  0.0847
19069W        W37923  11.496  18.412  14.316  0.0231 -0.3521 -0.0743
19070W        W37924  16.938  12.915   5.294 -0.0830 -0.1855  0.1436
19071W        W37925   1.471   8.462  13.781  0.1295  0.1449  0.0185
19072W        W37926   2.111   6.640  11.929 -0.3239 -0.1906 -0.0788
19073W        W37927  12.177  10.438  14.857 -0.1216  0.1553  0.2333
19074W        W37928   0.636   4.340  14.430  0.0428  0.2218 -0.0271
19075W        W37929  11.316   8.654  11.082 -0.0308 -0.1225  0.0680
19076W        W37930   1.631   7.051  14.703  0.1485 -0.2113 -0.2652
19077W        W37931   2.138   8.941   1.809  0.1350  0.1440 -0.0454
19078W        W37932   9.606   4.492  12.082 -0.1748  0.2425 -0.0769
19079W        W37933   8.558  12.654  13.201  0.0631 -0.2541 -0.1641
19080W        W37934   1.154  11.002  13.630 -0.0542 -0.1498 -0.1643
19081W        W37935   8.381  12.858  14.382 -0.1414 -0.0144  0.1346
19082W        W37936  11.662  11.997   0.209  0.0888  0.0852  0.0547
19083W        W37937   1.678   6.116   1.785 -0.1156 -0.0050 -0.2616
19084W        W37938  18.103   6.446   4.378  0.3687 -0.1409  0.0111
19085W        W37939  16.252   5.866  12.770 -0.1683 -0.1010 -0.3179
19086W        W37940   9.686   7.299   0.946  0.2004 -0.3197  0.1107
19087W        W37941   8.876   6.434  12.873 -0.1214  0.0126 -0.4246
19088W        W37942  16.662  11.669  12.801  0.0055 -0.0239 -0.1392
19089W        W37943  13.922  14.273   3.493 -0.0767 -0.0770 -0.1915
19090W        W37944   0.051   7.418   1.227 -0.2350 -0.1323  0.2871
19091W        W37945  16.731   9.312  14.066  0.1879  0.2855 -0.2942
19092W        W37946   1.765  10.602  11.059 -0.0527  0.2334  0.0010
19093W        W37947   3.774   8.377  12.705  0.1861  0.1017  0.0651
19094W        W37948  18.038  11.733   4.042 -0.1806  0.0629  0.0524
19095W        W37949   2.511  12.013   1.226 -0.1851  0.3486  0.0598
19096W        W37950   5.583   8.813   1.150 -0.0381 -0.0490  0.0829
19097W        W37951  12.308   0.264   3.722 -0.0904  0.3933  0.0623
19098W        W37952   6.522   2.285  11.882  0.0807 -0.2691 -0.0020
19099W        W37953  15.279   5.969   0.524  0.1549  0.0240  0.0301
19100W        W37954  17.363   8.246   4.295 -0.0069 -0.0467 -0.0560
19101W        W37955   2.617  12.226   2.235  0.1398 -0.1646  0.1062
19102W        W37956   4.616  12.600   1.227  0.0258  0.2178 -0.0201
19103W        W37957   2.915  18.255  14.023  0.0021  0.2437 -0.1636
19104W        W37958  11.518   6.725   0.035 -0.0990  0.0275  0.0018
19105W        W37959  13.200   7.011  12.758 -0.1827 -0.0001  0.2492
19106W        W37960  16.867  15.238  13.201  0.0965  0.2436 -0.2542
19107W        W37961  13.193   0.670  14.418  0.0635 -0.0265  0.1077
19108W        W37962  14.872   8.599   0.867 -0.2955 -0.0412  0.2926
19109W        W37963  16.780   0.124  12.597 -0.2411 -0.0283 -0.2548
19110W        W37964   7.392   6.923   2.583  0.0920 -0.1491  0.1181
19111W        W37965  15.645   9.748  14.648  0.1639 -0.0990 -0.0765
19112W        W37966  18.808   1.259  12.428  0.1112 -0.2160  0.1941
19113W        W37967   3.213  11.074  12.631  0.1402  0.1910 -0.0146
19114W        W37968  10.799  14.190  11.173  0.1464  0.2019  0.0340
19115W        W37969   6.191  10.770  12.544  0.0753  0.3344 -0.0948
19116W        W37970  14.738   1.928   1.433 -0.0996  0.2578  0.1214
19117W        W37971   3.183   2.994  14.273  0.3458  0.0133 -0.1359
19118W        W37972   6.859  18.425  11.264  0.1172 -0.2411 -0.0480
19119W        W37973   8.518  18.586  14.046 -0.1649  0.4449  0.1770
19120W        W37974   2.942   8.607  12.335 -0.1427 -0.3146 -0.1428
19121W        W37975  13.700  13.166   0.210  0.2543  0.0551  0.3146
19122W        W37976   4.211   6.223   3.902  0.0697 -0.1090 -0.1654
19123W        W37977  17.912   8.965  14.341 -0.1347 -0.1851 -0.2662
19124W        W37978  13.816   7.984   2.351  0.2238 -0.0539  0.0811
19125W        W37979  12.452  11.554  14.485 -0.4022 -0.0431  0.2204
19126W        W37980  10.923  17.002   3.591 -0.1311 -0.0595  0.0788
19127W        W37981  18.233   2.114  14.701  0.1748  0.0941  0.0778
19128W        W37982   6.385   2.167  14.280 -0.1314 -0.1472  0.0470
19129W        W37983  15.154   3.404  14.075  0.1963  0.0584 -0.2601
19130W        W37984  12.759  17.694  12.946  0.0195 -0.1518 -0.2541
19131W        W37985   6.787   6.765   1.397  0.1667 -0.1081 -0.2569
19132W        W37986  18.643  14.888  11.813  0.3320  0.0648  0.2961
19133W        W37987  13.632  12.427  12.808  0.1881  0.0057 -0.0549
19134W        W37988   6.042   5.964  10.698  0.0440 -0.1524 -0.1165
19135W        W37989   2.943   4.434  11.512  0.0529  0.0604 -0.3491
19136W        W37990   1.847  11.658  13.407  0.4876 -0.1390  0.1862
19137W        W37991   5.037  10.765   2.539  0.2901 -0.2250  0.1783
19138W        W37992   6.642   9.385   0.989  0.0789  0.0913  0.1077
19139W        W37993   9.890  17.981   0.120  0.2768  0.0171  0.2400
19140W        W37994  15.306   9.362  13.014 -0.0699 -0.1803 -0.0206
19141W        W37995   0.599   5.211  11.064 -0.0124  0.2746  0.0524
19142W        W37996  14.936   1.495   5.292  0.0823  0.2694  0.0268
19143W        W37997   8.072  14.072   2.165 -0.1843 -0.0221 -0.2137
19144W        W37998   0.960  10.037  10.431 -0.2283 -0.1177  0.1265
19145W        W37999  13.015  16.957   3.543  0.0558  0.0527  0.3613
19146W        W38000   8.744   9.689   3.628  0.0279  0.2137  0.1424
19147W        W38001  12.726   5.444  14.035  0.1038 -0.2109  0.3808
19148W        W38002  13.246   8.274  11.316  0.2473 -0.2472  0.2698
19149W        W38003  16.958   4.000   2.606 -0.0705 -0.0277  0.0693
19150W        W38004  11.758   1.674   3.192  0.0220 -0.2822  0.0319
19151W        W38005   1.131  10.608  13.320 -0.0291 -0.3432  0.0863
19152W        W38006   3.334  17.269   5.350 -0.2661  0.1339  0.0317
19153W        W38007   2.352   4.792  12.216 -0.1087 -0.1029  0.4347
19154W        W38008  10.468  10.996   2.434  0.1832 -0.1004 -0.2030
19155W        W38009  15.558   3.453   3.744  0.1068  0.1589 -0.1635
19156W        W38010  18.447  12.602   9.204 -0.0180 -0.0288 -0.2952
19157W        W38011  18.335   6.787  11.465 -0.2154 -0.0773 -0.1832
19158W        W38012   0.612  11.944   2.846 -0.1481  0.0198 -0.0096
19159W        W38013   3.423  11.899  13.106  0.1891 -0.1502 -0.0070
19160W        W38014   7.968   9.522  15.056  0.0953 -0.0817 -0.4597
19161W        W38015   6.831  16.423   0.054 -0.0388  0.1289 -0.1310
19162W        W38016  15.554   2.604  12.477  0.1237  0.0514  0.0292
19163W        W38017  17.447   9.920   3.711 -0.0259 -0.0535 -0.0786
19164W        W38018  16.997  14.131   2.330 -0.1317 -0.2945 -0.0110
19165W        W38019  16.267  15.158  11.605  0.1373  0.0600 -0.1484
19166W        W38020   0.069   5.401  12.029 -0.2502  0.0595 -0.2433
19167W        W38021   1.064   0.899   1.403 -0.0338 -0.1701  0.0334
19168W        W38022   5.755  18.311  12.735 -0.0343  0.2538  0.1655
19169W        W38023   2.077  11.848  12.481  0.2062 -0.0125 -0.1645
19170W        W38024  16.056  11.612  13.447 -0.3161  0.2306 -0.3490
19171W        W38025  15.859  10.845   4.766  0.0868 -0.0420  0.2077
19172W        W38026   6.448   2.105   4.208 -0.2094 -0.3663  0.1937
19173W        W38027   7.134   6.618  10.744  0.0452  0.1721  0.1524
19174W        W38028   2.071  16.387  11.730 -0.0172 -0.0471  0.2103
19175W        W38029  14.622   0.116  12.970  0.2616  0.0529  0.1125
19176W        W38030  13.289  15.853  14.772  0.0534  0.2685 -0.2236
19177W        W38031   5.883   2.352   3.455  0.1712  0.0994 -0.1326
19178W        W38032  15.801   6.554   4.592  0.0124 -0.0990  0.0341
19179W        W38033  17.563  17.895   4.128 -0.0173 -0.1711  0.0615
19180W        W38034   6.918   7.037   2.320 -0.1544 -0.0774 -0.1247
19181W        W38035  18.400  16.478   0.041  0.2353  0.0686 -0.2497
19182W        W38036  13.095   8.628   0.762  0.0082 -0.2490 -0.1892
19183W        W38037   9.696   6.444  14.339 -0.3948  0.0712 -0.0610
19184W        W38038   5.827   1.671   0.769  0.0151  0.2198  0.1630
19185W        W38039  16.333   3.614   5.608  0.1389 -0.0651  0.1961
19186W        W38040  13.643  13.641  12.066 -0.1140  0.0181  0.0233
19187W        W38041  10.306  14.136  15.116 -0.1868 -0.1624 -0.3110
19188W        W38042   8.323  18.346  13.193  0.0274  0.0444  0.3215
19189W        W38043  11.503  15.787   2.119 -0.0959  0.0835 -0.0452
19190W        W38044   1.167  10.612   9.343  0.0551  0.3227 -0.4261
19191W        W38045   1.474   6.417  12.447 -0.1020  0.3353  0.1571
19192W        W38046   8.203   9.137   3.771 -0.1141  0.1351 -0.0789
19193W        W38047   4.342   6.612  13.868 -0.1942 -0.2003 -0.2017
19194W        W38048   5.769  14.676   3.182  0.1667  0.0172 -0.3586
19195W        W38049  17.428   8.172  11.336 -0.1245  0.3915  0.1700
19196W        W38050  13.893   0.692  13.376 -0.0771 -0.1972  0.1577
19197W        W38051   5.521   4.394  12.313  0.0440 -0.0135  0.1037
19198W        W38052   6.538   6.097  12.711 -0.1209  0.0963  0.0369
19199W        W38053   0.302   3.689  12.667 -0.4895  0.1420 -0.1235
19200W        W38054  17.739  15.543  11.887  0.0904  0.1710 -0.0212
19201W        W38055  18.554  14.976   3.732 -0.1586  0.2105 -0.0512
19202W        W38056  14.569  18.161   2.098  0.1582 -0.1445  0.3346
19203W        W38057   3.576  15.142   2.902  0.1414  0.2909 -0.0686
19204W        W38058  11.068  14.317  14.064  0.0792  0.1158  0.0482
19205W        W38059  12.496   5.581   1.582 -0.0520  0.1849  0.0357
19206W        W38060  16.487  18.815   3.366  0.2135  0.2039 -0.1169
19207W        W38061   7.699  15.597  13.984 -0.3607 -0.1238 -0.2231
19208W        W38062   0.132  15.154   1.923 -0.1764  0.3840  0.1585
19209W        W38063   2.124   2.724   4.315 -0.3651 -0.1222  0.0283
19210W        W38064  17.914  17.404  10.564  0.0254  0.2375 -0.3581
19211W        W38065  11.911   8.646   9.819 -0.2738  0.0159 -0.1647
19212W        W38066   1.635  13.504  11.183  0.2271 -0.0106 -0.1033
19213W        W38067  16.675  12.529   5.565 -0.1072  0.1104  0.1469
19214W        W38068   3.996   5.175  12.380 -0.0709  0.0897  0.0959
19215W        W38069  16.631   4.401   1.344 -0.3312 -0.2498 -0.0941
19216W        W38070   4.146  13.651  10.991  0.1540 -0.1901 -0.0271
19217W        W38071   4.563  14.573  12.667  0.0599 -0.1004  0.0144
19218W        W38072   7.738   7.658   1.435 -0.3973  0.0719 -0.3171
19219W        W38073   7.338  11.776   2.143  0.1603  0.0864 -0.3957
19220W        W38074  14.309   3.741  12.918  0.0357  0.0255 -0.1801
19221W        W38075  14.381  13.459  14.636 -0.1117  0.0212 -0.1581
19222W        W38076   6.738  15.372  13.750 -0.0509  0.1236 -0.0890
19223W        W38077  17.093   3.505  11.334  0.0178  0.2842 -0.1066
19224W        W38078   3.771  10.971  11.532 -0.0839  0.2017  0.1254
19225W        W38079   0.758  12.562   2.239 -0.1013  0.3232  0.0099
19226W        W38080   5.899   5.718  12.156 -0.2491  0.0924 -0.2268
19227W        W38081  13.422  11.717   1.346 -0.1528  0.2027 -0.0869
19228W        W38082   7.120   9.652   2.609  0.0031 -0.1285  0.2459
19229W        W38083  13.358   6.652  12.441  0.0200  0.0448  0.2214
19230W        W38084  16.833   7.275   1.685  0.2560  0.1253  0.0449
19231W        W38085   9.602  13.317   9.957 -0.1168  0.1922  0.0210
19232W        W38086   6.059  14.954  10.673  0.0972  0.1426 -0.0543
19233W        W38087   4.048  10.493   3.754  0.1534  0.0915 -0.1606
19234W        W38088   6.358  10.264   1.393  0.2521  0.1263 -0.0652
19235W        W38089   7.857   8.473   0.031 -0.0689 -0.0219  0.0071
19236W        W38090  11.617  14.769  13.449 -0.4181  0.2274 -0.2219
19237W        W38091  16.764   2.799  14.419  0.1599  0.1540  0.2545
19238W        W38092  11.135  13.515   4.451  0.0339  0.0611  0.0175
19239W        W38093   1.665  15.582  10.620  0.0868 -0.0639 -0.1363
19240W        W38094  12.257  10.875  15.108 -0.0053  0.0908 -0.0183
19241W        W38095  13.423  18.713  15.023 -0.1017  0.1253  0.2052
19242W        W38096   8.864  17.472  10.782  0.1329  0.0255 -0.1557
19243W        W38097   9.152   4.928  14.262  0.0700 -0.2373 -0.0439
19244W        W38098  12.679   5.302   2.450 -0.2300  0.0970 -0.2609
19245W        W38099   2.620   8.868  11.844  0.1307  0.1097 -0.0749
19246W        W38100   0.094  16.765  13.607  0.1243 -0.2515  0.1709
19247W        W38101   0.567  13.165   2.104  0.2131 -0.0421 -0.1679
19248W        W38102  14.266  12.776   3.991  0.3680 -0.2005 -0.2376
19249W        W38103  16.817  17.999   3.274  0.1069 -0.1713  0.0627
19250W        W38104   4.943  17.563   0.773  0.3087 -0.0807 -0.0215
19251W        W38105  14.773  12.662  11.931 -0.2210 -0.0657  0.1675
19252W        W38106   2.072  13.244  12.938  0.0680  0.3885  0.0232
19253W        W38107  11.897  13.169   2.063  0.0846 -0.4580 -0.1368
19254W        W38108   2.328   5.376   0.076 -0.1350  0.2085 -0.2606
19255W        W38109  12.124  18.604  13.799  0.1815  0.0398  0.0549
19256W        W38110  12.038   5.326   4.768  0.0032  0.1018  0.0725
19257W        W38111   8.078  18.702   2.187 -0.2401  0.0393 -0.1594
19258W        W38112   5.304  12.817  11.624  0.0140  0.0015  0.0399
19259W        W38113   2.660  10.431   3.749  0.5657  0.1237  0.1206
19260W        W38114  13.670   7.381   1.301  0.2079  0.0168 -0.0108
19261W        W38115   1.283   9.126  12.487 -0.0082 -0.1772 -0.2407
19262W        W38116   6.996   0.362  14.012  0.1148 -0.2188 -0.0330
19263W        W38117   4.921   3.384  11.062 -0.0712 -0.1955 -0.0964
19264W        W38118  18.597  12.806   3.638 -0.0444  0.0046  0.1255
19265W        W38119   6.255  12.565  13.544 -0.0718 -0.1578 -0.0867
19266W        W38120  17.010   0.715   2.791 -0.0653 -0.1149  0.1309
19267W        W38121   4.663   7.809   0.495 -0.0993  0.0621 -0.1132
19268W        W38122   3.892  14.587   2.449  0.4556 -0.1542  0.1266
19269W        W38123  16.646   2.613   1.350  0.1229 -0.0376  0.0518
19270W        W38124  15.895  13.570   0.411 -0.0959  0.1341 -0.1918
19271W        W38125   8.615  18.327  14.617 -0.0573 -0.1292  0.1429
19272W        W38126  14.226   6.342  13.056 -0.1896  0.0813  0.1542
19273W        W38127   0.644  11.313  14.990 -0.0644 -0.0643 -0.2644
19274W        W38128  15.053  13.403  12.088 -0.1256 -0.0081  0.3318
19275W        W38129  18.731  13.037  11.354  0.2317  0.0306  0.0382
19276W        W38130  10.486   2.206   1.419  0.0828 -0.0817  0.3331
19277W        W38131   9.975  17.288  11.026  0.0784 -0.1079 -0.1896
19278W        W38132  18.043   3.203   1.573  0.0964 -0.2129  0.0485
19279W        W38133   8.887   9.957  12.488 -0.1624  0.2690  0.1072
19280W        W38134  12.785   0.457  14.741  0.3660 -0.0935  0.6757
19281W        W38135   1.242   8.667   1.076 -0.0960  0.1144  0.1294
19282W        W38136  10.031   1.389  14.302  0.1113 -0.0749 -0.0738
19283W        W38137  16.126  13.198   0.941 -0.0030 -0.0708 -0.0547
19284W        W38138  15.310  16.887   2.051  0.2238  0.2073 -0.0432
19285W        W38139   3.839  17.165   0.611  0.0579  0.3520 -0.1024
19286W        W38140  13.108   9.644   4.352  0.0199  0.1652 -0.1859
19287W        W38141   9.713  10.545   2.167  0.2665  0.0609  0.0524
19288W        W38142   5.675   5.548   2.917 -0.0793  0.0173  0.0863
19289W        W38143   3.529   5.141  12.758  0.0062 -0.0648  0.0848
19290W        W38144  11.851   2.395  13.301  0.2178  0.2812  0.0289
19291W        W38145   5.086   6.562   0.882 -0.1875  0.1564  0.0187
19292W        W38146  12.385  16.951   0.175  0.1382 -0.0884  0.1869
19293W        W38147   5.848   5.594   0.434  0.4039  0.2412  0.1886
19294W        W38148   1.279  17.223   2.915 -0.3214 -0.1341  0.1458
19295W        W38149   8.527  11.249   3.813 -0.4008  0.1508 -0.0886
19296W        W38150   8.039  12.024   2.436  0.0196  0.2241  0.2213
19297W        W38151   8.346  10.086  14.421 -0.1801  0.2129 -0.2619
19298W        W38152  18.440   8.316  13.595 -0.0947 -0.0005  0.1351
19299W        W38153   9.431   5.286   2.505 -0.0530 -0.0162  0.0324
19300W        W38154   7.720   2.650   5.014 -0.0583 -0.0072 -0.1890
19301W        W38155  11.236  18.367  11.549  0.0080  0.1889  0.0686
19302W        W38156  17.043   8.923  12.798 -0.2517  0.0185  0.2116
19303W        W38157  11.182   2.663   3.514 -0.0269  0.0872  0.0458
19304W        W38158  16.594   4.713  14.885  0.4552  0.1155  0.1471
19305W        W38159   2.389  13.880  10.592  0.1016 -0.2357 -0.1725
19306W        W38160   2.721   5.112   1.753 -0.0911 -0.1311 -0.1857
19307W        W38161  14.658   7.861  14.554  0.2613  0.2517 -0.2414
19308W        W38162   9.076  10.812   0.463  0.1260 -0.2389  0.2611
19309W        W38163   8.218  13.053   3.792  0.0314 -0.3018  0.0798
19310W        W38164   2.426   2.867   9.858  0.1812 -0.0847  0.2631
19311W        W38165  15.383   4.677   1.016  0.0860 -0.0118 -0.2004
19312W        W38166  15.339   7.846  11.929  0.0784 -0.1002  0.4035
19313W        W38167  12.531  17.276  13.718 -0.1415  0.1397 -0.2643
19314W        W38168  12.449  10.438   0.400  0.1598 -0.1088  0.1017
19315W        W38169   5.462   3.431  13.794  0.0109  0.2598 -0.0237
19316W        W38170   9.681   4.005   3.773 -0.0263  0.0672  0.2470
19317W        W38171  16.588  11.150  11.413 -0.1126  0.1618 -0.0592
19318W        W38172   0.969  17.233   2.466  0.2681  0.0180  0.2132
19319W        W38173   0.993   4.765   0.058 -0.1338  0.1069 -0.1579
19320W        W38174   8.818  15.505   2.491 -0.0907  0.2556 -0.0037
19321W        W38175   2.124   6.975   4.224  0.0852 -0.2126 -0.2209
19322W        W38176  13.840   1.057  14.362 -0.0250 -0.1023  0.1354
19323W        W38177  17.657   0.306   4.677  0.1193  0.0632 -0.1558
19324W        W38178  15.856  18.656   0.740 -0.0125  0.2375  0.0899
19325W        W38179  10.106  17.485   1.220  0.0224 -0.3119 -0.3406
19326W        W38180  13.784  11.550  13.576  0.0072  0.0311  0.1740
19327W        W38181  16.349  15.996  13.076  0.0236  0.0376 -0.1189
19328W        W38182   0.882   6.138   2.721  0.0466 -0.2783 -0.0376
19329W        W38183  17.836   2.415   2.413 -0.1938 -0.1154  0.0890
19330W        W38184   9.056   0.152  12.369 -0.0296  0.2964 -0.0601
19331W        W38185   5.532   9.844   4.252 -0.3393  0.1027  0.2203
19332W        W38186   3.548  10.873  10.564  0.1161  0.1579  0.0122
19333W        W38187  17.979  17.931   0.730 -0.2454  0.2350  0.1008
19334W        W38188  17.641  11.715   2.595 -0.0944  0.0017  0.1041
19335W        W38189   0.378   0.986   3.986 -0.2589  0.0687  0.1216
19336W        W38190  16.102  13.149   3.162 -0.3951 -0.0990  0.1172
19337W        W38191   4.367   2.120  13.335  0.3204  0.2622  0.3298
19338W        W38192  10.308   4.144   1.141 -0.2754 -0.0311 -0.1455
19339W        W38193  16.693   2.075  13.643  0.0148 -0.0342  0.0109
19340W        W38194  14.485   2.697   4.166  0.2050  0.1296 -0.0126
19341W        W38195  10.417   6.505   1.027 -0.1760 -0.0149  0.0916
19342W        W38196   6.055  13.530  13.975 -0.4154  0.0108  0.0874
19343W        W38197  17.521   3.974  10.279 -0.0667  0.0147 -0.3361
19344W        W38198   4.728   9.808  14.138  0.2305  0.2152 -0.0753
19345W        W38199   9.174   6.329  11.018  0.0448 -0.0840  0.2172
19346W        W38200   5.167   2.400   2.438 -0.0535  0.2567 -0.0531
19347W        W38201  13.297  10.658   3.430  0.0188 -0.0285  0.3131
19348W        W38202   3.811   9.653   3.834  0.1509  0.0517  0.1776
19349W        W38203   6.765   2.620  14.689 -0.0436 -0.0404  0.0776
19350W        W38204  12.798   5.298   1.877  0.0033 -0.0561  0.0060
19351W        W38205  14.414   0.290  10.147 -0.0866 -0.3290  0.1351
19352W        W38206   9.512   3.776  12.921  0.0388 -0.1375 -0.1035
19353W        W38207  10.800   9.778  14.924 -0.2190 -0.2198  0.1966
19354W        W38208   2.799   8.556   1.678 -0.3846  0.0593  0.0544
19355W        W38209  18.182   5.654   3.740  0.0620  0.2335  0.0495
19356W        W38210   2.884  17.271  13.880  0.1418  0.3870  0.1465
19357W        W38211   9.935  13.840   4.886  0.1050  0.0699 -0.2116
19358W        W38212  13.147   9.605   3.387 -0.3185 -0.1195 -0.4691
19359W        W38213  15.965   6.420  10.982  0.0822  0.1764 -0.2164
19360W        W38214   2.323   8.705  13.425  0.1852 -0.0932  0.1157
19361W        W38215  10.575  14.298   0.999 -0.0375 -0.0007 -0.0343
19362W        W38216   0.544   0.251   3.649  0.1025  0.0609  0.1128
19363W        W38217  18.077   4.569  14.350 -0.0148  0.3499  0.0755
19364W        W38218  15.681  13.798   0.042 -0.2107  0.2726 -0.1199
19365W        W38219  13.070  15.626   4.806  0.2518  0.3002  0.2917
19366W        W38220  15.993  16.721  12.084 -0.0402 -0.0323 -0.3270
19367W        W38221   3.528  16.993  15.033  0.0447  0.2527  0.2590
19368W        W38222   9.693  14.234  12.541 -0.1550  0.3023  0.1408
19369W        W38223  16.778   4.658  10.972 -0.0721  0.0637  0.0949
19370W        W38224   9.771   6.733  12.137 -0.1547 -0.0356 -0.1524
19371W        W38225   0.611   0.114   1.600 -0.0509 -0.1211  0.1422
19372W        W38226   2.560   8.379  13.998  0.1958 -0.1185 -0.2794
19373W        W38227   1.612  17.288  12.789  0.1942 -0.2520 -0.0018
19374W        W38228   4.677   4.889   1.382  0.0006  0.0190  0.0115
19375W        W38229  11.627  16.707   0.677 -0.3443 -0.3381 -0.1805
19376W        W38230  16.825  10.971  13.982 -0.2932 -0.0985  0.0113
19377W        W38231   7.786   4.669  12.321  0.0305 -0.3480 -0.0346
19378W        W38232   3.611   9.447  10.325 -0.1389 -0.5100 -0.1269
19379W        W38233  17.397   2.467  12.896 -0.0254 -0.2234  0.0894
19380W        W38234  17.128   1.975  12.327 -0.1581 -0.1498 -0.1073
19381W        W38235   6.770   1.744   3.252 -0.1276 -0.1975  0.0073
19382W        W38236   6.654   7.613   4.078 -0.1109 -0.1523 -0.3604
19383W        W38237   0.301  15.872   4.351 -0.1086 -0.2432  0.2183
19384W        W38238  11.560   4.720   0.441 -0.1052  0.3039  0.1651
19385W        W38239   7.166   2.058   0.016 -0.0093 -0.0896 -0.0514
19386W        W38240   2.499   4.057  13.292 -0.3007  0.0087 -0.0468
19387W        W38241   9.218   6.714   3.978 -0.1865 -0.1128 -0.0096
19388W        W38242   7.754  12.162   2.951 -0.1085  0.2874  0.3497
19389W        W38243  15.718  11.698  14.390  0.1891 -0.0990  0.1028
19390W        W38244   1.842  12.565   4.507  0.0076 -0.2328  0.3316
19391W        W38245   0.484   2.197  14.727  0.0488 -0.0759  0.0582
19392W        W38246   2.886   6.628   0.736 -0.5509  0.0347 -0.0148
19393W        W38247   3.205   5.217  10.556  0.0613  0.2555 -0.0786
19394W        W38248   5.677   4.044   2.423  0.2330  0.1132 -0.2185
19395W        W38249   8.731   4.091  14.740  0.0261 -0.1013  0.0352
19396W        W38250  17.521   6.443  11.420 -0.1965  0.1384 -0.0633
19397W        W38251   8.267   1.779   9.985 -0.2413 -0.0353 -0.1292
19398W        W38252  16.102  10.986   4.242  0.0543  0.0284 -0.2103
19399W        W38253  14.794  18.148   3.532 -0.1059 -0.1053  0.3106
19400W        W38254  15.953  12.691  11.760 -0.2328  0.0191 -0.1086
19401W        W38255   7.404   2.438   1.847  0.0223 -0.2825 -0.0087
19402W        W38256  17.636   2.042  11.196  0.1025  0.1276 -0.1135
19403W        W38257   7.611   9.287  10.461  0.1876  0.1066  0.1173
19404W        W38258  16.225   1.475   4.258 -0.1555 -0.0838  0.1986
19405W        W38259  10.486   9.865   2.010  0.2657 -0.1134 -0.1986
19406W        W38260   5.502  10.577  13.349 -0.3755 -0.1748 -0.2251
19407W        W38261   9.244   9.513  14.126 -0.2096 -0.3847 -0.0589
19408W        W38262  16.475   3.875   2.540  0.0426 -0.0004  0.2004
19409W        W38263  17.701   4.379  14.783  0.0386 -0.0726  0.2942
19410W        W38264   8.221   8.124  12.598  0.2350 -0.0618  0.0901
19411W        W38265  11.529  16.639  13.418 -0.0456  0.2229 -0.3494
19412W        W38266   0.048   4.724   2.070 -0.0520 -0.1745  0.1088
19413W        W38267   0.895   1.829  11.001  0.1632 -0.2741 -0.2375
19414W        W38268   4.324   9.916  13.807 -0.2227  0.0432 -0.0809
19415W        W38269   3.172  11.635  11.699  0.1051 -0.0740 -0.2677
19416W        W38270   5.684   2.725   4.780  0.3254  0.1958 -0.0383
19417W        W38271   1.829  13.019  11.235  0.0565  0.0469 -0.1165
19418W        W38272   0.900   8.844   3.699 -0.0165  0.1521  0.1238
19419W        W38273  12.674   0.501  10.904  0.0764 -0.2410 -0.1037
19420W        W38274  11.622  10.191   1.606 -0.1105  0.0893  0.0131
19421W        W38275   5.215  12.740  13.083  0.0083  0.2119 -0.1938
19422W        W38276  11.762  13.897  14.235  0.5516 -0.0411 -0.0505
19423W        W38277  10.031  17.921  13.584  0.1208 -0.1449  0.1315
19424W        W38278   1.825   8.326   2.121  0.1592 -0.1707 -0.2315
19425W        W38279  16.675   6.188  14.432  0.1590 -0.0965  0.0446
19426W        W38280  11.139   0.976  14.996 -0.0099 -0.0637 -0.0934
19427W        W38281  15.502   0.194  11.039  0.0468  0.0537 -0.0978
19428W        W38282  16.649  12.089  12.211  0.1739  0.1877  0.0433
19429W        W38283  15.215   7.231  12.826  0.0002  0.1869  0.1396
19430W        W38284  18.703   6.548  14.724 -0.3403  0.0733  0.2096
19431W        W38285  13.426  14.578  12.449  0.0591 -0.0524 -0.0877
19432W        W38286   0.657   5.126  11.932 -0.2223 -0.0457  0.2279
19433W        W38287  10.201  12.751  14.037  0.3132 -0.0368  0.3343
19434W        W38288   3.614   2.633   2.348  0.1050 -0.2558  0.0287
19435W        W38289  11.490  17.937  14.641 -0.0212 -0.0289 -0.0278
19436W        W38290   7.057   6.753   3.451 -0.2007 -0.1134 -0.0477
19437W        W38291   2.498  12.393   3.495 -0.0184 -0.1124 -0.0155
19438W        W38292   9.463   0.570  13.063  0.2690 -0.1448  0.1609
19439W        W38293  13.352   6.870   2.741 -0.1516  0.1528  0.1082
19440W        W38294  12.169   8.416  12.661  0.2263 -0.0097  0.2550
19441W        W38295  17.492   4.170   1.486  0.0295 -0.0981 -0.2854
19442W        W38296   4.153   9.699  11.442 -0.2529  0.0714  0.0058
19443W        W38297  16.382  17.357   4.811 -0.0400  0.0497 -0.1680
19444W        W38298   8.959   3.191   3.658  0.2108 -0.0869 -0.2358
19445W        W38299  12.016  15.928   0.798 -0.1208  0.0590 -0.2345
19446W        W38300  12.528   5.575  13.035 -0.1916  0.0573 -0.3576
19447W        W38301   9.282   7.611  12.547  0.3093 -0.0277  0.2166
19448W        W38302  12.611  15.441   3.539 -0.2476  0.1381 -0.1160
19449W        W38303  16.098   7.391  13.345  0.1876 -0.0818  0.1107
19450W        W38304  11.545  12.959  14.857 -0.1208 -0.0359  0.0765
19451W        W38305  15.477   3.827   4.314  0.3355  0.1779  0.0452
19452W        W38306   8.119  10.052  13.903  0.2602  0.1225  0.0247
19453W        W38307  15.719   7.679  14.905 -0.0680 -0.0586  0.1660
19454W        W38308  11.776  13.723   2.722  0.1822 -0.0068  0.0685
19455W        W38309   0.928  12.242  11.941  0.0655  0.0259 -0.1760
19456W        W38310   2.403   9.429   1.839  0.0828  0.3316 -0.0062
19457W        W38311   0.971   5.473  12.635  0.2830 -0.1290  0.0823
19458W        W38312  15.246  10.433  14.644 -0.0509 -0.2091 -0.2778
19459W        W38313  11.913   4.305  12.611  0.2151  0.3152  0.1892
19460W        W38314   9.034  14.205  11.267  0.2333  0.0879  0.0958
19461W        W38315   8.659   4.341   1.243 -0.2014  0.0336 -0.0181
19462W        W38316  15.570   5.752  13.344  0.1209 -0.0031 -0.4149
19463W        W38317   0.201  13.299  14.492 -0.1266 -0.4003 -0.2305
19464W        W38318  14.287  13.168  12.588  0.1148  0.1491 -0.0603
19465W        W38319   7.812   0.243  10.131 -0.3136  0.1437  0.0121
19466W        W38320  16.146  10.286  12.401  0.0824  0.1048 -0.2035
19467W        W38321  12.049  11.131   0.342 -0.2250 -0.2816  0.2493
19468W        W38322  11.248   7.497  12.947 -0.1289  0.0829  0.0285
19469W        W38323   4.947  17.072   0.236  0.3896 -0.1701  0.2500
19470W        W38324   2.108  10.191  13.995 -0.2759 -0.0273 -0.0040
19471W        W38325   5.187   2.455  14.880 -0.0358 -0.1467 -0.1427
19472W        W38326  18.402   1.612  12.939 -0.4010 -0.3538  0.0940
19473W        W38327   5.839   7.402   3.259 -0.0172 -0.2741  0.1677
19474W        W38328   6.805  12.671  14.532  0.0023 -0.0606 -0.0378
19475W        W38329   6.818   5.795   2.334 -0.1690  0.0902  0.0746
19476W        W38330   0.864  15.992  10.457 -0.0980 -0.0714 -0.0361
19477W        W38331  10.361   1.577  14.690 -0.3187 -0.2493 -0.3585
19478W        W38332   0.926  15.481   1.629 -0.1052  0.1803 -0.0261
19479W        W38333   5.867   0.385   9.998 -0.0833  0.0910  0.1549
19480W        W38334   8.883   4.522  13.765  0.0723 -0.1368 -0.1140
19481W        W38335   5.073  16.532  10.067 -0.1920  0.2562 -0.0679
19482W        W38336   9.827   9.831  15.100 -0.1233 -0.0796  0.0590
19483W        W38337   2.198   3.242   2.782 -0.0657  0.2692 -0.1096
19484W        W38338   8.293  11.301  13.197 -0.1604 -0.0404  0.2089
19485W        W38339  12.508  16.086  14.862  0.1960 -0.2370 -0.0807
19486W        W38340  11.907  13.344  11.161  0.2669 -0.3051  0.0191
19487W        W38341  11.933  16.530   1.869  0.0629 -0.2045 -0.1493
19488W        W38342  11.007  17.121   1.712 -0.2513  0.0359 -0.5774
19489W        W38343   2.383  10.874   0.563 -0.2310 -0.1519  0.1153
19490W        W38344  12.673  17.640  14.091  0.2597 -0.0014 -0.0329
19491W        W38345  16.570   8.805  14.611  0.0484  0.1393 -0.1641
19492W        W38346  13.015   2.502   1.345  0.3128  0.1801  0.1070
19493W        W38347   1.983  14.947   2.460  0.1267 -0.3519  0.1458
19494W        W38348  12.684   7.138  10.065 -0.1834  0.0764 -0.1927
19495W        W38349   5.471  10.047   4.759 -0.0568 -0.0677  0.0662
19496W        W38350   0.292   2.572   2.852 -0.1697  0.1752 -0.3239
19497W        W38351   3.369   9.306  14.293  0.1676  0.0319  0.1540
19498W        W38352  11.754   9.400   1.399  0.1347  0.0148  0.1738
19499W        W38353   7.380   6.607   3.836 -0.0628 -0.0244  0.0720
19500W        W38354   9.745  14.818   4.738 -0.1207 -0.1792  0.2063
19501W        W38355   9.895   2.484   2.067  0.1647  0.0865  0.0357
19502W        W38356   4.948   6.871   0.370 -0.1203  0.1053 -0.0274
19503W        W38357   8.430   9.827   2.172  0.0852  0.1031 -0.0384
19504W        W38358  16.998   6.653  14.588  0.2349 -0.2451 -0.1103
19505W        W38359  17.394  17.452   4.895  0.0854 -0.4387 -0.1232
19506W        W38360  16.311   1.684  11.512 -0.1412  0.1400  0.3055
19507W        W38361   5.676   2.628   4.317 -0.0346 -0.1181 -0.2567
19508W        W38362   4.353  13.903  11.965  0.5835  0.0561 -0.0907
19509W        W38363   7.010   8.788  13.323  0.3397  0.2131  0.1127
19510W        W38364  14.267   3.947   1.005  0.2097 -0.0897 -0.1868
19511W        W38365  12.988   7.180   2.940 -0.2112 -0.0512  0.0533
19512W        W38366  14.661   2.652  11.985 -0.2038 -0.1258  0.1858
19513W        W38367   9.841   8.675  14.023 -0.2695 -0.0588  0.0931
19514W        W38368   7.042  13.813   1.399  0.0581 -0.0519 -0.2307
19515W        W38369  11.815   2.273  11.422 -0.0177  0.3319  0.2088
19516W        W38370   9.750   0.702  14.821  0.0158 -0.1320  0.2907
19517W        W38371  17.244  11.573  11.232 -0.1789  0.2958 -0.2000
19518W        W38372   5.636  15.335  13.915  0.0586  0.0179  0.1421
19519W        W38373  12.867   2.817   1.780  0.1120  0.1191 -0.0378
19520W        W38374   7.708   8.512  14.640  0.1980  0.2835 -0.1772
19521W        W38375  17.922  15.080  11.591  0.2747  0.0342  0.0982
19522W        W38376   0.437   2.392  10.032  0.2110 -0.0923  0.1321
19523W        W38377  16.568  13.581   3.619  0.1366  0.0085 -0.2896
19524W        W38378  17.618   5.028   0.690  0.1692 -0.1801 -0.1149
19525W        W38379  15.222  11.632   1.348 -0.1066 -0.2541 -0.1251
19526W        W38380   1.430   0.651  11.456 -0.0504  0.1152  0.4229
19527W        W38381   4.166  10.026   3.928  0.1573  0.1312 -0.0358
19528W        W38382   5.306  18.416   0.883 -0.2371 -0.2535 -0.0316
19529W        W38383  15.139   2.563  11.770 -0.0351  0.0071  0.0068
19530W        W38384   0.418  17.603  10.613  0.1814  0.1794 -0.2059
19531W        W38385   8.296   8.707  15.022  0.1473  0.1633  0.3549
19532W        W38386   6.803  15.854  14.504  0.3123 -0.1929  0.0079
19533W        W38387  15.525   4.003   3.276  0.0854  0.1602  0.2985
19534W        W38388   5.923   7.421   1.684  0.2982  0.0179 -0.1775
19535W        W38389   4.371   0.405   3.059  0.1125  0.1411 -0.0373
19536W        W38390   8.742   6.575  11.066  0.2853  0.3303  0.2172
19537W        W38391  11.654   3.484  14.627 -0.1784 -0.1182 -0.1069
19538W        W38392  15.545   5.450   1.308 -0.1624  0.0288 -0.2778
19539W        W38393  18.272   7.933   0.166 -0.0551  0.3232  0.0111
19540W        W38394  11.024  15.239  12.227  0.0153  0.1091  0.0946
19541W        W38395  16.165  14.313  13.647 -0.1355 -0.0125  0.0657
19542W        W38396   4.801  13.981  15.003  0.0150  0.1623 -0.1694
19543W        W38397   4.595  16.660   0.050 -0.1913 -0.2194 -0.3950
19544W        W38398  18.664   1.218  11.286  0.0321  0.2815  0.4258
19545W        W38399  10.866  13.518  12.133 -0.0008 -0.1082 -0.1385
19546W        W38400   8.081   1.131  14.612 -0.0013  0.0750  0.1209
19547W        W38401   6.303   6.779   0.663  0.1199 -0.4997 -0.2143
19548W        W38402  12.587   5.809  13.697  0.0439 -0.0380  0.1357
19549W        W38403   5.759  11.960  13.166 -0.0163 -0.1336 -0.3398
19550W        W38404   6.601  13.718   1.139 -0.0694 -0.0884  0.3259
19551W        W38405   1.115  10.338  12.210 -0.0692  0.0631 -0.0020
19552W        W38406   5.175  14.732  15.057 -0.0419  0.0360  0.0728
19553W        W38407  15.040  18.685  14.091 -0.0490  0.0071 -0.0058
19554W        W38408   6.959   0.737  14.674 -0.1266 -0.1618  0.1637
19555W        W38409  11.547  15.909   3.298 -0.0739  0.0074  0.1080
19556W        W38410   2.134   2.898   3.202 -0.2316  0.1060  0.0705
19557W        W38411   0.983  17.213   1.508  0.1776  0.0098 -0.3460
19558W        W38412   5.348  18.643   0.451  0.0348  0.3344 -0.0890
19559W        W38413  13.622  12.473   3.296 -0.3288 -0.0465  0.0204
19560W        W38414   6.468   7.849  11.612  0.0359  0.0170 -0.0144
19561W        W38415  14.268  16.613  12.776 -0.2609  0.3122  0.0113
19562W        W38416  12.427  15.954   2.136 -0.1563  0.1932 -0.0838
19563W        W38417   3.567  10.122  10.820  0.3439  0.0223  0.4865
19564W        W38418  15.748  11.675   2.799  0.0287  0.3483  0.1123
19565W        W38419  14.187  14.863   1.802 -0.2653 -0.1193 -0.1328
19566W        W38420   4.580   2.552   3.756 -0.1447  0.1713  0.0761
19567W        W38421  10.538  18.330   3.623  0.1559  0.2022 -0.0158
19568W        W38422  10.395  14.408   3.496 -0.2371 -0.0418  0.0119
19569W        W38423   2.026   6.703  12.518 -0.0597 -0.1252 -0.0292
19570W        W38424  14.183  11.714  13.332  0.3270  0.0531 -0.0867
19571W        W38425   5.328   4.623  11.779  0.1762  0.1164 -0.0000
19572W        W38426  18.122   3.676   1.760  0.2787 -0.0027 -0.1294
19573W        W38427   3.457   4.357   0.974 -0.0919  0.1044 -0.0336
19574W        W38428   7.643   1.716   0.151  0.0333 -0.2931  0.0856
19575W        W38429  11.217  16.123   1.373 -0.2648 -0.0746 -0.0614
19576W        W38430   5.885   5.441  10.664  0.0390 -0.2354  0.0792
19577W        W38431  13.690   1.034  12.009  0.0900 -0.4967 -0.2178
19578W        W38432   2.185   9.256   3.009  0.1900 -0.1081  0.3893
19579W        W38433   3.215  16.774  12.538  0.2560  0.1785  0.3000
19580W        W38434  15.226   1.607  15.043 -0.1339  0.0222 -0.1646
19581W        W38435  14.176   7.940   2.034  0.0497  0.4130  0.0720
19582W        W38436   9.957   7.080   2.390  0.0213 -0.3737  0.1102
19583W        W38437  12.633   0.008   1.749 -0.0457 -0.2758 -0.1272
19584W        W38438  16.085   3.438   4.281 -0.4376 -0.1461  0.0258
19585W        W38439  17.804  13.724  14.266  0.1024  0.2788  0.0163
19586W        W38440  12.633  15.776   4.483  0.0198  0.0249  0.1406
19587W        W38441   3.602   2.190   0.006  0.0799 -0.0207  0.1726
19588W        W38442   2.971   6.933  12.094 -0.1999  0.0678  0.0030
19589W        W38443  18.819   8.185  14.900  0.1632 -0.2345 -0.1385
19590W        W38444  13.833  13.345  13.385 -0.1061 -0.0662  0.1062
19591W        W38445   8.146   4.702   3.263 -0.1714 -0.1061 -0.3082
19592W        W38446   0.381  16.085   0.396  0.1569 -0.2161  0.3325
19593W        W38447  17.494   1.801   1.847 -0.2376 -0.3002  0.1115
19594W        W38448  16.610   3.451   4.396  0.0192  0.1183  0.2769
19595W        W38449  10.062   2.277   0.323 -0.2356  0.0869  0.1030
19596W        W38450  17.378  18.404   4.172  0.0199  0.1815 -0.2744
19597W        W38451   4.175  16.516  11.340  0.1439 -0.0693 -0.3659
19598W        W38452   0.551  17.142  13.070  0.0561  0.2314 -0.0650
19599W        W38453  10.385   5.763   2.413 -0.0930  0.0390 -0.0264
19600W        W38454  15.971  14.776   1.525 -0.0177  0.2082  0.1830
19601W        W38455  10.145  14.858  13.132  0.0076  0.0185 -0.1323
19602W        W38456   4.298  18.713   4.748  0.0437 -0.1668  0.2846
19603W        W38457   0.967  12.128   3.402 -0.0384 -0.2577  0.1353
19604W        W38458  17.569   6.441  14.737  0.0676 -0.0819 -0.2704
19605W        W38459   2.984  11.037  10.856  0.0347  0.0781 -0.2219
19606W        W38460   8.168  17.096   3.113 -0.0177 -0.0874 -0.1855
19607W        W38461   6.744  17.845   0.734  0.0337 -0.1014 -0.0676
19608W        W38462  13.113   9.339  11.171  0.1998 -0.0348 -0.0787
19609W        W38463   1.431   6.774   1.065 -0.0045 -0.2045  0.1056
19610W        W38464   9.395  13.354  12.322  0.2575 -0.1878 -0.1146
19611W        W38465   9.178  12.015   1.421  0.1135  0.1563 -0.2874
19612W        W38466  12.528  15.674   0.706 -0.2249 -0.0901 -0.0687
19613W        W38467   5.675   0.896   1.014  0.0219  0.1298 -0.1814
19614W        W38468   1.905   1.630  11.888 -0.2006 -0.1853  0.0171
19615W        W38469   3.813  15.158  12.666  0.1054  0.2235 -0.1232
19616W        W38470   0.514  16.808  12.683  0.0427 -0.0956  0.3803
19617W        W38471   6.205   4.682   3.576 -0.2133  0.2436  0.0940
19618W        W38472  18.125   0.245  13.127 -0.0598  0.1344  0.0332
19619W        W38473  13.662   4.617   3.500  0.1465 -0.0299  0.1349
19620W        W38474  18.326  13.278   0.007 -0.3188  0.1177 -0.2229
19621W        W38475   7.094  10.346  14.578  0.0375 -0.1678  0.4498
19622W        W38476  17.272  13.271   2.185 -0.1018  0.2173  0.0174
19623W        W38477  11.233   8.338  13.099 -0.0880 -0.1214  0.0948
19624W        W38478   4.788   0.928  12.284 -0.2765  0.1337 -0.1642
19625W        W38479   1.459   4.190  10.748  0.0073  0.0264  0.3734
19626W        W38480   5.601  17.778  12.517  0.1923  0.1129 -0.0595
19627W        W38481   1.564  11.842  11.473 -0.1704 -0.2738 -0.3247
19628W        W38482  15.716  14.978   2.420  0.1906  0.1620 -0.1819
19629W        W38483   6.873  14.856   3.481  0.2329  0.1291  0.2224
19630W        W38484  14.282   6.481  12.343 -0.2636  0.3631 -0.3084
19631W        W38485   4.758   6.454  13.614 -0.0426 -0.1044 -0.2320
19632W        W38486  16.574   5.968  11.701  0.2066  0.1825 -0.3582
19633W        W38487   9.211  11.176  11.323 -0.1148  0.1374  0.1078
19634W        W38488  10.125   0.528   2.588  0.0620 -0.1189 -0.2859
19635W        W38489   6.876   0.843   1.960  0.1029 -0.0916  0.2555
19636W        W38490  17.498  14.576   0.995  0.2478 -0.3386 -0.0980
19637W        W38491   1.492  16.079   0.508  0.1621  0.0967 -0.0717
19638W        W38492   8.095   2.285  14.112  0.0911  0.1568 -0.0093
19639W        W38493   6.312   2.470   0.883  0.0437  0.1844  0.0032
19640W        W38494   8.056  14.323   4.001  0.1412  0.1993 -0.2181
19641W        W38495  13.091  13.099  10.094 -0.1682  0.1820  0.3279
19642W        W38496  18.234   3.217   9.597  0.0196  0.3590 -0.2335
19643W        W38497   9.175   1.625  14.015 -0.1304  0.0879 -0.0847
19644W        W38498  17.834  17.685   2.315 -0.1790  0.1098  0.3744
19645W        W38499   6.909  14.933  12.965  0.1616  0.2761  0.1099
19646W        W38500   3.641  15.722   0.092 -0.1935 -0.2911  0.1067
19647W        W38501   8.336   0.786  14.306  0.0625  0.0131 -0.1323
19648W        W38502  15.758   5.565  12.865 -0.1390 -0.1537  0.1523
19649W        W38503  14.353  15.180  13.963 -0.1713  0.0545  0.2643
19650W        W38504  11.287   1.053   1.526 -0.1240 -0.1329 -0.1611
19651W        W38505  18.130  14.008   0.463  0.3316 -0.1004 -0.1134
19652W        W38506   9.445  18.164  14.986 -0.0660 -0.2089  0.1680
19653W        W38507  17.071   6.122   1.940  0.2779  0.0095  0.2411
19654W        W38508  13.621   7.162  11.664 -0.0043 -0.1169 -0.1824
19655W        W38509  10.018  18.837   1.395 -0.1269  0.0264  0.0799
19656W        W38510  14.533   6.314  13.467  0.2608  0.0273 -0.1037
19657W        W38511   8.225  15.100  12.765 -0.0504  0.0210  0.2644
19658W        W38512   2.757  12.620  11.664  0.1229  0.3079 -0.1313
19659W        W38513   9.635  15.064  13.223 -0.1087 -0.0903  0.1550
19660W        W38514   4.770   7.039  11.695  0.3804 -0.0500  0.2775
19661W        W38515  17.686   8.360  13.053  0.0396 -0.0603  0.0076
19662W        W38516   4.168   0.711  14.058 -0.1143 -0.0916 -0.0284
19663W        W38517  11.664  16.815  13.920  0.0488 -0.1072  0.0332
19664W        W38518   0.807  11.359  10.311 -0.1291 -0.1629 -0.0822
19665W        W38519  13.414  12.532   0.922 -0.3662 -0.2824  0.0393
19666W        W38520   1.751  11.927  13.808  0.1448  0.1002 -0.0797
19667W        W38521  16.189   2.433   0.559 -0.1285  0.2043  0.0874
19668W        W38522  16.363   9.461   1.174  0.3343  0.1021  0.0819
19669W        W38523   3.441  10.971   0.452  0.0974  0.0381 -0.0341
19670W        W38524  12.981   3.651  14.066 -0.1674  0.2087  0.2001
19671W        W38525   1.093  16.306  14.839  0.0329  0.2642 -0.0421
19672W        W38526  13.486   4.270   3.851  0.1996  0.1281 -0.3904
19673W        W38527   0.986   7.018   3.870 -0.0298 -0.0286 -0.0652
19674W        W38528   3.722  11.827  15.070 -0.2791  0.1274  0.2095
19675W        W38529  17.915  13.288   1.774 -0.2186 -0.1382 -0.0831
19676W        W38530   3.733  11.464   1.168 -0.2273  0.0471 -0.0323
19677W        W38531   5.782  18.308   1.187 -0.1546 -0.0265 -0.0159
19678W        W38532  13.336   6.448  15.119 -0.0716 -0.1021  0.0005
19679W        W38533   0.317   9.793  10.629 -0.2717 -0.1031 -0.2870
19680W        W38534  11.417  15.450  12.894 -0.0970 -0.5591  0.1284
19681W        W38535   3.378  12.074   3.879  0.1990 -0.1537  0.2049
19682W        W38536   5.488   1.354   1.013 -0.0392 -0.0614  0.2360
19683W        W38537  18.314   8.921   2.193  0.0896 -0.1269  0.0616
19684W        W38538  17.044   6.996  13.468 -0.4252  0.1984  0.1164
19685W        W38539  12.242   5.321   1.240  0.1442  0.1628 -0.0749
19686W        W38540  13.509   1.468   0.760 -0.1595 -0.1377 -0.2570
19687W        W38541   6.172   4.687   2.199 -0.1974 -0.1190  0.0719
19688W        W38542  13.624  11.314   4.583 -0.3944  0.1294 -0.0605
19689W        W38543   1.257  10.834  15.068  0.0736 -0.1511  0.4509
19690W        W38544   8.367  15.240  11.784  0.1381  0.1324 -0.0532
19691W        W38545   4.899   3.017  14.517  0.2027 -0.3094 -0.0675
19692W        W38546   6.061  18.530   3.417 -0.2871  0.0390 -0.0334
19693W        W38547   7.128  14.790   4.398  0.0227 -0.2816 -0.2206
19694W        W38548  15.293  14.224  10.269  0.1501 -0.1075 -0.2205
19695W        W38549   1.759   7.474  12.113  0.0542  0.0914  0.0635
19696W        W38550  11.858  15.157  13.201 -0.2532  0.0071  0.2403
19697W        W38551  16.427  12.819  13.362  0.0592 -0.2019  0.1594
19698W        W38552  16.180   7.143  12.347 -0.1135  0.1117  0.1422
19699W        W38553   8.926  10.236   5.351  0.0193 -0.3972 -0.0718
19700W        W38554   3.069  14.913   3.697 -0.0455 -0.0385  0.1217
19701W        W38555   0.281  12.927   4.667  0.2580  0.0507  0.2061
19702W        W38556  13.353  18.735  14.304 -0.0828 -0.2272 -0.1152
19703W        W38557   7.271  17.672   0.644  0.1811 -0.0808  0.0910
19704W        W38558  13.836   0.665  12.796  0.2015  0.0621  0.1198
19705W        W38559  15.648   0.702   1.412 -0.0225 -0.1308 -0.2455
19706W        W38560  12.208   9.749  11.113 -0.3119  0.1432 -0.1494
19707W        W38561  11.211   7.900   0.140  0.0779  0.1623 -0.2493
19708W        W38562  13.508  15.819  11.074 -0.3215  0.1300 -0.1194
19709W        W38563   3.361  10.362   9.936  0.0939 -0.1119 -0.0496
19710W        W38564  18.625   3.164   3.639  0.0564 -0.0537  0.1118
19711W        W38565  17.661   4.594  12.457  0.1686  0.0921  0.0329
19712W        W38566  16.873  13.457   3.253  0.0324 -0.1276  0.1591
19713W        W38567   1.625  17.689   4.046  0.2681  0.0876 -0.2465
19714W        W38568  16.102   9.959  13.794  0.1023 -0.2406  0.0898
19715W        W38569   3.464   7.331  11.028 -0.0467  0.0495  0.0276
19716W        W38570  11.575  17.987   1.494  0.2989  0.1968  0.0154
19717W        W38571   8.274   2.162   3.166 -0.0201  0.1214  0.0402
19718W        W38572  10.919   0.577  12.205 -0.0297  0.1287  0.0314
19719W        W38573   4.920  12.157  12.976  0.2506  0.3858 -0.3642
19720W        W38574   4.914   2.525  12.285 -0.0959  0.2847 -0.0002
19721W        W38575  17.051   8.780  14.800  0.0247 -0.1015  0.1646
19722W        W38576  18.181  10.581   0.894  0.2969 -0.0654  0.0548
19723W        W38577  10.607   6.828  11.920 -0.0596  0.1791 -0.1293
19724W        W38578   4.860   5.824   1.243 -0.0128 -0.2642  0.1116
19725W        W38579  14.792  15.625   1.002  0.4235  0.0094 -0.2192
19726W        W38580   0.079  15.475  13.353  0.1210 -0.1122  0.0446
19727W        W38581  17.029  17.985   2.782 -0.0552 -0.0537 -0.0945
19728W        W38582   4.111  14.296   0.454 -0.0830  0.1153  0.2515
19729W        W38583   7.515  16.624   4.153 -0.4562  0.1477  0.0410
19730W        W38584  10.886   0.969   2.396  0.0458 -0.0634  0.1119
19731W        W38585  12.896   3.597   1.255  0.0575 -0.1029 -0.3217
19732W        W38586  15.832   4.522  11.576  0.0914 -0.0074 -0.1224
19733W        W38587  11.281   5.640   4.192 -0.1729  0.5135 -0.2679
19734W        W38588   8.840   7.755  13.760 -0.0145  0.0016 -0.0506
19735W        W38589  14.363   1.154   1.110 -0.1151  0.1797  0.0761
19736W        W38590  11.532   2.813   1.005  0.1715  0.0722  0.1353
19737W        W38591   5.170   6.249  12.643 -0.0587  0.0400  0.0544
19738W        W38592   7.113  18.715  14.993  0.0575 -0.2679  0.0608
19739W        W38593   2.886  13.894   2.701  0.0533  0.0790  0.0045
19740W        W38594   5.491   3.564   2.178 -0.0248 -0.2326  0.0692
19741W        W38595  16.519   7.602   4.401  0.1894 -0.1420 -0.2386
19742W        W38596  16.738   2.138   1.452 -0.0553 -0.4897  0.0606
19743W        W38597  16.448   5.751  14.555  0.1097  0.1054 -0.1390
19744W        W38598   8.731  12.021   0.090 -0.0717  0.1995 -0.0007
19745W        W38599  15.960  10.741   2.903  0.2705 -0.0270  0.3070
19746W        W38600  12.994  12.140   3.385 -0.1665 -0.1148 -0.2622
19747W        W38601  10.995  18.479   3.834  0.1459  0.1842  0.1333
19748W        W38602  15.654  10.234   0.486 -0.2355 -0.3863  0.1784
19749W        W38603  12.075   4.445   2.333 -0.0713  0.1550 -0.0033
19750W        W38604   2.272  17.482   2.958 -0.1013  0.0622  0.2363
19751W        W38605   2.555  18.546  13.857  0.0620 -0.0189  0.1897
19752W        W38606  15.001  13.503   3.444 -0.0217  0.0426 -0.0109
19753W        W38607   1.835   9.156  14.159  0.0367 -0.0379  0.0651
19754W        W38608  13.945  15.392   4.436  0.2890 -0.1869  0.0343
19755W        W38609   7.971  11.419   3.659  0.1976  0.0141 -0.0007
19756W        W38610   1.977   8.508   1.527 -0.3443 -0.2059  0.2960
19757W        W38611   3.049  11.958   2.408 -0.0904 -0.1510  0.0712
19758W        W38612  12.969   6.622   5.743 -0.2347 -0.1681  0.0210
19759W        W38613   8.137  12.938  10.967  0.1270 -0.0750 -0.2440
19760W        W38614   4.876  17.375   1.755  0.1506 -0.2160  0.0384
19761W        W38615   6.247  11.738  13.093 -0.1025 -0.0967 -0.1166
19762W        W38616  12.222   9.498   3.428  0.4432  0.1704  0.0463
19763W        W38617  11.774  10.107  11.412 -0.1475 -0.1782  0.0054
19764W        W38618  17.230   0.200   2.586 -0.1680  0.0964  0.0885
19765W        W38619   4.782  16.674   0.501 -0.0532  0.0671 -0.2244
19766W        W38620   1.105   5.934   0.788  0.0743 -0.4971 -0.2932
19767W        W38621  13.115  15.367   2.077  0.4169 -0.0006 -0.3352
19768W        W38622   0.981   1.264  13.141 -0.1494  0.0128 -0.1050
19769W        W38623  14.057   1.638  10.861  0.0478  0.1352 -0.2578
19770W        W38624  16.692   6.768   3.050  0.1809  0.1860  0.0054
19771W        W38625  15.485  14.411  14.872 -0.0318 -0.1216 -0.2395
19772W        W38626  18.630  11.960  12.001 -0.2715 -0.1630  0.3100
19773W        W38627  15.789  14.626  13.397 -0.2051  0.1104  0.0928
19774W        W38628   0.229  12.058   1.231  0.3171 -0.0716  0.0637
19775W        W38629  17.583   1.368   3.947 -0.3482 -0.0753  0.2072
19776W        W38630   4.518   0.101   3.535 -0.1213 -0.0159  0.0696
19777W        W38631  14.578   0.439   3.894  0.1602 -0.2596  0.0054
19778W        W38632  12.910   3.903   2.131 -0.0123  0.0919  0.1161
19779W        W38633   9.669   8.729   4.580  0.1576 -0.0603 -0.1524
19780W        W38634  13.234  17.182   1.178  0.1318  0.0743 -0.1322
19781W        W38635   1.220  15.250  14.748  0.2508  0.2988 -0.1158
19782W        W38636   5.566   7.522  10.673  0.2638 -0.1472  0.1572
19783W        W38637  10.739  12.689  11.388 -0.1315  0.0312  0.1447
19784W        W38638   2.892  11.905  11.313  0.1308  0.0175 -0.0575
19785W        W38639   6.599   7.701  14.987  0.0473  0.0220  0.0695
19786W        W38640   2.387   6.766  10.625 -0.0439  0.0885 -0.0032
19787W        W38641  12.331  14.561   1.135 -0.1027  0.1540  0.0640
19788W        W38642  16.491  13.960  13.432  0.2247  0.0200 -0.1331
19789W        W38643  15.065  13.536  13.909  0.0188 -0.0535  0.0788
19790W        W38644   7.223   2.841  12.821 -0.2691  0.2263  0.0167
19791W        W38645   5.227   1.374  10.250 -0.0940  0.0263 -0.0774
19792W        W38646   4.140  14.084   4.284  0.0823  0.0633  0.4321
19793W        W38647  11.748  10.611  13.978  0.0125 -0.1394 -0.2766
19794W        W38648   4.955   6.917  14.895 -0.0365  0.1043 -0.1637
19795W        W38649  13.176  16.946  14.692  0.0924  0.1693 -0.0848
19796W        W38650  10.557   4.632   1.792 -0.0151 -0.4116  0.0098
19797W        W38651  10.428   2.414   0.576 -0.1846  0.0994 -0.1144
19798W        W38652   5.672   3.894   1.318 -0.1782  0.2055 -0.1265
19799W        W38653  17.341  11.565   0.048  0.1320  0.1643  0.1398
19800W        W38654   2.886   9.329   1.696  0.1231  0.2020 -0.1439
19801W        W38655   1.549   8.184   2.526  0.3817  0.0845  0.0694
19802W        W38656   1.725   4.941  14.095  0.0092 -0.1592 -0.0876
19803W        W38657   6.331   5.807   3.500  0.2447 -0.2089  0.4365
19804W        W38658   3.562  18.183  11.167 -0.0815 -0.1484  0.0774
19805W        W38659   6.992  14.412   0.048  0.1994  0.0358 -0.0597
19806W        W38660   4.320  10.076   2.434 -0.0767 -0.3182 -0.0873
19807W        W38661  11.374   4.979   2.533 -0.0552  0.0910  0.1526
19808W        W38662  17.041   7.141  14.367  0.2086  0.1536  0.0432
19809W        W38663  10.498  13.917  12.203 -0.1708  0.0254  0.0339
19810W        W38664   8.372  18.480   3.950 -0.0587  0.1614 -0.2342
19811W        W38665   0.996   8.623  10.908 -0.1056 -0.0661  0.1010
19812W        W38666   1.108  12.257  10.414 -0.0761 -0.1370 -0.0178
19813W        W38667   9.984  12.635  12.603 -0.2440  0.0080 -0.1978
19814W        W38668  11.896   7.076  14.107  0.3659  0.2056 -0.0197
19815W        W38669   5.227  13.244  13.146  0.0594  0.1919  0.2441
19816W        W38670   5.818   4.361   1.393  0.1896  0.0033  0.1474
19817W        W38671  11.606  18.699  12.944 -0.2898 -0.1498 -0.1143
19818W        W38672  14.750   7.441   2.471 -0.2020  0.0618  0.3433
19819W        W38673   5.147  17.414  12.501 -0.1964 -0.1224  0.0023
19820W        W38674   4.597   6.142  11.935 -0.5034  0.0065  0.1635
19821W        W38675   3.514  10.603   3.645 -0.0818 -0.0432  0.0704
19822W        W38676  14.379   0.720  11.366 -0.0643 -0.2539  0.0501
19823W        W38677  12.228  16.487  11.283  0.1356  0.0068 -0.0143
19824W        W38678   5.841   7.031   1.382  0.2980  0.0083 -0.3921
19825W        W38679   3.266  14.825   1.146 -0.3788  0.0416 -0.0712
19826W        W38680   6.235   6.220  11.171  0.1282 -0.0171 -0.3499
19827W        W38681  17.005   6.008   9.801  0.3138 -0.1013  0.4576
19828W        W38682  10.701  16.833  12.958  0.2244  0.1923 -0.0857
19829W        W38683  15.954   2.154   3.049 -0.0206  0.2599  0.1043
19830W        W38684  16.908  16.898  12.683  0.0918 -0.0782  0.2154
19831W        W38685   2.660  10.866   4.106 -0.2937  0.0589 -0.0855
19832W        W38686   8.066   6.849   3.317  0.1855 -0.0351  0.1015
19833W        W38687  15.995   8.991   1.779  0.1652 -0.1278  0.0017
19834W        W38688   6.040   3.653  13.009 -0.0730  0.1111  0.0997
19835W        W38689  10.993   8.817   2.266  0.1878  0.0636 -0.2201
19836W        W38690   3.075  16.058   1.264  0.3375  0.3275  0.0673
19837W        W38691   1.715   8.491  13.287  0.1267 -0.1607 -0.0618
19838W        W38692  11.264  11.323  13.839  0.2720  0.0904 -0.0833
19839W        W38693  17.896   4.741  13.480  0.4056  0.1432 -0.1673
19840W        W38694   7.372  16.027  13.620  0.2768 -0.1747  0.1473
19841W        W38695   3.606  17.317   2.853 -0.0541  0.0196  0.1673
19842W        W38696   4.739  14.532   0.581  0.0317  0.0970 -0.2083
19843W        W38697   5.638   7.495   4.115  0.1742 -0.1469  0.0087
19844W        W38698  16.933  11.062  10.942 -0.2222 -0.0067 -0.0948
19845W        W38699  18.818   6.946   4.186  0.1043 -0.2173  0.0243
19846W        W38700  10.513  16.576   0.923  0.1305 -0.0641 -0.3082
19847W        W38701   3.669  16.261  14.512 -0.2398 -0.0899 -0.0460
19848W        W38702  10.536   0.112  14.984  0.0629 -0.0931  0.4032
19849W        W38703   5.799   6.956   3.649 -0.0356  0.0871 -0.1342
19850W        W38704   2.933   5.875   1.297 -0.3766 -0.5995 -0.4292
19851W        W38705  13.556   3.446  12.844  0.0669  0.1339 -0.0709
19852W        W38706  15.117  10.285   4.174  0.3891 -0.0182 -0.0883
19853W        W38707   8.067  18.838  13.990 -0.0460  0.0199 -0.0940
19854W        W38708  12.226   8.270  11.505 -0.2843 -0.0910 -0.1721
19855W        W38709   9.067   3.028  12.809  0.0170  0.0731 -0.2705
19856W        W38710  13.157   3.163   2.273  0.0774  0.2202  0.3101
19857W        W38711   3.556   4.275  12.243  0.0551 -0.1570  0.0141
19858W        W38712   0.015   9.900  12.928  0.2889  0.0248  0.3147
19859W        W38713  14.994  14.799  12.698 -0.0576 -0.0703  0.0958
19860W        W38714  15.920  16.949   3.312 -0.1494  0.2795 -0.0906
19861W        W38715  11.664  16.050   2.780 -0.1232  0.0599  0.1640
19862W        W38716   1.998  10.060  10.673 -0.2645  0.0273 -0.0491
19863W        W38717   2.598  13.765  12.688 -0.1558  0.1551 -0.2161
19864W        W38718   8.620   0.797   2.476  0.2587 -0.1963  0.2136
19865W        W38719   4.454   8.685   1.686  0.1955  0.2534  0.2163
19866W        W38720  13.273  11.738   2.277  0.0632 -0.1266 -0.1131
19867W        W38721  16.578  12.766   4.538 -0.1399 -0.3371  0.0246
19868W        W38722  18.419  18.318   0.169  0.3069  0.1024  0.2594
19869W        W38723   9.190   0.547   2.925  0.4361  0.0054  0.1036
19870W        W38724  17.973  16.286  12.066  0.3156  0.0504  0.2871
19871W        W38725  15.924   6.417   4.123 -0.1809 -0.0999 -0.1077
19872W        W38726   7.057  11.811   0.892  0.3738  0.0245 -0.1107
19873W        W38727   1.251  16.842   3.618  0.1526 -0.2589 -0.0553
19874W        W38728  15.838   8.315  13.047 -0.1711 -0.0288 -0.1600
19875W        W38729   6.524   3.606   2.819  0.1739 -0.0097  0.0352
19876W        W38730   6.041  14.148   2.358 -0.5365  0.0487 -0.1148
19877W        W38731  17.972   7.959  11.297 -0.4445 -0.1144  0.0709
19878W        W38732  16.436  12.517   0.158  0.0076  0.3533 -0.2049
19879W        W38733   7.706  17.284  13.450 -0.1506 -0.1651 -0.0348
19880W        W38734  17.511  11.366  13.570 -0.0436 -0.1935  0.3303
19881W        W38735  15.415  15.070  11.648  0.0865  0.1392 -0.0962
19882W        W38736  18.114   4.085  14.081 -0.0078 -0.1542 -0.1956
19883W        W38737  14.258  17.746   2.783  0.0295  0.0554  0.1895
19884W        W38738  17.493   7.248  13.461  0.0172  0.0097  0.0999
19885W        W38739   0.817  13.578   1.227  0.0341 -0.2183  0.1442
19886W        W38740  12.022  15.066   1.841  0.2193  0.3502 -0.1512
19887W        W38741  12.220   4.051   3.193  0.0670 -0.4206 -0.0410
19888W        W38742   0.128   0.541  11.833  0.0657  0.2553  0.1512
19889W        W38743  11.094   0.685  14.047  0.1232 -0.0838  0.0101
19890W        W38744  12.598   7.513  10.459  0.0356  0.2782 -0.1828
19891W        W38745   0.872   9.343  12.840  0.1998  0.0236 -0.1992
19892W        W38746  13.275   7.673  12.436 -0.1759  0.2719  0.0149
19893W        W38747  10.503  11.903   1.974  0.0339 -0.1110 -0.0875
19894W        W38748  18.770   0.248  13.103  0.1146  0.2049 -0.0199
19895W        W38749   9.174   5.669   0.545  0.3710  0.1383 -0.0713
19896W        W38750  17.409   2.585   1.179 -0.0541 -0.1078  0.0464
19897W        W38751  17.290  17.299  15.002 -0.0674  0.0598  0.2519
19898W        W38752  10.668   7.360  14.732  0.1124 -0.1951  0.1636
19899W        W38753  18.499   4.969   5.040  0.0938 -0.0532 -0.0509
19900W        W38754   9.231  14.283  12.276 -0.2229 -0.2454 -0.0301
19901W        W38755   6.080  17.654   0.524  0.0576  0.2715 -0.0803
19902W        W38756   5.735   6.277  11.006 -0.3621 -0.3714 -0.1371
19903W        W38757  16.716  15.255  14.732  0.1428  0.1879  0.2556
19904W        W38758  11.321  15.662   2.649  0.0947  0.1079  0.0511
19905W        W38759  14.068   6.991   3.463 -0.0008 -0.2924  0.0035
19906W        W38760   7.970   4.444   2.832 -0.1601 -0.0844 -0.0851
19907W        W38761  13.533   2.269   3.949 -0.2273 -0.1171 -0.2788
19908W        W38762   4.494  12.901  14.194 -0.0350 -0.2430 -0.0073
19909W        W38763  10.808  13.697   3.966  0.0421 -0.4077 -0.0513
19910W        W38764  10.110   8.621  12.387  0.2367  0.1195 -0.0250
19911W        W38765  15.254  14.250   3.237  0.0273 -0.0313  0.0142
19912W        W38766  15.482   9.934   5.020  0.3504 -0.1171 -0.2355
19913W        W38767  18.249  16.722   4.547  0.2515 -0.2285  0.0625
19914W        W38768  11.631   5.420   5.055 -0.0678  0.0536  0.2526
19915W        W38769   3.439  10.158  13.598  0.4269 -0.0888 -0.0818
19916W        W38770   1.015  16.624   1.114 -0.1706  0.4090  0.1876
19917W        W38771  17.697   7.687   1.508  0.4699  0.4060 -0.2501
19918W        W38772  17.815   7.194  12.730  0.3724 -0.0116  0.0706
19919W        W38773   5.143   6.648  14.505 -0.2678  0.2613  0.1475
19920W        W38774  13.967   7.664  13.176  0.5167 -0.2177  0.1932
19921W        W38775  14.097  13.056  14.441 -0.1011  0.0899  0.0611
19922W        W38776   6.277   9.104   0.533 -0.0689 -0.0424 -0.0076
19923W        W38777   6.167   4.497  13.838 -0.0898  0.2290 -0.0568
19924W        W38778  12.238   9.586  14.649 -0.1149 -0.1537 -0.2198
19925W        W38779  18.222  10.118   2.517  0.0600  0.1280 -0.0702
19926W        W38780  10.580  18.624  12.143 -0.0966 -0.0254 -0.1785
19927W        W38781   3.560  12.781  12.888 -0.1690 -0.0316  0.1447
19928W        W38782   5.786  11.081  14.811  0.1791  0.0417  0.3227
19929W        W38783  15.689   9.427   2.792 -0.1129 -0.0647 -0.0766
19930W        W38784   3.691  12.572  14.445 -0.1804 -0.1135 -0.5087
19931W        W38785  16.945   6.507  14.070 -0.1065  0.1597 -0.0325
19932W        W38786  10.078   6.623  13.197  0.0989  0.2399  0.2112
19933W        W38787  17.536  16.265  11.774  0.1141 -0.0735 -0.1698
19934W        W38788  16.252   8.657  10.732  0.0081 -0.1204 -0.0121
19935W        W38789   4.844  11.537  11.943  0.0551 -0.0149 -0.0789
19936W        W38790   6.074  14.991   0.867  0.2130 -0.1614  0.1591
19937W        W38791   1.755  16.421   2.765  0.0812  0.0469 -0.1316
19938W        W38792   5.648   9.604   2.388  0.0545  0.0801  0.0976
19939W        W38793  15.385  18.422  11.614  0.0324  0.3527  0.0182
19940W        W38794   4.347   3.787   4.239 -0.1937 -0.0502  0.0873
19941W        W38795   3.684   1.816   3.292  0.2578 -0.0512  0.1639
19942W        W38796   6.814  15.467  13.091  0.2398 -0.3308  0.0234
19943W        W38797   0.425   8.202  10.553 -0.1163  0.0705 -0.0062
19944W        W38798  12.313  17.619  12.160  0.0539 -0.3563 -0.2668
19945W        W38799   7.196   4.879   5.363 -0.0390 -0.2597 -0.0420
19946W        W38800  15.091  17.714   4.030 -0.4967 -0.0830  0.0077
19947W        W38801  17.005   9.631  10.394 -0.0210  0.2024 -0.0240
19948W        W38802   0.303  13.203   4.144 -0.5143 -0.1002 -0.0927
19949W        W38803   1.687   2.506  13.401  0.0732 -0.0017 -0.0404
19950W        W38804   2.659   2.373   1.201  0.2000  0.0106 -0.0603
19951W        W38805   6.710   3.092   0.901 -0.1669 -0.2386  0.1365
19952W        W38806   4.144   4.509  14.566 -0.0626 -0.3529 -0.0668
19953W        W38807   8.019  10.009  14.815  0.0711 -0.0910 -0.1198
19954W        W38808  17.917  17.593  13.085 -0.1425  0.3052  0.1217
19955W        W38809  12.622  10.495  14.462  0.1574 -0.0332  0.1536
19956W        W38810   4.731   9.972  14.622 -0.0098 -0.0265 -0.0837
19957W        W38811   2.748   0.126  13.815  0.0682 -0.3610  0.2889
19958W        W38812   9.519   2.030   2.105 -0.0912 -0.2378  0.0302
19959W        W38813   0.711  11.889  11.571 -0.3917 -0.0762  0.1115
19960W        W38814  18.590   3.465  11.073  0.1439 -0.0334 -0.1425
19961W        W38815   8.264  17.859  10.515 -0.3066  0.3224  0.0941
19962W        W38816   8.783   4.877  11.312 -0.1281  0.1217  0.5193
19963W        W38817   7.631  15.975   0.238  0.2740 -0.2105  0.1256
19964W        W38818   1.652  12.127   1.074  0.0170  0.2181 -0.0709
19965W        W38819   8.219   2.599   4.049 -0.0169  0.0598 -0.2582
19966W        W38820   7.621  13.194  11.212  0.1338 -0.3209 -0.0326
19967W        W38821   4.774  12.628   0.673 -0.1126 -0.1615  0.0747
19968W        W38822   9.698   6.930   3.806 -0.2435 -0.1946 -0.0660
19969W        W38823   3.677  17.270  13.483  0.1257  0.0389  0.3119
19970W        W38824   2.267   0.545   3.863  0.1290  0.0186  0.1005
19971W        W38825   0.796   2.566  14.899  0.1681 -0.2274  0.3830
19972W        W38826  10.978  16.752   0.101  0.2791 -0.4554 -0.1344
19973W        W38827  17.237  13.583  13.529 -0.1565 -0.1427  0.0584
19974W        W38828   6.870  11.890   2.183  0.0187  0.0981 -0.1711
19975W        W38829   3.870   8.209   2.843 -0.0153  0.0474  0.1125
19976W        W38830   2.705   1.572   3.405 -0.2832  0.0523 -0.0626
19977W        W38831   0.611  14.694   2.613 -0.2160  0.0536  0.0089
19978W        W38832  11.012   6.310  12.543 -0.0773  0.1067  0.1048
19979W        W38833   8.131  15.343  14.396  0.1446 -0.0448  0.1513
19980W        W38834   0.236  12.336   1.699 -0.0844  0.2066 -0.0401
19981W        W38835  16.891  11.169  12.242  0.0296  0.1090  0.2098
19982W        W38836  16.336  14.498  11.738 -0.4703  0.1511  0.2615
19983W        W38837  14.535  15.593  13.584  0.3081 -0.4066 -0.2297
19984W        W38838  11.749  17.080   1.056  0.0324 -0.0541 -0.1773
19985W        W38839   2.564   8.729  12.610 -0.1854  0.0520 -0.0656
19986W        W38840  11.250  13.342  10.629 -0.1689 -0.1774  0.1694
19987W        W38841   8.789   1.158  12.235  0.0710  0.0892 -0.1503
19988W        W38842   0.625   7.402   4.241  0.2328 -0.1444 -0.0928
19989W        W38843  16.194  12.052  11.519  0.0764 -0.1762 -0.0223
19990W        W38844   1.033   2.083   3.072 -0.0405  0.0389  0.2334
19991W        W38845  15.924  13.813  11.084  0.0239  0.1645  0.1550
19992W        W38846   7.723   6.624  11.879  0.0318  0.0504  0.0806
19993W        W38847  16.248   3.395  13.029 -0.1521 -0.0514  0.1847
19994W        W38848   2.189   9.027   9.994  0.3079 -0.0452 -0.2039
19995W        W38849  17.589   7.514   3.959  0.2776 -0.2562  0.1577
19996W        W38850  18.565   2.306   4.399  0.1495  0.1032  0.2645
19997W        W38851  14.236   3.030  14.663  0.1472  0.1185 -0.2647
19998W        W38852   9.789  10.434  12.193  0.3130 -0.0914  0.1661
19999W        W38853   8.788   8.274  13.912 -0.0794 -0.1486  0.2983
20000W        W38854   4.026  11.467   1.662  0.0439 -0.0691  0.0757
20001W        W38855   7.957   2.159  12.364 -0.2354 -0.0433 -0.3093
20002W        W38856   7.644   6.982   4.839 -0.5032 -0.1399 -0.1421
20003W        W38857   9.394   6.615  12.395 -0.1416 -0.1017 -0.0446
20004W        W38858  12.751  16.811  12.995 -0.0856  0.3746  0.0552
20005W        W38859   9.137   4.269   2.580 -0.2993  0.0987 -0.1261
20006W        W38860   5.090  15.584   1.393  0.0445 -0.0743  0.2262
20007W        W38861   2.728   1.649   4.022 -0.0712 -0.0444 -0.3796
20008W        W38862   9.837  11.766  11.731 -0.0732 -0.0491 -0.1788
20009W        W38863  16.899  17.258   4.999  0.0780  0.1246 -0.1926
20010W        W38864  15.068   5.519   0.663 -0.0721 -0.0562  0.3797
20011W        W38865  13.751  16.491  12.861 -0.1412 -0.1121 -0.1477
20012W        W38866   0.674   5.636   2.730  0.0236  0.3913 -0.1016
20013W        W38867  11.226  12.244  13.908  0.0859 -0.2790  0.0247
20014W        W38868   7.241   3.787  14.309  0.0713  0.0619 -0.0031
20015W        W38869   3.595  17.915   4.106  0.2565  0.1137  0.0690
20016W        W38870   0.905   7.414  11.717  0.2388 -0.1226 -0.4271
20017W        W38871   0.150  11.959   2.576  0.0667 -0.2033  0.1174
20018W        W38872  15.197  13.062  11.677 -0.2798  0.1157  0.3486
20019W        W38873  10.253   4.976   0.130 -0.1695  0.1471 -0.2144
20020W        W38874  16.683   4.344   3.501 -0.1542 -0.1182  0.0104
20021W        W38875  13.018  18.130  12.069  0.0329  0.2368 -0.1356
20022W        W38876  11.024   9.090   9.929  0.1928 -0.4086  0.1181
20023W        W38877  17.907   5.628  13.037  0.1094  0.0402  0.0997
20024W        W38878   1.777   8.890   1.306 -0.0309  0.1350 -0.1312
20025W        W38879  12.808   1.784  11.936  0.0386 -0.1652  0.2617
20026W        W38880   8.751  15.420  11.473 -0.0134 -0.3415  0.0883
20027W        W38881   8.695   8.345  14.970 -0.1968  0.1625 -0.0159
20028W        W38882  16.326   4.042  11.412 -0.0135 -0.0488  0.0226
20029W        W38883  17.480  16.146   4.250 -0.1881  0.1800  0.2077
20030W        W38884  11.932   8.030   1.133  0.2899 -0.0126 -0.1268
20031W        W38885  16.606  15.350   5.836  0.0922 -0.0808 -0.2727
20032W        W38886  13.791   0.638   3.411  0.1303  0.1998  0.2143
20033W        W38887  14.548  17.963  13.512  0.0275 -0.1637  0.4243
20034W        W38888  15.438   9.705   3.665  0.2031  0.2228 -0.1225
20035W        W38889   9.280  12.264  12.954 -0.1959 -0.0143  0.1930
20036W        W38890   8.393   9.466   4.410  0.2601 -0.0263 -0.0465
20037W        W38891   9.918   3.149  12.354  0.0720 -0.1877 -0.0797
20038W        W38892  18.415  17.957   1.102 -0.1204  0.0147 -0.0659
20039W        W38893   7.853  12.043  13.993 -0.0094  0.1212 -0.0783
20040W        W38894  11.466  14.000   2.342 -0.0553  0.0517 -0.1536
20041W        W38895  14.450  18.312  14.560 -0.1689 -0.1223  0.1443
20042W        W38896  11.808  12.213   2.947  0.2403 -0.3482  0.1227
20043W        W38897  17.671   5.966  13.939  0.1538 -0.0593 -0.0942
20044W        W38898  18.739   2.387   1.861 -0.3762 -0.1650 -0.0639
20045W        W38899  17.838   1.229  13.437 -0.1790  0.2437  0.1479
20046W        W38900   3.531   2.513  11.980 -0.2170 -0.3932 -0.0782
20047W        W38901  16.330  13.831   2.606  0.2590 -0.2261 -0.1137
20048W        W38902  11.996  18.853   0.119 -0.1587  0.0977 -0.0627
20049W        W38903   0.272  13.655  13.001 -0.0181  0.2103  0.0869
20050W        W38904  16.347  12.001   4.298  0.2725 -0.2980 -0.1485
20051W        W38905  14.102  15.768  12.949 -0.0066  0.1436 -0.2157
20052W        W38906   1.496  18.024  12.339 -0.0898 -0.1938 -0.0852
20053W        W38907   6.638   2.333  12.683 -0.0799  0.0405  0.2947
20054W        W38908  10.738  16.831   1.296  0.1313  0.0334 -0.1207
20055W        W38909   5.372   5.823  14.315 -0.0222 -0.0348 -0.0199
20056W        W38910   1.628  13.495  13.784 -0.1766 -0.1221 -0.0491
20057W        W38911   9.614   8.913  12.272 -0.0463 -0.0595  0.0028
20058W        W38912  13.466  18.560  12.816  0.3570  0.1833 -0.0086
20059W        W38913  18.852   4.632  13.776 -0.3014 -0.0532 -0.0398
20060W        W38914  12.439   4.526  11.628  0.0305  0.0535  0.3560
20061W        W38915  13.767  14.083   0.570  0.0850  0.1214  0.1293
20062W        W38916  16.863   4.869   0.516 -0.0626  0.1249 -0.0416
20063W        W38917  12.924  15.047   2.951  0.1493 -0.2133  0.0866
20064W        W38918   7.556   6.194  15.037  0.2813  0.0160  0.1944
20065W        W38919   3.867   3.331  12.124 -0.0343 -0.0537  0.0832
20066W        W38920   0.799   8.006   0.069 -0.0721  0.1146 -0.2884
20067W        W38921  13.384  10.174   3.352  0.3364  0.2708 -0.0109
20068W        W38922   4.852   4.781   0.483 -0.0612 -0.1282  0.0501
20069W        W38923   2.646   7.821  12.010  0.0903  0.0683  0.0731
20070W        W38924  13.109   0.099   1.562  0.2629 -0.1109  0.0048
20071W        W38925  14.143   7.397  12.404 -0.1682  0.0772  0.4312
20072W        W38926  13.183   6.715   3.201  0.1371 -0.0311 -0.0209
20073W        W38927   4.864  18.635   1.023  0.1135 -0.0148 -0.1577
20074W        W38928   7.160  16.133   0.494 -0.2195  0.1096 -0.2878
20075W        W38929  16.663  15.693  14.287 -0.0830  0.0852 -0.2088
20076W        W38930  11.438  18.701  11.981  0.1779  0.1244  0.3212
20077W        W38931  17.369   3.664   2.735  0.1618 -0.3146  0.0407
20078W        W38932   9.637  10.024   1.498 -0.0998  0.2704 -0.0166
20079W        W38933  10.795   2.755   2.729 -0.1304 -0.0154 -0.1874
20080W        W38934  15.506   6.190  12.141  0.0096 -0.0300  0.1513
20081W        W38935  12.815   4.131  14.349 -0.1306  0.4551  0.0349
20082W        W38936  12.760  13.904   3.423 -0.2152 -0.2140 -0.0956
20083W        W38937  16.046  14.972   1.068 -0.1373  0.1826  0.1905
20084W        W38938   6.330   4.522   0.829 -0.1192  0.1078 -0.1484
20085W        W38939   8.848  14.627   1.310 -0.1274  0.2908 -0.1819
20086W        W38940  12.297   1.869  12.049 -0.1994 -0.1354 -0.0435
20087W        W38941   1.566  18.201   3.009 -0.0174  0.0625  0.3190
20088W        W38942  17.665  12.359  14.770 -0.1695  0.3979 -0.1768
20089W        W38943   0.476  18.243  12.168 -0.2445 -0.4070  0.0788
20090W        W38944  16.674  17.813  13.632 -0.1897  0.2097 -0.2191
20091W        W38945  18.680  17.330   3.788  0.3631 -0.2223 -0.1319
20092W        W38946   5.474  13.706   3.262  0.0165 -0.0679  0.0731
20093W        W38947  16.966   2.887   3.169 -0.1414 -0.4284 -0.1504
20094W        W38948  16.084   0.713  13.646  0.2016 -0.0131  0.0677
20095W        W38949   4.151  13.693  12.440 -0.0942 -0.0057  0.1877
20096W        W38950   8.393  17.623  13.418 -0.1817  0.3787  0.0566
20097W        W38951  18.555  17.297  13.578 -0.1912 -0.2494  0.2375
20098W        W38952   1.383   0.613  13.747  0.0281  0.5684 -0.0712
20099W        W38953   7.778   7.592   2.066 -0.1495  0.0769  0.0783
20100W        W38954  14.876   0.903  14.892 -0.1187 -0.2155  0.1166
20101W        W38955  11.646   4.104  13.232  0.0031 -0.2001  0.1391
20102W        W38956  13.284  11.265   0.494  0.3294  0.2827  0.1844
20103W        W38957   3.269   1.185   2.546  0.0204 -0.2056 -0.2524
20104W        W38958   5.551  12.217  11.184 -0.3187  0.2549 -0.2879
20105W        W38959   3.898   2.860   1.875  0.0370 -0.0256 -0.0193
20106W        W38960   6.342   8.059   3.637  0.0772  0.3078 -0.0631
20107W        W38961   1.259   9.385  13.257  0.1371  0.0895 -0.0458
20108W        W38962   5.736  15.423  11.732 -0.0354  0.1690  0.1028
20109W        W38963   9.051  12.599   3.169  0.2872 -0.0841  0.0629
20110W        W38964   9.814  16.814   1.262  0.0457 -0.0919  0.3715
20111W        W38965  11.927   9.213   1.846 -0.0489 -0.2423  0.0647
20112W        W38966   4.388   1.476   5.763 -0.0399  0.2116 -0.2618
20113W        W38967  10.857   9.181  11.662 -0.0276 -0.0900  0.0984
20114W        W38968   9.311  17.392   3.448  0.0866 -0.0261 -0.0606
20115W        W38969  13.482  18.612   4.051  0.1695  0.0383  0.2093
20116W        W38970   8.028   3.417  15.059 -0.1128  0.1825  0.0196
20117W        W38971  16.546   2.502  11.726  0.0011 -0.1776  0.0945
20118W        W38972  14.564   5.709   1.551 -0.1849  0.3803  0.0960
20119W        W38973  17.203   4.657  12.230  0.0576  0.1256 -0.0420
20120W        W38974   4.771   2.534   4.760  0.2582 -0.1585  0.0976
20121W        W38975   5.101   1.994   1.561  0.0961 -0.0269  0.0119
20122W        W38976   4.083  11.754  11.297 -0.0836 -0.0159  0.3390
20123W        W38977   1.745  15.907  11.601  0.2749  0.0465  0.0988
20124W        W38978  14.130  11.644   2.907 -0.2300 -0.0420 -0.0266
20125W        W38979  16.238   4.652   3.512  0.1108 -0.2175 -0.1607
20126W        W38980   9.265  10.652  12.131  0.0737 -0.5113 -0.1080
20127W        W38981   0.136  16.421  12.609  0.2649  0.1840 -0.3258
20128W        W38982  12.961  16.376  13.893 -0.1793 -0.1140  0.0417
20129W        W38983  16.035  18.355  11.651 -0.0451 -0.0020  0.1141
20130W        W38984  17.094  17.440  11.791  0.1200 -0.0672 -0.3038
20131W        W38985   8.598   8.866   3.140  0.1520 -0.2810  0.7055
20132W        W38986   2.534  15.430   0.517 -0.0964 -0.0405  0.2367
20133W        W38987   9.585   0.429   0.152  0.0891  0.1855  0.1616
20134W        W38988   2.141   6.544  10.010 -0.6287  0.2809 -0.2429
20135W        W38989   8.975   4.989  13.537 -0.0721  0.0516  0.0036
20136W        W38990   8.395  17.862  11.000 -0.2808  0.2009  0.0376
20137W        W38991   8.179   6.841   0.211  0.0780  0.0232  0.2863
20138W        W38992  14.741   8.181  14.155  0.1737  0.0987 -0.2393
20139W        W38993   6.741  18.838   2.182  0.1513 -0.1368  0.0545
20140W        W38994   2.363  16.128  10.472  0.3367  0.0392 -0.1408
20141W        W38995  11.939   3.081  13.108 -0.2422  0.2971  0.2070
20142W        W38996   1.879   5.541   3.429 -0.2231  0.4277 -0.1299
20143W        W38997  10.461  12.593   2.843  0.0636 -0.0307  0.3004
20144W        W38998   5.140  14.315  12.777  0.1131  0.0046  0.0798
20145W        W38999  11.857  17.180  14.328 -0.0005  0.0107 -0.0920
20146W        W39000   7.579   6.969   3.361  0.0625 -0.1733  0.0338
20147W        W39001  11.685   8.604   2.725  0.2403 -0.0146 -0.0314
20148W        W39002  15.624   2.055   4.009  0.1690 -0.1584 -0.1370
20149W        W39003  10.568   4.188   0.493  0.0198  0.2382  0.1439
20150W        W39004   4.058   4.907   0.287  0.0012 -0.0984  0.1762
20151W        W39005   2.179   4.547   4.256 -0.2091  0.3406  0.2241
20152W        W39006  12.560   2.449  14.074 -0.2313  0.0672  0.0050
20153W        W39007  12.768   7.882   0.719 -0.0824  0.1202  0.2362
20154W        W39008   7.299   1.787  11.631 -0.2279  0.0875  0.0100
20155W        W39009   9.994   1.929   2.050  0.1719  0.1030  0.1159
20156W        W39010  13.558   5.545   0.240  0.0923 -0.1242 -0.0963
20157W        W39011   7.912  13.417   3.028 -0.1915  0.0397 -0.0429
20158W        W39012   4.034  17.775   4.332 -0.0224 -0.1097  0.0274
20159W        W39013  18.345   3.234  11.743 -0.1425  0.0859 -0.1225
20160W        W39014   1.846  16.094  12.058  0.1755  0.0840 -0.1752
20161W        W39015   4.500  14.328  11.761 -0.0812  0.2372  0.0496
20162W        W39016  15.841  17.340   2.439  0.2543 -0.2773  0.1242
20163W        W39017   9.278   1.726   2.906  0.0315  0.0879  0.0150
20164W        W39018  17.065   9.553   2.847  0.3296  0.2179  0.0445
20165W        W39019   5.069   0.945  14.450 -0.2577  0.2585 -0.0843
20166W        W39020   1.763  18.554   1.141  0.3021  0.1690 -0.0765
20167W        W39021  14.235  18.736  13.180  0.2140  0.0341 -0.4203
20168W        W39022  11.020   5.231  12.758  0.1818 -0.1492 -0.0916
20169W        W39023   3.278   2.389  14.309 -0.1692  0.3749 -0.0576
20170W        W39024  15.644  18.010  14.455  0.0270 -0.0934  0.1548
20171W        W39025   2.488   7.863   2.447 -0.0343  0.0100  0.0592
20172W        W39026  18.717  15.047  13.684  0.0839  0.0862 -0.1385
20173W        W39027  18.035   6.676  14.692  0.3397  0.2906  0.0274
20174W        W39028  18.140   8.886   3.334  0.0271 -0.1272  0.0106
20175W        W39029   0.301  12.486  13.104 -0.5451  0.3368 -0.4258
20176W        W39030   2.350  12.214   0.681 -0.0716  0.4720  0.0042
20177W        W39031  12.287   4.560  13.984 -0.0595 -0.0941 -0.2372
20178W        W39032   7.599  18.291  12.123 -0.0996 -0.1400  0.1477
20179W        W39033   4.840  10.836   0.727  0.1476 -0.0236 -0.0947
20180W        W39034   4.275  14.427   0.002 -0.3715 -0.1573 -0.0642
20181W        W39035  13.094   7.612  10.631 -0.2315 -0.1700  0.1157
20182W        W39036   4.976   1.604  14.912 -0.0142 -0.1877 -0.2441
20183W        W39037  11.867  14.313  13.549  0.1102 -0.1813  0.2299
20184W        W39038   5.607  14.165   0.087 -0.0833  0.1231  0.2742
20185W        W39039  16.514   6.436  10.900 -0.0129  0.0382 -0.0374
20186W        W39040   2.571   2.105  13.992  0.0752  0.1543  0.2763
20187W        W39041  11.315   5.808  12.297 -0.2387 -0.0404  0.0393
20188W        W39042   4.312  13.942   1.648 -0.1177 -0.2055 -0.1046
20189W        W39043  17.362   5.712   4.664 -0.0624 -0.0362  0.0755
20190W        W39044   2.316   8.536  14.415 -0.0355 -0.1086 -0.0970
20191W        W39045  16.249  18.263  14.545 -0.1152 -0.2085 -0.2063
20192W        W39046   3.577   9.621  13.704  0.0826 -0.1279 -0.2009
20193W        W39047  13.945  17.502  14.581  0.0113 -0.0288  0.0450
20194W        W39048  15.497   9.451  13.473  0.3481 -0.0359  0.0053
20195W        W39049   4.163   9.229  12.775  0.2878 -0.2474  0.2019
20196W        W39050  14.009   7.607   0.394 -0.3553  0.1731 -0.0429
20197W        W39051   9.399   0.014   9.576 -0.1026  0.0208  0.2371
20198W        W39052   7.767   1.124  11.361 -0.1962  0.0932  0.2090
20199W        W39053  14.025   1.558   4.561  0.0662 -0.2295  0.0948
20200W        W39054   0.491  14.123  11.249  0.0122 -0.1093  0.0828
20201W        W39055   6.088  14.516  12.846  0.0845  0.0491  0.0354
20202W        W39056   1.655   1.821   3.738 -0.2907  0.1538  0.0205
20203W        W39057   7.512  18.310   2.284  0.2014  0.0619  0.1429
20204W        W39058   7.364   5.028   3.646 -0.1372 -0.1873  0.2216
20205W        W39059   1.315   8.494  14.513 -0.1551 -0.2340  0.0594
20206W        W39060  10.107  17.841   3.449 -0.0700  0.1068 -0.2295
20207W        W39061  12.464  14.132  10.321  0.1590  0.0631  0.0044
20208W        W39062  18.590  13.766   1.194  0.1528 -0.3536 -0.4296
20209W        W39063  16.245  15.472  14.927 -0.1775 -0.1774 -0.4071
20210W        W39064   7.871  14.615   0.178 -0.0948 -0.1928 -0.0903
20211W        W39065   2.463   3.611   2.488 -0.1593  0.1144 -0.6170
20212W        W39066  14.499  18.534   3.397 -0.0513 -0.2110 -0.0002
20213W        W39067  15.482  17.568  11.469 -0.1234  0.2364 -0.1909
20214W        W39068  12.121  14.741   4.123  0.1762  0.4218 -0.1206
20215W        W39069  18.720   2.169   1.422 -0.0817  0.0677  0.1012
20216W        W39070  15.220  15.344  13.912 -0.2929  0.4334  0.3048
20217W        W39071  17.631   4.322  13.145  0.0860  0.0106 -0.2020
20218W        W39072   5.925  13.169   4.725  0.1535 -0.1694  0.0714
20219W        W39073  10.595   2.607  11.835 -0.1672  0.3618 -0.0004
20220W        W39074  12.687  15.646   1.765  0.0736 -0.0579  0.1585
20221W        W39075  12.882  14.423  12.349  0.1474 -0.0031 -0.4868
20222W        W39076   5.944  11.159   1.084 -0.0760  0.0340  0.2434
20223W        W39077  18.214   5.732   4.569 -0.1721  0.1867  0.1467
20224W        W39078  13.078   0.994   1.585 -0.0866 -0.1173  0.1650
20225W        W39079  10.366  11.181  14.790  0.0848 -0.0665  0.1155
20226W        W39080   1.924  13.124   3.286  0.2310 -0.2007  0.0882
20227W        W39081   6.839   3.916   3.471  0.4706 -0.2368  0.3279
20228W        W39082  16.497   8.827   1.894  0.0635  0.0979 -0.0117
20229W        W39083  18.802   1.536   0.783 -0.4786  0.3562  0.3054
20230W        W39084  13.726  15.503   2.585 -0.1508 -0.4579  0.0263
20231W        W39085  15.380   5.161  14.766  0.0772 -0.0226  0.0235
20232W        W39086   9.431  16.018  14.325 -0.3286 -0.1819  0.1042
20233W        W39087   6.488   4.227  10.450 -0.1160 -0.0543  0.0232
20234W        W39088  17.779  16.708  11.722 -0.2292  0.1337 -0.1156
20235W        W39089   4.929   0.551   2.092  0.1502  0.0502 -0.1092
20236W        W39090  11.607  17.328  13.428  0.0911 -0.1302 -0.0546
20237W        W39091  11.986   9.762   1.649 -0.3576  0.2714  0.1170
20238W        W39092   7.327   5.201  13.810  0.0912 -0.1613 -0.0480
20239W        W39093   4.878   4.290  14.037 -0.2592 -0.0873 -0.0526
20240W        W39094   7.987   9.291  11.350  0.1734  0.0758  0.3214
20241W        W39095   7.764  15.099  13.132 -0.0941 -0.1146  0.1172
20242W        W39096  12.430  13.941  10.751  0.0813  0.0756 -0.3787
20243W        W39097   2.223   4.429   2.927  0.0620 -0.1265  0.0666
20244W        W39098  13.790  14.657   9.681 -0.1293  0.0014  0.0842
20245W        W39099  14.364  12.795   2.481  0.0279 -0.0878  0.0701
20246W        W39100  13.097   5.792   0.293 -0.1655 -0.0441 -0.0395
20247W        W39101  17.312   0.904   1.386 -0.1603  0.3326 -0.3105
20248W        W39102  17.086   0.499   9.492  0.0729 -0.0506 -0.1830
20249W        W39103   7.985   3.991  12.359 -0.2350 -0.1292 -0.1547
20250W        W39104  18.137  11.597  11.296 -0.0694  0.1324 -0.0382
20251W        W39105   1.569  14.971  14.455  0.2362 -0.2342 -0.0166
20252W        W39106   8.948   9.070   0.959  0.1034 -0.1391 -0.1150
20253W        W39107  16.532   1.376   2.000  0.3030 -0.1122 -0.0053
20254W        W39108   3.164   1.760   3.289  0.4078  0.2300  0.1050
20255W        W39109  10.456   2.766   1.846  0.1701  0.2503  0.1498
20256W        W39110   0.646   2.386   0.735 -0.0554  0.5135 -0.0589
20257W        W39111  11.440  16.127   4.570  0.3083  0.1213 -0.0300
20258W        W39112   2.278   7.872   2.924  0.1790  0.0512 -0.2482
20259W        W39113  17.776  16.410  14.514  0.0134  0.1717  0.2727
20260W        W39114   5.407   3.055   1.923  0.0903 -0.1539 -0.1810
20261W        W39115   3.420  12.849   2.013 -0.0263  0.2049  0.0819
20262W        W39116  17.043   1.506   3.176 -0.0365 -0.0741  0.0107
20263W        W39117  17.226   0.337   3.672  0.1222  0.0006 -0.0844
20264W        W39118   4.319   4.252   4.173 -0.0601  0.4247  0.3211
20265W        W39119  10.120   5.007   4.241 -0.4374  0.1411  0.2813
20266W        W39120   0.281   4.506  13.281 -0.0605  0.1167  0.0860
20267W        W39121  16.727  14.994   4.076 -0.0397  0.0370  0.0576
20268W        W39122  17.183   8.093  14.112 -0.0620 -0.1525 -0.0835
20269W        W39123   5.682  10.883  12.490 -0.4061  0.0709 -0.0574
20270W        W39124  12.576   8.039   3.648  0.0014  0.0271 -0.1092
20271W        W39125  15.310   6.644  10.300  0.4145  0.2457 -0.1313
20272W        W39126  18.481  14.866   1.420 -0.1729  0.3850  0.2057
20273W        W39127  15.109  14.736   3.256  0.0304  0.1755  0.2282
20274W        W39128  14.959  13.945  12.204 -0.2899  0.0322 -0.2491
20275W        W39129   0.233  12.386   2.262  0.1518  0.0582 -0.0727
20276W        W39130  15.395  16.065   1.563  0.0162 -0.2246 -0.3679
20277W        W39131  18.819  16.343   0.307  0.1204  0.0841  0.0558
20278W        W39132  16.328  11.714  11.173  0.2252 -0.1060  0.1322
20279W        W39133  14.802  12.145   3.452 -0.0601 -0.3882 -0.0246
20280W        W39134   9.605   9.141  14.064 -0.0555  0.4230  0.0205
20281W        W39135   5.595   8.021  12.957 -0.1102  0.0969  0.1856
20282W        W39136   1.215  12.969   1.188  0.1563 -0.1114  0.0316
20283W        W39137   6.837   2.795   0.290 -0.0872 -0.1051  0.1100
20284W        W39138  17.193   0.406   1.682 -0.1691 -0.2284  0.2333
20285W        W39139  14.323   3.983  11.446 -0.0704  0.1835  0.1229
20286W        W39140  14.250   2.003   0.528  0.1373  0.2253  0.1129
20287W        W39141   9.976  18.837   3.220 -0.0429  0.0845 -0.1704
20288W        W39142  11.366  11.754  15.025  0.1530  0.2736 -0.4422
20289W        W39143   6.405   3.205   2.611  0.0663  0.2230  0.2131
20290W        W39144  11.445   9.551   0.410 -0.3070 -0.1478 -0.1251
20291W        W39145  17.883  16.957   3.152 -0.1195  0.0481  0.4541
20292W        W39146  18.618  11.331  11.347 -0.2364  0.1440  0.2760
20293W        W39147  13.851  18.543   1.175 -0.4001 -0.6104  0.0126
20294W        W39148  18.371   9.175   0.528 -0.2703  0.1228  0.0727
20295W        W39149  10.278  17.039   0.085  0.0522 -0.2868 -0.1186
20296W        W39150   9.598  18.524   1.879 -0.0908  0.0641 -0.0737
20297W        W39151  15.513  14.112  12.112 -0.0360  0.0019 -0.1118
20298W        W39152  13.386   8.430   5.409  0.0239  0.2279 -0.0349
20299W        W39153   6.416   2.646  10.422 -0.1249 -0.1558 -0.1139
20300W        W39154   8.310   3.141   3.173  0.1188 -0.1142 -0.4566
20301W        W39155  18.555   0.709  13.231 -0.1057  0.0632 -0.0967
20302W        W39156   7.781   4.147   1.557 -0.0536 -0.2533  0.1540
20303W        W39157   3.477   8.736  14.159  0.0869 -0.0858  0.0501
20304W        W39158   2.475  11.550  12.219 -0.1118  0.0910  0.0603
20305W        W39159  11.134  14.061   3.154  0.2045 -0.2626 -0.0226
20306W        W39160   3.588   7.906  12.663 -0.3686  0.0438  0.1159
20307W        W39161   0.742   0.683   1.681  0.2547  0.0984  0.1482
20308W        W39162   5.558  16.726   0.856  0.1847 -0.1466 -0.1304
20309W        W39163  11.995   2.170  12.865  0.0939  0.0413 -0.1300
20310W        W39164  16.118   8.298   4.265 -0.0899 -0.1114  0.1999
20311W        W39165  11.907  15.221   1.298  0.0698 -0.0090 -0.1413
20312W        W39166   9.234   6.609   0.275  0.1221  0.6014 -0.2767
20313W        W39167   4.362   7.793   2.854 -0.0487  0.1171  0.1415
20314W        W39168  17.230  13.573  14.410  0.0918  0.0231 -0.0327
20315W        W39169  17.320  16.133  14.539 -0.0187  0.0377  0.3371
20316W        W39170  11.588   5.059  11.573  0.1890  0.2068 -0.1902
20317W        W39171   1.464   5.635   0.314 -0.1375 -0.3058  0.1510
20318W        W39172  13.796   0.701   2.926  0.0032  0.1245 -0.1155
20319W        W39173  10.735   1.753   4.158  0.0377 -0.0286  0.3129
20320W        W39174   4.856  12.167   0.851  0.1434 -0.0242  0.2451
20321W        W39175  14.227   3.355   3.422  0.0563 -0.4042  0.3306
20322W        W39176   9.786  12.155   1.356  0.1617 -0.0348 -0.0163
20323W        W39177   7.548  16.906  13.731  0.3501  0.0745 -0.2312
20324W        W39178  17.396  13.909   4.849 -0.0201  0.3131 -0.1925
20325W        W39179  15.371   1.875  14.471  0.2070 -0.0680 -0.1438
20326W        W39180   6.687   8.861   4.231 -0.0566  0.0546 -0.1455
20327W        W39181   0.580  10.560   3.251 -0.2790  0.0182 -0.0357
20328W        W39182  11.150   7.447  14.521 -0.1257 -0.3391  0.0160
20329W        W39183   9.376  13.871   5.553 -0.0446  0.0350  0.0318
20330W        W39184   5.130   4.777   2.846 -0.2503  0.4310 -0.2454
20331W        W39185   1.219   8.459  13.116 -0.0373  0.1581 -0.0784
20332W        W39186   1.524  16.983  15.021 -0.1810 -0.0588 -0.0916
20333W        W39187   6.222   3.035   4.155  0.3561  0.0430  0.0000
20334W        W39188  10.963  13.227   4.077 -0.0592  0.1510 -0.0515
20335W        W39189  12.204  17.801   4.473 -0.1477  0.3192  0.0399
20336W        W39190  12.155  12.518  12.121 -0.0697 -0.2358 -0.0564
20337W        W39191  14.575   8.719  13.825 -0.2645  0.0567  0.0079
20338W        W39192  12.905   3.690  14.744  0.1571  0.1933 -0.1505
20339W        W39193  14.840  14.115   3.903  0.0681  0.0895  0.0442
20340W        W39194   5.473   8.644  12.199 -0.0950 -0.1922 -0.0365
20341W        W39195  16.256   8.752   4.370 -0.0641  0.0563  0.0511
20342W        W39196   2.539  11.316  13.337  0.1239 -0.2662  0.1787
20343W        W39197  10.948  10.792  12.027  0.1052  0.1188  0.2917
20344W        W39198   0.168  13.967   9.687  0.1046 -0.0477  0.0526
20345W        W39199   0.343  13.561   1.093  0.0818 -0.0380 -0.0494
20346W        W39200   3.477  10.619   4.293 -0.1584  0.4920 -0.0454
20347W        W39201   2.763   5.593  12.334 -0.2336  0.2856 -0.1307
20348W        W39202  12.534  15.605  12.264 -0.0721  0.1598  0.0039
20349W        W39203   5.415   6.909   0.858  0.0043  0.0064 -0.1647
20350W        W39204  18.156  15.589   2.900  0.0513  0.3568 -0.1566
20351W        W39205   3.419   1.335   3.342  0.2416 -0.2314  0.0057
20352W        W39206   4.261   6.948  11.741  0.0292 -0.0307  0.1567
20353W        W39207  15.992   9.474  13.644  0.0309 -0.0214  0.3345
20354W        W39208  18.125   0.427   2.218  0.1140  0.1789  0.0562
20355W        W39209   9.266  12.811   4.311 -0.1417  0.2510  0.0967
20356W        W39210  13.725  17.131  11.113  0.2373  0.0456  0.2504
20357W        W39211  14.434   0.266  11.183 -0.0784  0.2318  0.0651
20358W        W39212   8.197   1.752  12.457  0.2186 -0.2617  0.2002
20359W        W39213  15.733  18.321  11.242 -0.0320 -0.3604  0.1302
20360W        W39214  12.543   8.947   3.509 -0.0674 -0.0298  0.0797
20361W        W39215  18.209   3.852   3.577  0.1168  0.3078 -0.1048
20362W        W39216   4.451   2.265  10.660 -0.0653 -0.2308  0.2284
20363W        W39217  12.401   9.468  12.670  0.1953 -0.0948  0.0416
20364W        W39218   7.528  13.735   4.028  0.3440  0.1162 -0.1396
20365W        W39219  12.381  12.234  13.079 -0.0524  0.1848 -0.1602
20366W        W39220   9.168  15.244  12.827 -0.1194 -0.1177  0.1512
20367W        W39221   5.273   3.315   4.579 -0.0156  0.0266 -0.0873
20368W        W39222  15.777   3.471   0.469  0.1611 -0.3744 -0.2729
20369W        W39223   8.407   3.814  12.664  0.1788 -0.1701 -0.0184
20370W        W39224   1.546  11.626   1.889 -0.0471  0.1196  0.0541
20371W        W39225  14.415   7.907  13.221 -0.4235  0.1446  0.1400
20372W        W39226  10.189  15.487  11.205 -0.6482 -0.1608 -0.1316
20373W        W39227  11.969  10.683  14.447 -0.0789  0.3770  0.1067
20374W        W39228   1.026  17.852   0.715  0.2508  0.0134  0.0256
20375W        W39229  14.775  16.278   4.770  0.3688  0.1390  0.1657
20376W        W39230  14.127  10.225  12.365 -0.1920  0.1719 -0.2334
20377W        W39231  11.765   4.740  14.125  0.1444  0.4594 -0.1603
20378W        W39232   3.378  18.387  14.875 -0.0449 -0.0834  0.3590
20379W        W39233  11.817   2.321  14.982 -0.0841 -0.0915 -0.2713
20380W        W39234  14.179  11.245  14.303 -0.1128 -0.1011  0.3538
20381W        W39235   1.346  10.096   3.853  0.0966  0.0105  0.0434
20382W        W39236   6.694   5.168  11.991  0.1379 -0.0124 -0.0499
20383W        W39237  17.897  10.880   0.601  0.1585 -0.2529 -0.0687
20384W        W39238  16.382   9.699  11.078  0.1425  0.1156 -0.1988
20385W        W39239  17.108  14.481   0.185  0.0379 -0.1674 -0.0773
20386W        W39240  14.757  10.184  11.023  0.0595  0.0115 -0.0780
20387W        W39241  16.439  12.681   2.072 -0.0913  0.1944  0.1089
20388W        W39242  11.702   2.434   2.481  0.3882 -0.1619  0.0055
20389W        W39243   9.316  15.480  15.051 -0.2395  0.1315  0.3169
20390W        W39244  15.041   7.085   1.517 -0.1238  0.2572  0.1379
20391W        W39245   2.221   8.160  11.719 -0.0527  0.1502 -0.0496
20392W        W39246   5.295   4.564  11.273  0.1904 -0.0165 -0.1855
20393W        W39247   3.200   9.280   2.731 -0.2332  0.0931  0.0266
20394W        W39248  10.780  12.543  13.188  0.1762 -0.0130  0.0170
20395W        W39249  13.369  14.089  12.287 -0.0239  0.3606 -0.0308
20396W        W39250  14.376  14.864  13.501 -0.0574  0.0052 -0.0269
20397W        W39251   9.652   7.945   0.187  0.0458  0.3231  0.2500
20398W        W39252  13.416   5.890   4.195  0.1816 -0.2281  0.3566
20399W        W39253   4.882   6.334  14.742  0.0939 -0.2504 -0.2606
20400W        W39254   1.817   5.120  12.727 -0.1283  0.1283 -0.2055
20401W        W39255  10.928  12.634   2.876 -0.0576  0.2425  0.3274
20402W        W39256  18.788   7.994  13.389 -0.1202  0.0865  0.1211
20403W        W39257   1.187  14.949  13.783 -0.4021  0.1133 -0.0815
20404W        W39258  10.901   0.380   4.408 -0.2710  0.2583  0.0261
20405W        W39259   3.466   1.031  11.258  0.0570  0.0001 -0.3378
20406W        W39260  13.050  14.970   0.070  0.0144  0.0160 -0.2121
20407W        W39261   4.491   4.100   1.981 -0.2044 -0.1247  0.0030
20408W        W39262   6.792  12.388   2.024  0.2363 -0.0752  0.1624
20409W        W39263   2.856   6.451  11.260  0.0207 -0.1737  0.2605
20410W        W39264   8.339   8.757   0.973  0.0488  0.2031 -0.2553
20411W        W39265  14.420  18.317  11.292 -0.0158 -0.0181 -0.0525
20412W        W39266  15.610  18.791   1.886  0.0288  0.0553  0.2021
20413W        W39267  15.458   4.601   1.952  0.3582  0.1476 -0.2827
20414W        W39268   1.189   0.704   4.791  0.2295  0.1876  0.2600
20415W        W39269   6.499   4.056   3.884  0.3848  0.2742  0.0769
20416W        W39270   8.120  15.755  12.504 -0.1186  0.0386  0.1419
20417W        W39271  12.562  15.462   2.828  0.2617  0.5547  0.1304
20418W        W39272   2.626   4.985  13.028  0.1664  0.2943  0.1402
20419W        W39273   9.832   7.039  10.833 -0.0243 -0.0514  0.0367
20420W        W39274  12.435  16.459  13.148  0.0323  0.1084  0.0262
20421W        W39275   7.222   9.441  10.807  0.1184  0.2067 -0.0232
20422W        W39276  12.476  16.811   3.558 -0.3905  0.0162 -0.2057
20423W        W39277  12.416   8.100   5.196 -0.1022  0.4158 -0.0963
20424W        W39278   3.803   9.497   2.051 -0.3020  0.0695  0.1591
20425W        W39279   0.711  16.118   3.209  0.3092  0.4518 -0.1648
20426W        W39280   9.616  10.207  11.797 -0.1718 -0.2151 -0.1685
20427W        W39281   0.744   4.368  15.037 -0.1370 -0.1363  0.3219
20428W        W39282   6.897   6.201   5.420  0.0024  0.0540 -0.1841
20429W        W39283   9.927   6.026  15.071 -0.0501 -0.0197  0.6331
20430W        W39284  12.166  17.903   1.167 -0.1832  0.2326  0.1171
20431W        W39285   4.007  17.067   4.955  0.0146 -0.0255 -0.0379
20432W        W39286   8.777  15.444  13.719  0.0959 -0.3642 -0.0483
20433W        W39287   4.258   7.257   3.734  0.0970 -0.3190 -0.1205
20434W        W39288  10.406  10.656  12.237 -0.0409 -0.0799 -0.3047
20435W        W39289  16.654   6.224   1.110  0.1456 -0.2201  0.2710
20436W        W39290  13.386  14.039   4.315 -0.1248  0.0774 -0.2593
20437W        W39291   2.042   0.094   2.995 -0.3128  0.1803  0.0399
20438W        W39292  13.048  11.399  14.636  0.1447  0.1715 -0.2128
20439W        W39293   5.590  14.577  10.716 -0.1942 -0.0624 -0.1369
20440W        W39294   0.819   9.709   0.176  0.3573 -0.0382 -0.0524
20441W        W39295  11.258  17.037  13.623  0.0359  0.0949 -0.1369
20442W        W39296   5.109  10.455   9.446 -0.0872 -0.0296 -0.0439
20443W        W39297   8.908   5.764   3.460  0.1877 -0.2937 -0.1941
20444W        W39298   1.804   7.813  13.870  0.0023 -0.0378 -0.1152
20445W        W39299  15.659   5.027   3.693 -0.0215 -0.1189 -0.1550
20446W        W39300  15.258   4.394   3.084 -0.2010  0.0427  0.2024
20447W        W39301   1.516  11.757   0.735  0.0248 -0.1029  0.0645
20448W        W39302  10.179   0.074   2.780 -0.0808 -0.0551  0.0108
20449W        W39303  13.896   9.495  12.937 -0.0607 -0.5089  0.2188
20450W        W39304  18.244  11.949   1.428 -0.1059  0.0209  0.0777
20451W        W39305   5.285  18.787  11.123 -0.0109 -0.1751 -0.3627
20452W        W39306  10.227  18.504   1.046  0.4563 -0.0515 -0.3951
20453W        W39307   7.512   9.396  12.299  0.0738 -0.1893  0.0441
20454W        W39308  17.944   0.474   4.265  0.1906 -0.1070  0.1307
20455W        W39309   7.356  14.037  11.971  0.0343 -0.0736 -0.2113
20456W        W39310   9.553  13.854  14.028 -0.1867  0.0268  0.3780
20457W        W39311  17.156   8.171   3.455  0.1411 -0.2206 -0.0741
20458W        W39312  10.583   0.348  13.562 -0.3662  0.1306  0.3579
20459W        W39313   5.934   1.368  11.806 -0.0056 -0.0130 -0.0184
20460W        W39314   5.603   6.979   4.944  0.1467  0.0522  0.2167
20461W        W39315  10.804   9.376   0.075  0.1920  0.1046  0.3296
20462W        W39316   3.811  16.684  14.682  0.1386  0.2133 -0.0346
20463W        W39317   5.859  13.133  13.193  0.4811  0.1534  0.0661
20464W        W39318  13.299   8.420   0.034 -0.2052 -0.0068 -0.1302
20465W        W39319   3.045  11.267   0.191  0.0522  0.1937  0.3757
20466W        W39320   4.066   8.992  13.186 -0.4833 -0.1053  0.1825
20467W        W39321  16.030   9.027   3.484 -0.3051  0.0094 -0.0156
20468W        W39322  17.513  15.934   0.744  0.1661 -0.1470 -0.3637
20469W        W39323  18.386  18.713   2.725 -0.3391  0.4766 -0.2249
20470W        W39324  14.313  15.739   2.978 -0.2296 -0.1023 -0.0249
20471W        W39325   0.412  18.420  13.991  0.1034 -0.0549  0.1374
20472W        W39326   4.767   7.024  14.405  0.0357 -0.3146 -0.0322
20473W        W39327  10.381   8.709  14.167  0.1861  0.0093 -0.0273
20474W        W39328   5.799   6.074   1.111 -0.2345 -0.2717  0.1980
20475W        W39329   9.194   0.053   5.332 -0.1880 -0.0302  0.0851
20476W        W39330   0.648   1.684  13.174  0.1040 -0.5570 -0.0254
20477W        W39331  16.734   1.575   2.473  0.0044 -0.1250 -0.2165
20478W        W39332  12.983  18.415  14.384  0.1051 -0.0176 -0.4972
20479W        W39333   1.826   8.074   0.455  0.3876 -0.0741  0.0996
20480W        W39334  12.838   4.760  13.397  0.3624  0.1535 -0.0305
20481W        W39335   7.227   7.447  12.996  0.1621 -0.0451 -0.2788
20482W        W39336  15.670  15.098   0.664  0.1299 -0.3212  0.2194
20483W        W39337   7.412  16.535  11.517 -0.0630  0.2572 -0.1722
20484W        W39338   8.309  17.959   4.526  0.2360  0.3709  0.0628
20485W        W39339   8.017   0.804   0.428 -0.1583  0.1710 -0.0382
20486W        W39340   3.427   8.136   2.587 -0.1321 -0.0403 -0.1002
20487W        W39341  15.676  16.423   0.480 -0.0680  0.0545  0.1774
20488W        W39342   3.100   0.574  14.302  0.1464  0.2039 -0.1142
20489W        W39343   1.587  16.782   1.134 -0.4883 -0.2540 -0.2719
20490W        W39344  13.221  13.937   0.038 -0.0043  0.0298  0.2332
20491W        W39345   6.703   0.062  14.772  0.0794 -0.1186  0.0277
20492W        W39346  10.747   6.219   1.324  0.2965  0.1257 -0.0780
20493W        W39347  14.462  16.065  11.682 -0.2803  0.3117  0.1079
20494W        W39348   5.406   4.883   1.075 -0.1473  0.0650 -0.0000
20495W        W39349  11.167   7.848   1.882  0.0510  0.1344  0.0083
20496W        W39350   0.241  15.285   0.991  0.0770  0.3643  0.0753
20497W        W39351   1.484   2.895  13.626  0.0691  0.1473 -0.0420
20498W        W39352   2.253   2.941  13.909  0.3812  0.1100  0.1367
20499W        W39353  13.736   6.720  14.324 -0.0520  0.3524 -0.5219
20500W        W39354  16.996   0.456   4.094 -0.1423 -0.1050 -0.1222
20501W        W39355  12.305   8.038  11.037 -0.2742 -0.0024 -0.0821
20502W        W39356  14.271  13.355   5.311  0.0570 -0.0474 -0.3065
20503W        W39357  18.542   7.117   3.800 -0.2881 -0.0704 -0.0381
20504W        W39358  10.890   7.544   2.467 -0.0789  0.2618 -0.1070
20505W        W39359   4.459   0.517   0.100  0.0671 -0.0995  0.0203
20506W        W39360  16.838  10.748  12.579  0.2390  0.0716 -0.1098
20507W        W39361   3.732   8.444  13.360  0.0608 -0.2498  0.1363
20508W        W39362  10.773  16.314   0.228 -0.0244 -0.0033  0.1746
20509W        W39363   5.069  11.729   2.865  0.3412  0.1383  0.3185
20510W        W39364  13.762   5.155   2.516 -0.0597 -0.0683 -0.0365
20511W        W39365  18.250  18.812   2.255  0.0489  0.1194  0.2773
20512W        W39366  16.577   7.428  12.133  0.3124  0.2609 -0.1408
20513W        W39367   5.560   2.745  13.927 -0.0432 -0.1563 -0.3957
20514W        W39368  18.013  13.837   1.805 -0.2313  0.3343 -0.1266
20515W        W39369  16.177  15.767   0.905  0.0165 -0.1254 -0.3497
20516W        W39370   1.909  13.121   2.196 -0.2178 -0.3008 -0.1011
20517W        W39371  14.979   3.359  12.231  0.0208  0.2440  0.0305
20518W        W39372   6.149   0.780  14.083  0.0241  0.2136 -0.4230
20519W        W39373  11.167  16.585  13.871 -0.0110  0.1572 -0.2121
20520W        W39374   2.187  10.727  14.969 -0.0833 -0.1548 -0.1026
20521W        W39375  13.032  12.209  13.504  0.1104 -0.1757  0.0295
20522W        W39376   2.056  10.948   2.331 -0.0139  0.1728 -0.3037
20523W        W39377   7.883  17.519   5.273  0.0316  0.1926 -0.3638
20524W        W39378   7.646   5.264   0.482  0.2107 -0.0579 -0.2293
20525W        W39379  12.186  12.359  12.558 -0.2956 -0.0419 -0.4107
20526W        W39380   9.831  10.687   3.016  0.0726 -0.1055  0.1267
20527W        W39381  11.827   0.296  11.565  0.0289  0.0050  0.0609
20528W        W39382  15.594  12.742   4.123  0.1897  0.2823  0.1178
20529W        W39383   4.263  16.619   2.326 -0.0041  0.3283 -0.1597
20530W        W39384  13.531  16.958  11.533 -0.3813  0.3376  0.0234
20531W        W39385   7.305  13.393   0.448 -0.0543  0.0103  0.1868
20532W        W39386  13.183   4.453   3.469  0.0339 -0.1890  0.0447
20533W        W39387   8.603  13.144   2.475  0.1185  0.4528 -0.5349
20534W        W39388   9.187   2.283   2.468  0.1444 -0.2296  0.0609
20535W        W39389   1.268   3.896   2.329  0.0510 -0.2211 -0.0443
20536W        W39390   6.204   0.519   1.662  0.4105  0.0540 -0.3686
20537W        W39391   2.513   4.511   4.645 -0.0027  0.2403 -0.3272
20538W        W39392   8.623   8.431   3.996  0.4409  0.1944  0.0344
20539W        W39393  10.302  12.324   2.161  0.0499 -0.1067  0.2098
20540W        W39394  10.064  17.531  13.935  0.0736 -0.0290 -0.2741
20541W        W39395   8.366  17.965   2.799 -0.3507  0.0136  0.0519
20542W        W39396   6.992   1.800  13.395  0.0228  0.0645 -0.1836
20543W        W39397   6.463  13.759   0.338  0.0426  0.1721  0.1989
20544W        W39398   5.910  15.775  13.177 -0.1589  0.1855  0.2427
20545W        W39399   9.892   5.975   2.265  0.1105 -0.2082 -0.1310
20546W        W39400   1.160   3.769  12.730  0.1008 -0.2736  0.0050
20547W        W39401   9.358  13.154  13.756 -0.0472  0.0010 -0.2495
20548W        W39402  11.509  16.769   1.838 -0.1320 -0.2154 -0.0426
20549W        W39403   5.493   3.997   0.654 -0.0138 -0.2052 -0.2090
20550W        W39404   5.939   8.384   3.361 -0.1857  0.3073 -0.0288
20551W        W39405  18.310  17.305  14.571  0.2806 -0.0094  0.3212
20552W        W39406   2.273   5.375  11.436  0.2241 -0.0031 -0.2104
20553W        W39407   5.411  11.836  11.503 -0.1384 -0.2389 -0.0601
20554W        W39408   5.063  11.822  14.918 -0.3888 -0.1295  0.0373
20555W        W39409  15.514   1.080  10.649 -0.0795 -0.4858 -0.2657
20556W        W39410   6.395  15.753   3.133  0.0752  0.0679 -0.1514
20557W        W39411  17.465  15.991  10.144  0.0500  0.4476 -0.0117
20558W        W39412  16.329   6.935   0.036 -0.1038 -0.1927 -0.3517
20559W        W39413   4.638  12.029  12.583  0.1711 -0.1338  0.0150
20560W        W39414  15.984   9.011  13.802 -0.1094 -0.2235  0.0945
20561W        W39415  14.642   1.681  12.912  0.1666  0.0625 -0.1590
20562W        W39416  17.279  10.417   3.717 -0.2735 -0.0950  0.0167
20563W        W39417   1.529   1.015   1.622  0.1455 -0.3231  0.1260
20564W        W39418  15.288  10.105  12.856  0.1221 -0.0063 -0.1744
20565W        W39419   3.475   4.683   4.771 -0.0089 -0.1122  0.0903
20566W        W39420  11.767  11.486  12.230 -0.0586  0.0110 -0.4691
20567W        W39421   1.418  12.117   3.182 -0.3398 -0.1791  0.0149
20568W        W39422   5.539  12.395   0.112 -0.2336  0.1791  0.0035
20569W        W39423  13.301  16.096   3.420  0.1015 -0.1522  0.0897
20570W        W39424   2.268  15.335   4.028  0.2570 -0.3406 -0.2861
20571W        W39425  10.837   9.260   2.755  0.2852  0.1096 -0.1734
20572W        W39426   7.412   5.499  11.180 -0.3564 -0.0322 -0.4864
20573W        W39427  16.486  11.155  12.708  0.0058  0.1307 -0.3082
20574W        W39428   0.024  12.643   0.384  0.0918  0.2542  0.0406
20575W        W39429   3.113  12.893  11.376  0.0425  0.0899  0.0091
20576W        W39430  14.968   5.134  12.754  0.1186  0.0748  0.2147
20577W        W39431  12.732   4.627   0.961  0.0276 -0.1291  0.0586
20578W        W39432   8.355   6.953  11.406 -0.0671 -0.1885 -0.1571
20579W        W39433  18.351   8.438   2.962  0.0427 -0.0748 -0.2128
20580W        W39434  16.704  16.968  11.791  0.3579  0.4115  0.3532
20581W        W39435  10.424  14.952  13.659 -0.1102  0.0698 -0.1131
20582W        W39436  11.340   7.724  11.821  0.1017 -0.2153 -0.1633
20583W        W39437  11.133  17.031  13.146  0.1769 -0.2470  0.3423
20584W        W39438   8.189   2.309   3.629  0.3353 -0.0709  0.1874
20585W        W39439   8.713   4.988  14.051 -0.0351 -0.0519 -0.3591
20586W        W39440   9.608   7.859  13.656  0.2107  0.1119 -0.0006
20587W        W39441  18.723   7.621   0.184  0.1099  0.1030 -0.2704
20588W        W39442  18.024   9.070  12.045 -0.0320  0.2655 -0.0265
20589W        W39443  10.610   8.307  12.164  0.1269  0.0037 -0.2252
20590W        W39444   5.404  12.641   3.550  0.0973 -0.0289 -0.2481
20591W        W39445   1.328   8.417   1.509  0.0841  0.1248  0.0606
20592W        W39446   8.346  16.673   5.065  0.2519  0.0628  0.0153
20593W        W39447   4.658  16.147   3.418 -0.1027 -0.2223 -0.0155
20594W        W39448   6.001   2.341   4.898  0.3978  0.0439  0.2214
20595W        W39449   7.167  17.586  14.790 -0.0119  0.1323 -0.2008
20596W        W39450   2.944   8.124   1.413 -0.2885  0.2951 -0.3068
20597W        W39451   0.213   2.091   4.507  0.1132 -0.0220 -0.0896
20598W        W39452   9.173   8.191  12.623 -0.1364  0.5221  0.0767
20599W        W39453  10.691  16.243  14.195  0.1367  0.0016  0.1252
20600W        W39454  10.675   2.677  12.359  0.0171  0.3125 -0.1152
20601W        W39455  14.245   3.090  10.795  0.3402  0.0417 -0.1763
20602W        W39456  16.701  18.702  13.513 -0.1298 -0.0629 -0.2958
20603W        W39457  12.911  14.143  11.405 -0.1775 -0.1872 -0.1327
20604W        W39458  16.152  15.449  11.206  0.0557  0.0920  0.2025
20605W        W39459   9.959  17.346   0.365  0.0523  0.4537  0.2247
20606W        W39460   3.347   0.615   3.396  0.2534 -0.0293 -0.0906
20607W        W39461  14.981  11.607   2.397  0.2170 -0.1950 -0.1247
20608W        W39462   0.804  11.010   3.490 -0.0232  0.1691  0.1733
20609W        W39463  16.415  15.677  12.736  0.0867 -0.1636  0.0500
20610W        W39464   4.439  15.717  13.834  0.1806  0.0780 -0.2286
20611W        W39465   5.550   8.031  12.061  0.2289  0.0382  0.1213
20612W        W39466   9.642  11.531   3.893 -0.0573 -0.2055 -0.0239
20613W        W39467   4.161  15.657   1.721  0.2226 -0.1362 -0.2069
20614W        W39468   8.600   9.383   2.303  0.2257 -0.0969 -0.2326
20615W        W39469   3.539   3.803   3.759  0.0846 -0.0324  0.0798
20616W        W39470   0.976   3.652   1.070  0.0953 -0.2570 -0.2617
20617W        W39471  15.700  15.221  14.111 -0.1093 -0.0354  0.1041
20618W        W39472  10.713  17.697   2.583  0.2425  0.2572  0.0116
20619W        W39473  18.327   9.430  11.805  0.2215  0.0313  0.2043
20620W        W39474  10.454   9.621  14.506 -0.3492  0.1526  0.2397
20621W        W39475   3.794   2.643   0.315 -0.0703 -0.0784 -0.1077
20622W        W39476  10.077   1.520  13.738 -0.3053  0.1750  0.1100
20623W        W39477  16.447  12.333   0.614 -0.2657 -0.0279  0.1716
20624W        W39478  10.390  10.965   1.210 -0.0329 -0.1641  0.1750
20625W        W39479  18.763  13.666  12.601 -0.0979  0.1093  0.2128
20626W        W39480   2.975   9.691   3.508  0.0142 -0.1478  0.1733
20627W        W39481  12.158   3.663  10.079 -0.2313  0.0535 -0.3138
20628W        W39482  15.591   5.972   2.345  0.2958  0.1586  0.0708
20629W        W39483   8.402  11.512  11.877 -0.3780 -0.0853  0.0029
20630W        W39484   9.473  10.017  11.330 -0.1923 -0.0605  0.2998
20631W        W39485   3.268   1.493  14.405 -0.0499 -0.1661  0.0303
20632W        W39486   2.131   4.895  13.158 -0.3292 -0.1564  0.3692
20633W        W39487  14.774   6.648   2.173  0.0055  0.1052 -0.1053
20634W        W39488  18.186  18.098   1.574  0.0592  0.0357 -0.0476
20635W        W39489  13.265   6.084  14.703  0.0297  0.0525 -0.1829
20636W        W39490   2.464   2.046   0.844 -0.0964  0.0790 -0.1806
20637W        W39491   5.577   7.524  14.471 -0.0879 -0.0743 -0.0921
20638W        W39492   2.787  18.698  10.234  0.1937 -0.3758  0.0430
20639W        W39493   7.748   3.263   2.976 -0.1273  0.3737  0.1842
20640W        W39494   6.080   2.395  11.597  0.1177 -0.3013 -0.3831
20641W        W39495  13.509   1.841  11.515  0.1272  0.0004 -0.3654
20642W        W39496   6.998   8.067   4.745 -0.0400 -0.0340  0.0411
20643W        W39497  17.808   0.586   1.341 -0.2228 -0.1581  0.0742
20644W        W39498  17.819   4.494   3.198  0.3221 -0.0633  0.4151
20645W        W39499   2.697  10.449   0.981  0.0008  0.2557 -0.1009
20646W        W39500   7.593   7.660   4.308 -0.0146 -0.0073 -0.0795
20647W        W39501  11.679  15.411   3.400 -0.0451  0.0529 -0.0482
20648W        W39502  10.325  15.589  12.852 -0.0146 -0.2365  0.1568
20649W        W39503   8.816  12.345   1.342 -0.4041 -0.1121  0.0035
20650W        W39504  12.448   5.049  13.237 -0.1781 -0.0727 -0.2436
20651W        W39505  14.473   4.415  11.570 -0.2500 -0.0136  0.1495
20652W        W39506  16.659   8.958  13.220  0.2326  0.1526  0.0794
20653W        W39507   2.200   7.463   2.635 -0.0460 -0.1556 -0.1926
20654W        W39508  17.162  18.230   0.172 -0.2990  0.1500 -0.1828
20655W        W39509  15.859   0.263  13.788 -0.2379 -0.1568 -0.1370
20656W        W39510   5.868   5.111  13.954 -0.1221  0.1946 -0.1151
20657W        W39511  10.080  18.777  12.352 -0.0673  0.0529 -0.1115
20658W        W39512   0.987   2.958  12.716 -0.0994 -0.1483  0.0323
20659W        W39513   6.029   1.343   1.091  0.3461  0.1151  0.0470
20660W        W39514  18.703  12.657  12.939  0.0549 -0.2370 -0.0066
20661W        W39515   1.104   2.747  12.261  0.2150 -0.1537  0.0246
20662W        W39516  13.665  16.787   2.200  0.0405  0.1609  0.3371
20663W        W39517   7.030   0.150   1.620  0.2817  0.2177 -0.1222
20664W        W39518  10.105   9.228   3.960 -0.0697 -0.0947 -0.3078
20665W        W39519  16.676   1.861   1.874 -0.1294  0.1354 -0.1375
20666W        W39520  17.720   2.736   2.834 -0.1903 -0.2989  0.1034
20667W        W39521   2.596  10.776  14.047  0.1438  0.0919 -0.1372
20668W        W39522   0.400  15.145  13.054 -0.0675  0.0458 -0.2652
20669W        W39523   2.492   6.278   2.900  0.1361 -0.3134 -0.1478
20670W        W39524   6.759   8.126   1.324 -0.2193 -0.1471  0.0689
20671W        W39525  10.356   7.432   1.582 -0.3106  0.1615 -0.2699
20672W        W39526  14.013  15.581   2.211  0.1160 -0.2629 -0.1606
20673W        W39527  12.840  11.226  12.736  0.2709  0.2125  0.1168
20674W        W39528  17.881  18.331   0.300  0.1320 -0.3405 -0.0800
20675W        W39529   0.165   9.314  14.077  0.1797  0.3597 -0.0459
20676W        W39530  18.627   4.633   0.711 -0.0555 -0.0788  0.2631
20677W        W39531   2.546   7.772  11.533 -0.3624  0.2117  0.0557
20678W        W39532   1.746   2.945   1.193  0.0312 -0.5593  0.4863
20679W        W39533   2.518  17.537  12.863 -0.0936  0.1315 -0.3005
20680W        W39534   6.438   9.586  12.457  0.0965 -0.3508  0.3168
20681W        W39535  15.874  15.377   1.621  0.0100 -0.1643 -0.2747
20682W        W39536   7.628  18.856   2.266 -0.0714  0.1598 -0.2357
20683W        W39537  14.218   0.625   1.041  0.0956  0.1113 -0.1132
20684W        W39538  11.109   2.891  14.192 -0.0095  0.3199 -0.0569
20685W        W39539  14.928   9.792   3.854  0.1674 -0.2897  0.1074
20686W        W39540   5.707   0.284  12.442  0.3653 -0.2009 -0.0523
20687W        W39541  15.466   8.900  10.786 -0.0330  0.1630 -0.1121
20688W        W39542   6.391  10.643   0.947  0.2881  0.0977 -0.2920
20689W        W39543  11.846   7.946  14.966 -0.1275 -0.0430  0.2289
20690W        W39544  12.114  18.555   1.014  0.0080  0.2159  0.0939
20691W        W39545  11.372  13.942   1.117 -0.0896 -0.2649 -0.3255
20692W        W39546   3.269   7.492   3.785 -0.1553  0.4151  0.1233
20693W        W39547  13.990  16.778  13.329 -0.0041  0.1501 -0.3879
20694W        W39548   0.565   5.718  14.250  0.1088 -0.0782 -0.1973
20695W        W39549   6.721   7.369  11.401  0.0229  0.2753  0.2610
20696W        W39550  18.502  18.316  12.642 -0.2629 -0.0107  0.3662
20697W        W39551  15.798   6.947   3.321  0.1048 -0.0562  0.0456
20698W        W39552  18.324  11.394   3.854 -0.1794  0.2249 -0.0107
20699W        W39553   6.239   3.828  11.227  0.1676 -0.4542 -0.2050
20700W        W39554   8.491  14.618  12.617 -0.0291 -0.0421  0.2622
20701W        W39555  12.343   1.743  12.908  0.1342  0.0601 -0.4200
20702W        W39556  11.147   4.193  13.640 -0.0587  0.1275 -0.1192
20703W        W39557   0.473   2.294   0.258 -0.0988 -0.0266  0.4718
20704W        W39558  12.662   9.734  10.868  0.0261  0.0983  0.1293
20705W        W39559   6.215  18.313   0.605 -0.1144 -0.2073 -0.0342
20706W        W39560   7.536  12.039   2.538 -0.0045  0.2035  0.4566
20707W        W39561  15.223   9.528   2.804 -0.1729 -0.2073  0.3712
20708W        W39562  18.033   7.172  14.648  0.0997 -0.0150 -0.0453
20709W        W39563   4.955  12.513   3.383  0.0244 -0.1184 -0.1083
20710W        W39564   8.490  10.898  14.505  0.0146 -0.2373 -0.2184
20711W        W39565   6.690  12.474  13.181  0.0510 -0.0191  0.0242
20712W        W39566   2.423   6.378  14.114  0.2453 -0.0705 -0.0428
20713W        W39567  13.840   1.949  13.199 -0.2056 -0.0589  0.0664
20714W        W39568   9.119  11.677   0.024  0.0992 -0.1649  0.2059
20715W        W39569   5.686   6.890   3.004  0.1130 -0.1429 -0.2678
20716W        W39570   2.037   6.613   3.038  0.0276  0.0570 -0.1127
20717W        W39571   2.434  12.484  14.924 -0.1480  0.3372  0.2679
20718W        W39572   3.752   2.650   5.160  0.0551 -0.0554  0.0142
20719W        W39573  18.337   2.769   1.782 -0.0697 -0.2321  0.3574
20720W        W39574  13.012   3.456  11.619  0.1261  0.0534  0.0586
20721W        W39575   8.089   2.919   2.789 -0.4672 -0.1359 -0.1625
20722W        W39576   8.892   7.078   3.958  0.2174 -0.3048  0.0575
20723W        W39577   2.406   1.050   1.225 -0.1714 -0.1426 -0.0279
20724W        W39578  13.606   9.459  14.870  0.0662  0.1931  0.2468
20725W        W39579  10.215   5.843   0.329 -0.2952  0.1255 -0.0813
20726W        W39580  12.645  10.294  12.982  0.0501 -0.1394 -0.0602
20727W        W39581   5.714   8.839  14.359 -0.1313 -0.0655 -0.1374
20728W        W39582   2.780   7.396  12.802  0.0900 -0.2464  0.0797
20729W        W39583   0.699   0.755  12.793  0.1735 -0.2011  0.2649
20730W        W39584   8.191   0.887   2.272  0.1934  0.4431 -0.2632
20731W        W39585  14.194   0.600   2.503 -0.2325  0.1393  0.1731
20732W        W39586  15.794   0.952  13.321  0.3707 -0.0485 -0.0072
20733W        W39587   2.887   9.874  15.048 -0.1726 -0.1341 -0.0139
20734W        W39588   3.416   8.382   4.118  0.0411  0.0668 -0.0156
20735W        W39589   7.104   6.536  13.119  0.4767 -0.0590  0.3456
20736W        W39590   2.668   6.993   4.092 -0.1731 -0.0762 -0.1218
20737W        W39591  13.488   8.476   0.494  0.0298  0.3079 -0.0902
20738W        W39592  18.195  10.095   0.948  0.0164 -0.0688 -0.2014
20739W        W39593  15.379   4.929  11.208 -0.0460  0.1250 -0.1352
20740W        W39594   1.797   3.156   0.766 -0.2146  0.0924  0.0188
20741W        W39595  16.208   5.424  13.696  0.0037 -0.0599  0.0408
20742W        W39596  11.995   4.816   1.841  0.0152 -0.2116 -0.2160
20743W        W39597   6.625  13.280   3.498  0.1497 -0.0477 -0.2378
20744W        W39598   6.148  17.081  13.864 -0.1000 -0.0417 -0.0100
20745W        W39599   1.619   4.202   3.413  0.1667 -0.3303 -0.0951
20746W        W39600   9.074   3.946  13.300 -0.1412  0.1274 -0.2173
20747W        W39601   3.620   5.609  14.051 -0.1084  0.2538  0.2917
20748W        W39602  16.204   8.855  13.070 -0.0821  0.0458 -0.0291
20749W        W39603  16.190   4.919   4.118  0.1281  0.0205 -0.0294
20750W        W39604   5.003  13.081  11.320 -0.0235  0.0105  0.0287
20751W        W39605   2.081   4.516   1.140  0.0217  0.0637  0.4145
20752W        W39606  11.578   2.728   1.609  0.1708 -0.2074 -0.0572
20753W        W39607  18.264   1.693  10.875  0.1023  0.1796 -0.3043
20754W        W39608   3.252   6.137  11.293 -0.0472 -0.3345  0.3073
20755W        W39609   5.473   1.076  10.604 -0.1135  0.0742  0.0484
20756W        W39610   0.447   3.458  13.083  0.0822 -0.2682  0.0483
20757W        W39611   1.631  11.556   3.664  0.0603 -0.2435  0.0263
20758W        W39612  15.226  11.283  11.900 -0.0685  0.0800 -0.0494
20759W        W39613   6.008  15.135  10.127  0.0887  0.1533 -0.1598
20760W        W39614  13.087   6.383   3.539  0.0054 -0.0293  0.1466
20761W        W39615   3.481   1.158  13.648 -0.0898  0.0612 -0.0577
20762W        W39616   4.232  13.460  12.888  0.0984  0.1736  0.1142
20763W        W39617  10.022   0.329  15.106  0.0119 -0.1802  0.1861
20764W        W39618  10.095   8.151  11.227  0.2425 -0.1413  0.1038
20765W        W39619  13.529  18.096  13.764  0.3491  0.1612  0.0420
20766W        W39620  16.938   3.774   2.099  0.2414  0.2497  0.0111
20767W        W39621  14.813  17.020  14.766  0.1377 -0.1559 -0.1408
20768W        W39622   9.585  18.813   3.795 -0.1729 -0.1775 -0.1321
20769W        W39623  12.252  13.909  13.761 -0.1056 -0.0607  0.1569
20770W        W39624   1.647   2.482   4.240 -0.2239  0.1107 -0.2334
20771W        W39625   4.234   6.010   2.592 -0.0323  0.0646  0.0946
20772W        W39626  14.683   7.396   2.953  0.0817  0.0128  0.2772
20773W        W39627  17.506  13.004  11.497  0.2967 -0.1447  0.1010
20774W        W39628   1.234   9.923  10.046 -0.0632  0.3300  0.3478
20775W        W39629   9.832   4.700  10.348 -0.1410 -0.1689  0.1069
20776W        W39630   3.509   0.960   3.026 -0.0664  0.1636 -0.1085
20777W        W39631  15.233   9.828  13.331  0.0519 -0.0899 -0.0794
20778W        W39632  11.245   5.683   4.722 -0.2057 -0.2257 -0.0986
20779W        W39633   3.464  10.754   2.654 -0.1376  0.3311  0.2169
20780W        W39634   0.319   6.288  14.930 -0.0235 -0.2080 -0.0975
20781W        W39635   7.387   2.938   2.037 -0.0578 -0.3145  0.1380
20782W        W39636   0.196   4.209  11.392 -0.2443  0.1899  0.0530
20783W        W39637   2.700  16.371  13.727 -0.0249 -0.0860  0.1194
20784W        W39638   5.049  10.988  11.270  0.1191 -0.1471  0.0973
20785W        W39639  10.873  15.545  12.923  0.0615  0.1094  0.1848
20786W        W39640  17.727   9.762   2.374 -0.1633 -0.2413  0.1943
20787W        W39641   3.077   4.074  10.572 -0.1262 -0.0449  0.2515
20788W        W39642  11.996   2.853   3.596  0.1470  0.3315 -0.0371
20789W        W39643   8.362   9.513  11.873 -0.1646 -0.1072  0.0155
20790W        W39644   7.319  13.306  12.469  0.1057  0.0248  0.0782
20791W        W39645  14.344   7.882  11.593  0.2843 -0.0540 -0.1894
20792W        W39646   0.142   3.213  12.596 -0.0733 -0.0419 -0.1834
20793W        W39647  12.965   5.583   4.278 -0.1929 -0.1805 -0.2755
20794W        W39648  12.712  16.218  11.328 -0.0189 -0.0868 -0.2471
20795W        W39649   3.750   9.972  12.912  0.0768 -0.2486 -0.0389
20796W        W39650  11.253   7.037   3.224  0.0836 -0.1002 -0.0376
20797W        W39651  12.052  15.022   0.855  0.1406 -0.0212  0.0776
20798W        W39652  17.407   6.855   3.957 -0.2188 -0.0330 -0.1782
20799W        W39653  16.381  14.252  14.875  0.0873 -0.1526 -0.1864
20800W        W39654  18.676   6.789  11.064  0.0884  0.1879 -0.0476
20801W        W39655   3.199   9.552   0.116 -0.2616  0.1753  0.1696
20802W        W39656  16.057  11.217   3.743 -0.0663  0.0604  0.2670
20803W        W39657   7.849   9.469  13.995 -0.0332 -0.0245 -0.4031
20804W        W39658   7.905  18.054   3.955  0.1047 -0.2142 -0.1644
20805W        W39659  11.505  10.638  11.231 -0.2334 -0.1011  0.0373
20806W        W39660  18.399  12.663  11.279  0.1102 -0.0894  0.1473
20807W        W39661   0.958  12.229  14.709  0.0774 -0.0164 -0.0994
20808W        W39662  14.728  13.190   2.573 -0.0005 -0.0205 -0.0394
20809W        W39663  12.423   2.470  13.520 -0.2203  0.1158 -0.3206
20810W        W39664  12.947  17.952   5.455 -0.0138  0.0612  0.0668
20811W        W39665  10.077  12.807   0.192 -0.2323 -0.2810 -0.0185
20812W        W39666  18.514   7.852  12.596 -0.0125 -0.3179  0.0275
20813W        W39667   0.325  13.763  13.724 -0.3203 -0.1385 -0.2035
20814W        W39668  15.509  17.693  12.068 -0.3239 -0.0699  0.0558
20815W        W39669  10.119  11.162   1.610  0.0669  0.1112  0.0839
20816W        W39670   1.232  11.628   2.261  0.1200 -0.0693  0.2307
20817W        W39671   9.684  17.054  10.656 -0.2407 -0.0233  0.0700
20818W        W39672   5.310   6.518  10.882 -0.1674  0.0323 -0.1022
20819W        W39673   4.612   5.363   4.593  0.1420 -0.0259  0.0813
20820W        W39674   0.745   8.194   0.891  0.1679  0.1665  0.3215
20821W        W39675  11.301  17.463   0.912 -0.1437  0.1312  0.0287
20822W        W39676   0.538  16.138  11.917 -0.0724  0.2645 -0.0634
20823W        W39677   8.866   3.174   2.513  0.1997  0.4244  0.2344
20824W        W39678   4.988  13.327   4.108  0.3130 -0.0043  0.0623
20825W        W39679   2.966   6.375   1.289 -0.2076  0.1760 -0.1018
20826W        W39680   3.292  10.425   0.599  0.0896  0.1958  0.1070
20827W        W39681   2.299   1.778   3.671  0.2359  0.3208 -0.0538
20828W        W39682  16.796   6.457   2.206 -0.1346 -0.2835  0.0125
20829W        W39683   3.721   6.565   1.241  0.0984 -0.1820  0.0608
20830W        W39684  15.749   0.750  11.049  0.1504 -0.1207  0.4184
20831W        W39685   7.805  10.441   2.210  0.1252 -0.0396 -0.1364
20832W        W39686   9.002   5.859  14.671  0.4110 -0.2349 -0.1342
20833W        W39687  17.909   3.105   0.448 -0.3298  0.1021 -0.0271
20834W        W39688   1.801  14.333  11.314 -0.0549  0.2471 -0.0402
20835W        W39689  14.976   4.418  14.589  0.0571 -0.1734 -0.0836
20836W        W39690  16.846  17.243  11.370 -0.1756  0.1691 -0.0125
20837W        W39691  16.299   5.998   1.402  0.2046 -0.0282  0.0319
20838W        W39692  14.411  17.515  13.668  0.3210  0.2425 -0.2888
20839W        W39693   7.701  12.940   2.929 -0.1986 -0.1299  0.4099
20840W        W39694   1.937   6.481  10.534 -0.0593  0.2458 -0.1694
20841W        W39695   5.161  14.258   4.144  0.0144 -0.1047 -0.0543
20842W        W39696  16.309   7.709   4.837 -0.2128  0.1538 -0.2156
20843W        W39697  13.486  14.681   5.111  0.0877  0.2147  0.1729
20844W        W39698   8.967   8.231   9.901 -0.0981 -0.0721  0.2406
20845W        W39699  18.740   2.761   0.936  0.0850 -0.0080  0.0172
20846W        W39700   3.348  10.997  13.946  0.1485  0.1214 -0.1115
20847W        W39701  18.734  18.851   2.389 -0.0329  0.3712  0.0883
20848W        W39702   5.783  18.052   0.699  0.2558  0.3076  0.2108
20849W        W39703   2.412  13.237   2.272 -0.0086 -0.2601 -0.1074
20850W        W39704  12.262   4.092   0.149 -0.2251  0.1756 -0.0808
20851W        W39705  17.209  16.275   1.558 -0.0643  0.3623  0.0580
20852W        W39706  17.980   1.914  15.098  0.1203 -0.0258  0.0548
20853W        W39707   5.126   4.219  12.626 -0.1552  0.0534 -0.0636
20854W        W39708  15.082  16.763  11.861 -0.0698 -0.0465  0.1926
20855W        W39709   9.284   6.877   9.698  0.1944 -0.0253 -0.1158
20856W        W39710   5.173   2.793   4.898 -0.4773  0.0486  0.1223
20857W        W39711  14.852  14.779   0.577  0.0248 -0.1307  0.4423
20858W        W39712  10.535   5.274   4.076 -0.1681 -0.1416 -0.2701
20859W        W39713  14.346  17.944   0.633  0.0899  0.0167 -0.0295
20860W        W39714   8.917  14.555  11.640  0.0867 -0.0851  0.1329
20861W        W39715  11.779   9.484  14.789 -0.0151 -0.2620 -0.1360
20862W        W39716   3.363   7.040   3.200  0.0384  0.1192  0.1160
20863W        W39717   1.003   6.802   2.055 -0.0058 -0.1986  0.0177
20864W        W39718   8.929   1.371  14.387 -0.2738  0.1759 -0.5347
20865W        W39719  10.875   4.275   1.989  0.3585 -0.2302 -0.0663
20866W        W39720   4.572   5.423  10.995 -0.1669  0.2212 -0.0915
20867W        W39721   8.031  12.053   0.374 -0.0007  0.1780 -0.1543
20868W        W39722   2.676  11.770   2.075 -0.5003 -0.4915  0.0435
20869W        W39723  13.941   5.153  14.426  0.0507  0.1049 -0.1256
20870W        W39724   3.550  15.155   0.171 -0.2889  0.2269 -0.1981
20871W        W39725  11.884   2.283  10.668  0.2358  0.1881  0.2057
20872W        W39726   8.416  16.134  10.251  0.1745  0.0218 -0.1107
20873W        W39727  15.164  17.943  11.696 -0.5220  0.2152  0.1314
20874W        W39728   5.372   5.307  14.225  0.3622  0.2797 -0.2991
20875W        W39729   0.961  12.730  10.526  0.2656  0.1393  0.1093
20876W        W39730  13.632   2.178   5.683  0.0401  0.3775  0.1514
20877W        W39731   2.632  17.640   1.491 -0.3159 -0.1150 -0.2588
20878W        W39732   1.180   7.884   1.419 -0.0209 -0.0624 -0.2474
20879W        W39733  11.257  11.496  12.993  0.0894  0.0401 -0.0670
20880W        W39734   2.322  14.021   0.586 -0.2480  0.2123  0.0934
20881W        W39735  17.078   4.083  14.332 -0.3163  0.0264  0.2322
20882W        W39736  15.768  13.770  14.246 -0.1102 -0.0168  0.4741
20883W        W39737   1.197   7.857  11.671  0.2073  0.1034  0.2966
20884W        W39738  15.526   7.249  13.722 -0.0642  0.0032  0.1655
20885W        W39739   8.257   6.333  15.122 -0.0749  0.3594  0.0539
20886W        W39740   1.188  10.331   2.560 -0.1957  0.1336 -0.1149
20887W        W39741  12.412   1.547  14.238  0.1013  0.1543  0.1749
20888W        W39742   2.534  10.112  10.802 -0.1672 -0.2051 -0.0574
20889W        W39743  14.794   2.351   2.771  0.4475 -0.2540 -0.0482
20890W        W39744   3.641  13.890  13.571  0.1631 -0.0859  0.0427
20891W        W39745   3.918  18.248  13.977  0.1260 -0.1758  0.0895
20892W        W39746   5.624  10.225   1.482  0.3632 -0.1269 -0.0492
20893W        W39747  11.091  15.699   3.912 -0.3882 -0.3223 -0.2458
20894W        W39748   3.550   9.137   3.107 -0.1174 -0.0901 -0.0311
20895W        W39749   9.589  12.022  14.361 -0.0443  0.2193 -0.1950
20896W        W39750  16.515  16.672  13.861  0.1669 -0.1471  0.0854
20897W        W39751   4.401   7.487   1.644  0.0788  0.1587  0.1515
20898W        W39752  13.467   8.648  13.941 -0.3027  0.0698  0.1241
20899W        W39753  16.706   2.749   3.657  0.0964  0.0383  0.1844
20900W        W39754  18.478  10.026  14.115  0.1273  0.1227  0.0180
20901W        W39755   7.647  10.354   3.389 -0.0993  0.2211  0.3093
20902W        W39756  12.985  16.494   1.742 -0.0398  0.0315 -0.0859
20903W        W39757   9.987   0.510   1.385  0.1854  0.0570  0.0517
20904W        W39758  18.721   3.577  12.776 -0.0071 -0.1285  0.1912
20905W        W39759   0.692  15.523   1.155  0.0130  0.2082 -0.3536
20906W        W39760   2.523  12.658  13.648 -0.1927  0.1477  0.2086
20907W        W39761   7.708   9.136   3.904  0.2537  0.0610  0.2517
20908W        W39762   3.176  14.136  10.687  0.1454 -0.3363 -0.0320
20909W        W39763   9.123   3.491  13.078  0.2410 -0.0527 -0.0007
20910W        W39764   0.901  16.090   9.981 -0.3437  0.0433  0.2091
20911W        W39765   2.785  13.860  14.551 -0.0760 -0.1568  0.0495
20912W        W39766  13.690   9.491   4.311 -0.0590  0.0579  0.0024
20913W        W39767   8.701  17.277  14.799 -0.4401 -0.0399 -0.1235
20914W        W39768   4.351  17.280  12.489 -0.1428  0.1309  0.0154
20915W        W39769  14.380  12.982  14.938  0.0247 -0.1336 -0.1017
20916W        W39770   5.903  13.112   1.446  0.1703 -0.2340 -0.1853
20917W        W39771   3.380   9.602   2.303 -0.2045 -0.3663 -0.1831
20918W        W39772   4.475   3.345  14.059  0.3376  0.1777  0.3875
20919W        W39773   7.803  16.520  15.123 -0.2276 -0.0527  0.1883
20920W        W39774   5.840   1.238   0.326  0.1568 -0.0795  0.0053
20921W        W39775   8.513   8.725  11.321 -0.0120 -0.2696 -0.1321
20922W        W39776   7.352  16.732   0.281 -0.1333  0.1526  0.2013
20923W        W39777   2.533  14.982   1.500  0.1305 -0.0959 -0.1490
20924W        W39778   4.084   5.921  14.815  0.2979  0.0672 -0.1007
20925W        W39779   9.171  14.227  12.927  0.0466 -0.0544  0.1760
20926W        W39780  14.030   4.907   1.337  0.2069 -0.1674  0.0279
20927W        W39781  17.960   8.160  13.421 -0.0337 -0.2488  0.1648
20928W        W39782   2.096   3.281   4.534 -0.0966  0.3268  0.1466
20929W        W39783  10.529   9.326   2.217 -0.2443 -0.0336 -0.0254
20930W        W39784   8.750   3.873   1.675 -0.2134  0.0498  0.3477
20931W        W39785  17.696   3.660  14.274 -0.1138 -0.1928 -0.0836
20932W        W39786   6.563   1.426  12.070  0.0574 -0.0767  0.1721
20933W        W39787  13.821  18.693   1.714 -0.0764 -0.0816  0.2385
20934W        W39788  14.627  14.360   0.634 -0.1636 -0.3480  0.1199
20935W        W39789   9.039   6.964   4.471  0.0579 -0.1973  0.1113
20936W        W39790   2.623  10.850  11.243 -0.1214  0.0620 -0.2488
20937W        W39791  11.963  13.004  14.512  0.0509 -0.2848  0.1720
20938W        W39792   4.246   4.178   1.103 -0.0785  0.0754 -0.1689
20939W        W39793   0.902   2.311   3.742 -0.1488  0.0724 -0.0288
20940W        W39794   6.533   9.721  11.946  0.0177  0.0143  0.0476
20941W        W39795   3.052  18.788   0.789 -0.0133 -0.0967  0.3564
20942W        W39796   1.903  12.129   2.859  0.1807  0.2510 -0.1400
20943W        W39797   6.933   2.270  11.595  0.1061  0.0720  0.0599
20944W        W39798   1.072   2.278  10.890 -0.3209 -0.1518 -0.0361
20945W        W39799   0.204   2.209   3.205  0.1605 -0.0205  0.0551
20946W        W39800   0.806  15.854   0.382 -0.3246  0.1679 -0.0088
20947W        W39801  15.026   3.274  11.361 -0.0831  0.0764 -0.0007
20948W        W39802  12.365  10.953  14.638  0.1475 -0.0186  0.1140
20949W        W39803  10.108  11.070   0.835  0.0974  0.0373 -0.0358
20950W        W39804   3.853  18.529   4.857 -0.1790  0.2792  0.0940
20951W        W39805  13.964  12.051   3.165 -0.0906 -0.2500 -0.4099
20952W        W39806  13.849   5.624  14.164 -0.3525 -0.0614  0.1388
20953W        W39807   9.160  17.700  12.613  0.0636  0.1456 -0.1817
20954W        W39808   8.001   5.528   4.424  0.0280 -0.0475  0.3240
20955W        W39809  16.321   6.635  12.455 -0.1835 -0.2221 -0.0789
20956W        W39810   0.222   7.075   0.762 -0.1350  0.2656  0.1754
20957W        W39811   1.534  12.198   0.567 -0.3031  0.0815  0.1002
20958W        W39812  16.298   8.467   5.228 -0.3138 -0.0567  0.3826
20959W        W39813  15.672   7.545   2.734  0.1975  0.3171  0.3634
20960W        W39814   4.055  10.892  11.953  0.1435 -0.0312  0.1494
20961W        W39815  14.968   4.719  14.116  0.2313  0.0225  0.0355
20962W        W39816  11.530  16.268  10.897  0.3931 -0.0258 -0.0513
20963W        W39817  11.442  16.206   0.915 -0.2508  0.1838 -0.1244
20964W        W39818  18.594   8.436  14.077 -0.0174  0.2419 -0.0428
20965W        W39819   0.524   3.453  13.984  0.0780 -0.0975 -0.1473
20966W        W39820  12.008  13.866  11.043 -0.0023  0.1785  0.3146
20967W        W39821   9.171   7.180   2.068 -0.0941 -0.1387  0.0915
20968W        W39822  16.018  13.920  14.791  0.1012 -0.2203 -0.0851
20969W        W39823  15.754   9.546   5.282  0.0236  0.4211 -0.0089
20970W        W39824  15.063   7.835  11.277 -0.1391  0.0640 -0.1633
20971W        W39825   3.911   8.532  11.646  0.2690 -0.1083  0.1375
20972W        W39826  17.197  12.027  11.499 -0.4399 -0.0211  0.1558
20973W        W39827   5.360  17.147   1.674 -0.2652 -0.1275  0.2878
20974W        W39828   0.116   8.929   3.381  0.1314 -0.2955 -0.2087
20975W        W39829  10.097   4.582   1.061 -0.1016  0.0740  0.0820
20976W        W39830   8.607  16.407  12.176 -0.4534  0.2059 -0.2806
20977W        W39831  17.267  13.577   2.939 -0.0519 -0.0011 -0.1045
20978W        W39832   4.336   2.262   3.201 -0.1915 -0.0247 -0.1024
20979W        W39833   9.059   3.153   4.266 -0.0306 -0.1718  0.2659
20980W        W39834  13.602   5.288  12.164  0.1958 -0.2454 -0.1077
20981W        W39835  18.227   7.727  12.143  0.4194 -0.1504  0.4099
20982W        W39836  17.813   9.722  14.309 -0.1610  0.0425 -0.1001
20983W        W39837  13.291   8.565   1.253  0.1060 -0.2212  0.5884
20984W        W39838   6.383   4.410  12.766 -0.0220 -0.0175  0.3148
20985W        W39839   3.347   3.209   3.502 -0.1632  0.1127 -0.1696
20986W        W39840   8.081   2.055   4.751 -0.2404 -0.1516 -0.1630
20987W        W39841  15.928   4.868  13.446  0.1786  0.1936  0.2712
20988W        W39842  10.963  18.205  15.025  0.0279 -0.1290  0.1091
20989W        W39843   2.046   0.521  13.297  0.4365 -0.0783 -0.0756
20990W        W39844   7.106   1.745   3.689  0.3038 -0.2553 -0.2911
20991W        W39845   3.793   6.414   1.729 -0.0622  0.2190 -0.1356
20992W        W39846   0.624  14.062   0.489 -0.1140 -0.2219 -0.0435
20993W        W39847  10.409   3.740   2.866  0.0206  0.0329 -0.0218
20994W        W39848  14.171   6.209   2.874  0.2246 -0.1585 -0.2447
20995W        W39849   9.373   7.178  14.785  0.1343 -0.0019  0.1329
20996W        W39850  12.097   4.048   4.137  0.0492  0.3555 -0.1812
20997W        W39851  16.858  18.221  12.746  0.1385  0.0880 -0.1248
20998W        W39852  16.005   5.193   0.659  0.0279  0.0810  0.1804
20999W        W39853   3.500  15.316   2.381 -0.2572  0.0032  0.0555
21000W        W39854   9.329  18.158  11.875 -0.1209 -0.1169 -0.1314
21001W        W39855  15.796   8.164   0.643 -0.0112  0.4602 -0.3818
21002W        W39856   2.360  12.516   4.431 -0.2530 -0.2683  0.1329
21003W        W39857  10.039   4.544  12.372 -0.1325 -0.0334  0.2344
21004W        W39858  10.999  14.183   2.032 -0.0328  0.0796  0.0965
21005W        W39859   9.870  15.606   5.258 -0.0059  0.0811 -0.2908
21006W        W39860  18.656   5.578  12.476  0.1031 -0.2752  0.1611
21007W        W39861   0.922   7.183  10.925  0.0304  0.3417  0.1141
21008W        W39862  17.627  13.027   4.667 -0.0725  0.3087  0.1262
21009W        W39863  16.274   8.814  11.480  0.0549 -0.0781 -0.0915
21010W        W39864  14.543   2.351   2.274 -0.1161 -0.1658 -0.0923
21011W        W39865  15.050  16.718   0.499 -0.4630  0.1070 -0.1164
21012W        W39866   4.574  16.467  10.394  0.1595  0.1320  0.1367
21013W        W39867  18.376  12.888   2.857  0.1328  0.0699 -0.3158
21014W        W39868   5.967   9.310  13.311 -0.0363  0.1447  0.2552
21015W        W39869   6.984   9.167   1.342  0.0261  0.1605  0.1920
21016W        W39870  17.302   0.246  12.769 -0.0845 -0.0557 -0.0377
21017W        W39871   4.547  17.299   2.685 -0.3248 -0.0181  0.0597
21018W        W39872  12.641  14.340  14.118 -0.0603  0.3294  0.0143
21019W        W39873   1.960   5.972   3.636  0.0766 -0.0512  0.2011
21020W        W39874   4.672  14.510   1.158 -0.1406 -0.0222 -0.0301
21021W        W39875   0.039  11.388  11.766  0.3454  0.1889  0.1303
21022W        W39876   3.635  12.688   2.644  0.0443  0.0908  0.0159
21023W        W39877  18.287  11.263  12.677 -0.0141 -0.0051  0.2792
21024W        W39878   5.356   7.513  13.993 -0.3216  0.1827 -0.1100
21025W        W39879  15.021   7.064  12.389  0.1616  0.1234  0.1024
21026W        W39880  14.185  12.975  12.164  0.0627 -0.0926 -0.2581
21027W        W39881   2.109   4.932  11.802  0.1915  0.1049  0.3469
21028W        W39882   5.815  10.595  10.419 -0.0017 -0.0566 -0.1470
21029W        W39883  16.608   8.196  10.872  0.1506  0.0984 -0.0451
21030W        W39884   9.797   9.004   3.640 -0.2400 -0.2240  0.2364
21031W        W39885   9.835  11.764  12.320 -0.0866 -0.1925 -0.2741
21032W        W39886   4.542  10.665  12.874 -0.5846 -0.4592  0.0131
21033W        W39887  13.245   9.814   2.004 -0.0814  0.1141  0.0259
21034W        W39888  11.343  15.550  11.869  0.1723  0.2416 -0.0356
21035W        W39889   9.916   3.464  13.698  0.2780  0.4204  0.2977
21036W        W39890   3.655   9.103  12.600 -0.3107  0.0745  0.1768
21037W        W39891  13.494  17.570  13.551 -0.2020  0.0812  0.2095
21038W        W39892  18.583  10.359   1.108  0.0485  0.2484  0.1738
21039W        W39893  17.308  15.505   2.383  0.0855 -0.3199  0.0218
21040W        W39894  13.837  10.565  12.238  0.1190  0.0210 -0.0353
21041W        W39895   1.598  15.487  13.309 -0.0421  0.2398 -0.1460
21042W        W39896   5.272   4.788  14.162  0.2288  0.4340 -0.0472
21043W        W39897   7.374   2.680   4.596 -0.1117  0.2617  0.0926
21044W        W39898   5.753  12.532  10.083  0.1812  0.0323  0.0478
21045W        W39899  17.393   1.829   0.559  0.3632 -0.2297 -0.3287
21046W        W39900   9.803  15.334   0.793 -0.2631 -0.0166 -0.3545
21047W        W39901  10.710   7.209   3.221  0.1538 -0.0942 -0.0010
21048W        W39902   9.164   6.646   2.113 -0.1271 -0.1219 -0.0524
21049W        W39903   7.210   0.177   0.432 -0.0739 -0.0655 -0.3418
21050W        W39904   2.153   9.218  10.754 -0.3972 -0.1069 -0.0149
21051W        W39905   4.268  11.337   1.140  0.4059 -0.1721  0.0319
21052W        W39906   2.346  14.524   0.431  0.0648  0.1099  0.0437
21053W        W39907  18.838   0.405   3.926  0.0809  0.2051  0.0595
21054W        W39908   1.306  13.162  13.678 -0.4348  0.0871  0.0620
21055W        W39909  14.499  15.332  14.999 -0.2522  0.2184 -0.2641
21056W        W39910  12.615  17.471  11.765  0.0018 -0.1916 -0.0373
21057W        W39911   7.789   6.333   0.785  0.3929 -0.2671  0.2204
21058W        W39912  11.118   0.534   2.529  0.0019 -0.2009  0.0834
21059W        W39913   5.816   7.831   3.670  0.4098  0.0851 -0.2640
21060W        W39914   7.511  12.405  11.237  0.1163 -0.3289 -0.1599
21061W        W39915  12.296  11.519  12.089  0.0093  0.2409  0.2413
21062W        W39916   1.256   2.016   0.332 -0.0651  0.0331  0.0438
21063W        W39917   2.447   2.409   3.021 -0.0518  0.2369 -0.3048
21064W        W39918   2.389   9.910   3.560  0.3027  0.0411 -0.2203
21065W        W39919  14.674  13.887   0.956 -0.2059  0.2927 -0.0625
21066W        W39920   0.536  14.889   1.194  0.2230 -0.1524 -0.0605
21067W        W39921   8.036  14.455  11.469 -0.1744  0.0472  0.0817
21068W        W39922  11.835  16.875  12.532  0.1592  0.3669 -0.0850
21069W        W39923  12.368   3.731   1.192 -0.1660 -0.2088  0.0545
21070W        W39924   7.114   9.120   4.020 -0.2988  0.2900  0.0723
21071W        W39925   5.567   3.482   1.654 -0.1871 -0.0566  0.2720
21072W        W39926   6.675  16.564   5.074 -0.0681 -0.0773  0.1827
21073W        W39927  16.109  11.045  11.662  0.2376  0.0289 -0.1725
21074W        W39928  11.312   2.743   2.994 -0.2110 -0.1028  0.4495
21075W        W39929   5.212   7.354   0.610 -0.0786 -0.0264 -0.0479
21076W        W39930   3.180  15.245   1.439 -0.1747 -0.1352 -0.3227
21077W        W39931  12.865  15.091  14.759  0.0850  0.0083 -0.3732
21078W        W39932  18.787   6.213  13.219 -0.2459 -0.0853  0.0392
21079W        W39933  12.943  16.999   2.575 -0.0126 -0.1424  0.3245
21080W        W39934  18.332   3.042  11.272  0.3969 -0.0616 -0.2407
21081W        W39935   1.612   2.049  15.017  0.1355  0.0482  0.0422
21082W        W39936   3.882   5.854   4.144  0.1002 -0.3082 -0.1074
21083W        W39937  14.073   2.816  13.366  0.1305  0.1307  0.2895
21084W        W39938   9.966   7.708   2.991  0.1526  0.1274  0.0694
21085W        W39939  14.573   7.032   1.317  0.0444  0.0750  0.0692
21086W        W39940   2.476   4.581   3.703 -0.2010  0.0673 -0.2699
21087W        W39941  11.477  10.878   2.129 -0.0047 -0.1110 -0.1377
21088W        W39942  11.833   7.133  12.338 -0.0220 -0.0408 -0.0574
21089W        W39943   0.072   2.205   2.703  0.0376  0.1273 -0.0278
21090W        W39944  16.584   1.374  14.775 -0.0722  0.1336 -0.0256
21091W        W39945   2.560   7.860  12.937  0.1234 -0.1742  0.0114
21092W        W39946  11.142  13.802   0.204  0.3241 -0.1745  0.1003
21093W        W39947   7.792   0.179   4.533 -0.3203  0.1108  0.0593
21094W        W39948   0.189  16.198   1.906  0.0207  0.0629 -0.0036
21095W        W39949   7.769   4.105   4.988  0.1628  0.1490  0.0777
21096W        W39950  13.197  13.360  12.689  0.1971 -0.0692  0.0513
21097W        W39951  17.299  17.300   4.360  0.4744 -0.0506 -0.1337
21098W        W39952  12.910  11.548   2.957 -0.0675 -0.2888  0.2246
21099W        W39953   1.667   7.049   1.447 -0.2284  0.0339 -0.0276
21100W        W39954  15.112   8.545  14.028 -0.0613  0.0717  0.1313
21101W        W39955  10.748  15.397  13.449 -0.0590 -0.2668 -0.1117
21102W        W39956   8.093   7.591   0.794  0.2048  0.0546 -0.2057
21103W        W39957  13.714   1.746  15.091  0.0248  0.0210 -0.2617
21104W        W39958  13.281  13.813  11.323  0.0599 -0.2708 -0.1054
21105W        W39959  12.358  10.366  13.504 -0.1175 -0.2091  0.2556
21106W        W39960  15.195   8.818   0.414  0.0096  0.3463 -0.2461
21107W        W39961   4.025  13.295   1.568  0.0260 -0.1464 -0.1907
21108W        W39962  10.155   2.638  13.516 -0.0160  0.0683 -0.1411
21109W        W39963   2.455   6.226   9.738  0.1796 -0.3217 -0.1302
21110W        W39964   1.300   9.680  12.530 -0.0668 -0.1869  0.0578
21111W        W39965   4.985   8.692   4.034  0.2502  0.0678 -0.2268
21112W        W39966   7.253  13.029   4.137  0.1875  0.0890  0.0392
21113W        W39967   2.934  15.120   0.945  0.3925 -0.1768 -0.0591
21114W        W39968   9.672   8.155   3.909 -0.1486  0.1007  0.0236
21115W        W39969  11.968  15.833   0.316 -0.1018  0.0555  0.1887
21116W        W39970  16.563  18.319   2.328 -0.0571  0.1026  0.1384
21117W        W39971   3.435  10.646  13.561 -0.4084 -0.0440  0.2875
21118W        W39972  14.150   3.553  14.584 -0.0402  0.1443 -0.1568
21119W        W39973   9.200  18.171  13.025 -0.0964  0.0869  0.0797
21120W        W39974  11.529  12.636  13.857  0.0484  0.0180 -0.1349
21121W        W39975  16.007  13.145   4.163 -0.1057  0.0041 -0.0201
21122W        W39976   5.128   6.756   2.367 -0.3357  0.3277 -0.2691
21123W        W39977  13.914  14.943  14.129  0.1058 -0.2553  0.1644
21124W        W39978   1.489   9.045   3.743  0.0492 -0.3466 -0.1918
21125W        W39979  15.600  12.510  13.884  0.0423 -0.2326 -0.2949
21126W        W39980  14.350  13.047   9.799  0.0909  0.2795  0.1793
21127W        W39981  17.472  11.075  11.884  0.0189  0.0288 -0.3675
21128W        W39982  12.611   8.395   0.722 -0.1097 -0.0075 -0.0122
21129W        W39983   5.217   9.535   1.202  0.1699  0.1415 -0.2367
21130W        W39984   7.724   7.377  14.389  0.0674 -0.1216 -0.2079
21131W        W39985  18.133  15.831  12.050 -0.1446 -0.0478 -0.2084
21132W        W39986  16.830   4.595  14.356  0.1194  0.3764  0.1885
21133W        W39987  14.015   0.189  11.942 -0.1690  0.1598  0.1542
21134W        W39988  11.602  13.880  14.681 -0.3240  0.1022  0.1447
21135W        W39989   8.699   6.440   1.029  0.1628 -0.3322  0.0440
21136W        W39990   9.354  17.142   1.825 -0.2967  0.1369 -0.1328
21137W        W39991   4.819   4.582  12.708  0.0869 -0.0674 -0.1132
21138W        W39992  12.703   0.229  11.768  0.0439 -0.0508  0.0637
21139W        W39993  17.710   0.366  11.847 -0.0848  0.1430  0.1706
21140W        W39994   5.739   5.995  13.000  0.1977  0.0372 -0.0192
21141W        W39995  13.404   8.253   3.613  0.0764 -0.0728  0.0417
21142W        W39996  12.885  18.074   0.847 -0.1898 -0.3404 -0.0596
21143W        W39997   2.565  13.596  11.619 -0.0811 -0.0220  0.0069
21144W        W39998  18.680   5.741   4.706 -0.2417 -0.1269 -0.2016
21145W        W39999   8.483   5.541   3.667 -0.2512 -0.2020 -0.1358
21146W        W40000   6.697  15.178   2.063 -0.0908  0.3730 -0.0881
21147W        W40001   6.083   7.578   1.257 -0.1865 -0.1370  0.2392
21148W        W40002  13.749  12.975  14.781 -0.0821  0.0854  0.2518
21149W        W40003  18.194  14.122   3.834  0.2589 -0.4823 -0.2344
21150W        W40004  10.674   8.290   1.601  0.1171  0.1953  0.1666
21151W        W40005   1.183  18.256  11.385  0.1108 -0.2069  0.0584
21152W        W40006   0.267  15.109   4.633 -0.2383 -0.0826 -0.0202
21153W        W40007  14.147  18.252   1.849  0.1117  0.3897  0.2649
21154W        W40008   4.836  14.960   2.354  0.0512  0.1659 -0.2030
21155W        W40009  11.040   6.216  13.878 -0.0820 -0.1399 -0.0583
21156W        W40010  13.853   4.249  11.236 -0.1016  0.0367 -0.1635
21157W        W40011   8.758   9.889  14.332 -0.0435 -0.1876  0.0900
21158W        W40012   8.419  13.890  13.717 -0.2169  0.0178 -0.0319
21159W        W40013   8.491   9.339   0.096 -0.3386 -0.0718  0.1919
21160W        W40014   1.156   5.080  11.801 -0.1119  0.0103 -0.2289
21161W        W40015  14.484   4.620   1.614  0.2106 -0.0751  0.0017
21162W        W40016   0.346  14.343   1.694  0.0212 -0.0319 -0.0766
21163W        W40017  16.276  16.002   4.702  0.0820  0.2630  0.3602
21164W        W40018   4.240   8.099   0.525 -0.2380  0.0291 -0.0642
21165W        W40019   6.913   3.125   2.743 -0.3137  0.0844  0.1722
21166W        W40020   1.755   1.425   4.536 -0.0213  0.1758  0.0987
21167W        W40021  11.393   9.817  14.887 -0.0079  0.1363 -0.0146
21168W        W40022   0.616   3.784   0.672  0.2950 -0.2117  0.0362
21169W        W40023   2.558  12.668   3.960  0.5759 -0.0656  0.0976
21170W        W40024   2.416  10.108   1.760 -0.2214  0.0168  0.2214
21171W        W40025  16.609  14.008   3.929  0.1182  0.0047 -0.0262
21172W        W40026  14.885   5.265  14.957 -0.0396 -0.2450  0.2699
21173W        W40027  17.057  14.273   4.070 -0.2110  0.1235 -0.0051
21174W        W40028  12.614  14.845   4.375 -0.1020 -0.1049  0.1525
21175W        W40029   6.335   9.189   3.586 -0.0916 -0.0416 -0.2029
21176W        W40030   2.899  10.573  13.277 -0.2117  0.0134  0.1492
21177W        W40031  11.130   4.045   1.579  0.5184  0.0446 -0.0740
21178W        W40032   5.911  13.959  12.598 -0.3409 -0.2551 -0.2996
21179W        W40033  11.489   6.972   4.395 -0.2126  0.3000  0.2878
21180W        W40034   0.292  18.354   3.236 -0.0070 -0.1443 -0.1293
21181W        W40035   1.330  10.754   1.250 -0.2398  0.4997  0.2973
21182W        W40036   4.129  15.208   1.579  0.0406  0.2853 -0.0594
21183W        W40037  11.194  16.547   2.109  0.0544  0.3688 -0.2995
21184W        W40038   3.187  10.043   2.175 -0.0262  0.2376  0.1736
21185W        W40039   9.213  14.548   0.466 -0.3535 -0.0960 -0.0209
21186W        W40040   4.328  13.955   2.463 -0.0045 -0.0771 -0.3852
21187W        W40041   0.800   0.970   4.350 -0.0556 -0.1294 -0.2796
21188W        W40042   0.961   8.777   3.127 -0.1058  0.0197 -0.2053
21189W        W40043   5.951   8.309  12.171 -0.0929  0.3015  0.2350
21190W        W40044   1.814   1.033  14.771 -0.3484 -0.0396 -0.1446
21191W        W40045  12.006   8.409  13.678 -0.1541 -0.0865  0.1846
21192W        W40046   3.115   8.865   2.980 -0.2594  0.2854 -0.0044
21193W        W40047  13.721   4.928   4.291  0.0080 -0.2296 -0.2066
21194W        W40048   0.259  18.329  13.451  0.2149 -0.0079 -0.1378
21195W        W40049  17.100  12.250  12.187  0.0873 -0.0804 -0.0873
21196W        W40050   6.069  14.546   0.081 -0.1684 -0.1805  0.0956
21197W        W40051  18.616  18.132  13.127 -0.0327 -0.0428  0.1085
21198W        W40052   6.268   0.962  14.922 -0.0894 -0.2823 -0.1023
21199W        W40053  17.177  16.065  12.016 -0.2592  0.0908  0.2011
21200W        W40054  15.364  17.241   3.887 -0.4870  0.2852  0.1243
21201W        W40055  10.819   6.481  14.661 -0.1692  0.3535 -0.1055
21202W        W40056   4.313   5.160  11.947  0.0346 -0.0157  0.0310
21203W        W40057   9.709   2.687  12.107 -0.0071 -0.1534 -0.2083
21204W        W40058  17.780  10.513   1.925 -0.0980 -0.0161 -0.1881
21205W        W40059   6.606  17.581   9.613 -0.0662 -0.1277 -0.0244
21206W        W40060  15.615  17.664   3.635 -0.2031  0.1900  0.1002
21207W        W40061  16.084  12.706  10.082  0.0266 -0.1058  0.0138
21208W        W40062   7.947   6.973  14.114 -0.3369  0.2002 -0.1135
21209W        W40063  14.914   1.684   1.047  0.1296  0.1935  0.2047
21210W        W40064   6.888   5.619   4.347  0.2508 -0.0855  0.0323
21211W        W40065   6.468   8.621   0.848  0.3061 -0.2483  0.2170
21212W        W40066  14.764  11.815  14.605 -0.0330  0.0986  0.0396
21213W        W40067  15.650  12.168   1.692  0.0722  0.2416  0.0266
21214W        W40068  10.895   9.379  13.789 -0.0991  0.1125  0.1916
21215W        W40069   7.736  14.632   4.579 -0.0214  0.0376  0.2873
21216W        W40070   3.790   7.344   5.022 -0.1470  0.4863  0.2814
21217W        W40071   1.748  10.495   1.150 -0.0977  0.0041  0.0414
21218W        W40072   3.720   9.865  11.340 -0.2343 -0.1956 -0.1331
21219W        W40073   7.294   8.352  13.178 -0.0386 -0.2359  0.0273
21220W        W40074   5.558   1.164  14.466 -0.0167 -0.2414  0.0088
21221W        W40075  17.011   9.900  12.875 -0.3673  0.1906 -0.1494
21222W        W40076   8.775   7.888  12.431 -0.1464 -0.1058  0.0407
21223W        W40077  16.869   4.893  13.672 -0.1524  0.2334  0.1978
21224W        W40078   2.645  16.154  12.564  0.2504  0.1342  0.1822
21225W        W40079   0.492   6.655   1.986  0.1780  0.1919 -0.2552
21226W        W40080  15.889  16.185  12.187  0.1472 -0.2826  0.2875
21227W        W40081  14.181  16.380   3.349  0.1008 -0.0754 -0.0888
21228W        W40082  10.508   0.611   2.271  0.0169  0.0294  0.1760
21229W        W40083  13.782  13.711   1.310  0.0150 -0.0137 -0.1664
21230W        W40084  16.850  17.479  10.860  0.0055  0.0821  0.2330
21231W        W40085  14.903  18.381  11.493 -0.1309  0.0104  0.2906
21232W        W40086  17.443   4.193  10.854  0.0350  0.0099  0.0752
21233W        W40087  12.845   1.526   0.079 -0.3923  0.0205 -0.0306
21234W        W40088  17.446  16.383   1.998 -0.2598 -0.2101  0.0284
21235W        W40089   0.987   0.075  13.156 -0.2544 -0.0195  0.3306
21236W        W40090   0.603  13.644  14.238 -0.0420 -0.4571  0.0300
21237W        W40091   2.176   7.603   2.044  0.1246  0.0349  0.1713
21238W        W40092  17.893  10.821  14.704  0.0930  0.4090  0.1024
21239W        W40093   8.052  18.202   1.462 -0.1903 -0.2923 -0.3903
21240W        W40094  14.625  15.545  11.567  0.0919 -0.2345  0.3304
21241W        W40095   8.361   7.378  14.960 -0.3051  0.1043  0.1510
21242W        W40096  11.182  15.459  10.880  0.0777 -0.0648  0.2512
21243W        W40097  10.422  12.013   4.679  0.0170  0.2913 -0.1796
21244W        W40098  13.039   0.405  12.520  0.0312 -0.0121  0.0877
21245W        W40099  17.356   7.216   1.815 -0.3106  0.1217  0.0188
21246W        W40100  17.023   6.446   2.632  0.1041  0.0326 -0.0088
21247W        W40101   7.265  11.814   0.465  0.2855  0.2401 -0.2080
21248W        W40102  16.430   7.998   4.045  0.0575  0.1528  0.1853
21249W        W40103  17.853  17.103  13.817  0.2893  0.0353 -0.1151
21250W        W40104  18.023   9.980   0.503  0.2148 -0.2884 -0.0147
21251W        W40105   8.709  11.469   1.032 -0.0107 -0.2587 -0.3313
21252W        W40106   2.351  16.409   2.946  0.4264  0.2725 -0.0248
21253W        W40107   2.902   7.329  12.314  0.0091  0.0918 -0.2505
21254W        W40108   8.472  13.920   0.007 -0.0853  0.0048  0.1028
21255W        W40109   7.431   4.689   0.954  0.1235 -0.1579 -0.2101
21256W        W40110  17.651   6.331  12.480  0.0457  0.0894  0.0968
21257W        W40111  10.057  10.983   2.075 -0.1057 -0.0390  0.0135
21258W        W40112  13.033   7.935   3.538 -0.1643  0.0065 -0.0472
21259W        W40113   8.715   5.410  14.804  0.0912  0.0678  0.2239
21260W        W40114   5.256  15.745   0.913 -0.1975  0.2039 -0.0538
21261W        W40115  13.435  10.829  13.915 -0.0235  0.1046 -0.4437
21262W        W40116   3.759  11.788  13.478  0.0684 -0.1169  0.1403
21263W        W40117  12.172  11.342  14.956  0.0701 -0.0330 -0.0484
21264W        W40118   4.051  11.395  13.704  0.2508 -0.0144  0.0676
21265W        W40119  12.043  17.827   4.943 -0.1088  0.0545 -0.2073
21266W        W40120  12.560  10.315   3.869 -0.1480 -0.0164 -0.2688
21267W        W40121  15.378   2.629   1.734  0.5351 -0.1430 -0.3189
21268W        W40122   0.628   4.411  11.501 -0.1488  0.3909  0.0890
21269W        W40123   3.420  16.182   2.193  0.0275 -0.1204 -0.2141
21270W        W40124  11.225   4.734   4.467  0.2534  0.1003 -0.0223
21271W        W40125   0.093   8.607  14.564  0.1859 -0.0745  0.1693
21272W        W40126   0.263  17.362  13.479 -0.1064 -0.0323 -0.0592
21273W        W40127   6.708  17.282  14.985 -0.0962 -0.2201 -0.1685
21274W        W40128  16.121   1.721   2.837  0.4385  0.1105 -0.0179
21275W        W40129  11.939  15.529   1.978  0.1875 -0.1049  0.1493
21276W        W40130   5.815  16.796   3.112  0.2030 -0.2000  0.0746
21277W        W40131   1.088  11.211   1.177 -0.1842 -0.3090 -0.1797
21278W        W40132   2.691  18.797  11.243  0.0066 -0.0522 -0.0211
21279W        W40133   6.710  11.687  12.308  0.2191  0.1752 -0.1632
21280W        W40134  18.559   9.780   4.816 -0.0925 -0.2812 -0.1156
21281W        W40135  15.900  15.663  14.088 -0.2367 -0.4176  0.0843
21282W        W40136  15.128  14.657  14.530 -0.2563  0.0836 -0.0417
21283W        W40137  11.024  11.355  12.082  0.1392  0.2506 -0.2824
21284W        W40138   8.085  15.597   3.964  0.2211  0.0697 -0.3672
21285W        W40139   1.140  14.798  12.573  0.2898  0.1562  0.0405
21286W        W40140   4.564   6.742  11.280  0.0587 -0.0803 -0.0761
21287W        W40141  16.144   7.025  14.652 -0.1562 -0.2995  0.0208
21288W        W40142  18.714  14.609   0.074 -0.1572  0.1796  0.0305
21289W        W40143   0.274   8.033   4.116 -0.2552 -0.0531 -0.1200
21290W        W40144  16.114  11.530  12.971 -0.0310 -0.1121 -0.2916
21291W        W40145   5.117   3.805   3.223  0.0142  0.4151  0.0545
21292W        W40146  16.181   6.651   3.465 -0.0267  0.1537 -0.1208
21293W        W40147  16.845   0.786  10.643 -0.0329 -0.0720  0.0064
21294W        W40148   9.546  10.814  13.032 -0.1614 -0.0799 -0.0406
21295W        W40149  14.187   4.133  13.317  0.1086  0.2610  0.2065
21296W        W40150  12.540   2.221  12.891  0.1099 -0.0565 -0.0289
21297W        W40151   5.065   3.222   4.067  0.0359 -0.0838 -0.2011
21298W        W40152   0.160  11.838  11.546 -0.0089 -0.0638 -0.0111
21299W        W40153   8.839   4.297  11.434  0.2002 -0.0683 -0.0422
21300W        W40154   2.317   8.438   1.913 -0.0005 -0.1989  0.0161
21301W        W40155   9.679   8.070   1.621 -0.0052 -0.0512  0.0975
21302W        W40156  15.092  10.036  12.299 -0.0564  0.1672 -0.0902
21303W        W40157   7.252   5.310   1.910  0.3465 -0.4114  0.0956
21304W        W40158   6.730  18.779   3.476  0.1280  0.1884  0.1101
21305W        W40159   5.005  18.792   1.458 -0.0911 -0.2431  0.0924
21306W        W40160   7.990  16.694  13.605  0.1629  0.1172 -0.1263
21307W        W40161  13.827  16.495  14.389 -0.0585  0.0360  0.0936
21308W        W40162   7.891   2.416  11.349  0.0117 -0.0076 -0.0016
21309W        W40163   3.354  13.181  10.223 -0.0542  0.3008 -0.0156
21310W        W40164   5.951   6.184  12.062  0.0686  0.0150 -0.0161
21311W        W40165   7.750  11.725  10.920 -0.2682 -0.2672  0.1403
21312W        W40166  10.841   5.118  13.192 -0.0277  0.1467 -0.1621
21313W        W40167   1.446   3.624   2.724  0.1728  0.1104  0.3115
21314W        W40168   6.422  16.345   1.009  0.0716 -0.3050 -0.0523
21315W        W40169   2.359   5.873  10.763 -0.0849  0.3357 -0.0492
21316W        W40170  11.557  12.262  14.921  0.4268 -0.0071 -0.1412
21317W        W40171   0.602   5.958   5.344 -0.3495 -0.0831 -0.1389
21318W        W40172  10.003  12.607   1.834 -0.0319 -0.0248  0.0769
21319W        W40173   9.143  18.811   2.097  0.1577  0.1086  0.1279
21320W        W40174   0.370  17.611  14.839  0.3120 -0.0457 -0.0949
21321W        W40175  15.439  14.569   2.483  0.2794 -0.2142  0.1864
21322W        W40176   8.212   8.077  13.121  0.0530  0.0774  0.1338
21323W        W40177  17.244   3.445   2.282  0.2207 -0.0289  0.2233
21324W        W40178   0.935   8.153  10.748 -0.0678  0.0524 -0.4970
21325W        W40179   9.239   7.347   1.222  0.1521  0.2773 -0.1939
21326W        W40180  15.744   4.052  14.490 -0.0001  0.2962 -0.0891
21327W        W40181  10.071   4.057  14.148  0.0755 -0.1252  0.1277
21328W        W40182  12.925  15.771   5.391 -0.3035 -0.2851  0.2201
21329W        W40183   5.104  16.522  14.213 -0.0622 -0.3654  0.0820
21330W        W40184   6.685  12.808   3.441  0.1235 -0.1881 -0.0494
21331W        W40185  12.618   4.371  13.133 -0.0949  0.1775  0.0408
21332W        W40186   9.990   4.754   3.353 -0.2408 -0.0108  0.0235
21333W        W40187  17.233  17.717   3.166  0.0313 -0.0338 -0.0695
21334W        W40188  11.131   7.006  13.732  0.0453  0.1022 -0.0510
21335W        W40189   3.044  10.141  11.534 -0.3497  0.0283  0.1500
21336W        W40190   4.331  18.836  14.547 -0.3424  0.1887 -0.1435
21337W        W40191   4.453  14.953   1.259 -0.1677 -0.3251  0.0341
21338W        W40192  13.081  10.738  12.944  0.0385  0.1704  0.2620
21339W        W40193   7.991  12.117   1.028  0.3951  0.0905 -0.2219
21340W        W40194   6.545  10.938  11.994 -0.2177 -0.2167 -0.1303
21341W        W40195   1.452   7.012   3.179  0.2503 -0.3932 -0.1414
21342W        W40196  17.241  17.402   0.388  0.0618 -0.1937  0.4396
21343W        W40197  10.703   2.420   3.559 -0.3465  0.2763  0.2857
21344W        W40198   7.765  13.981   3.646  0.2821  0.0322  0.2587
21345W        W40199   8.994  15.324  10.477 -0.2511  0.0814  0.1794
21346W        W40200  13.754   0.120   0.871  0.0235  0.1677 -0.1276
21347W        W40201   9.638   0.780  12.196  0.3815 -0.1961  0.2218
21348W        W40202   6.181   6.943  11.657  0.2060 -0.0170  0.3027
21349W        W40203  12.349  16.047  12.208  0.3967  0.0641  0.0527
21350W        W40204  12.648  12.341  11.684  0.0825 -0.0091  0.0876
21351W        W40205  12.430   8.582   5.090 -0.1085  0.3926 -0.4125
21352W        W40206  12.249   4.441  12.167  0.0013  0.0131 -0.1437
21353W        W40207   4.392   9.079  14.632  0.1118  0.0386 -0.0794
21354W        W40208   8.992   5.857  13.005 -0.2318  0.2132 -0.2203
21355W        W40209  12.710   1.115  11.030  0.1261 -0.0690 -0.1961
21356W        W40210   1.035   7.781  14.851 -0.0804 -0.2859  0.0111
21357W        W40211   7.305  13.968  10.783 -0.1205  0.0831 -0.0823
21358W        W40212   8.544  13.136  11.638 -0.2037  0.0736 -0.1548
21359W        W40213  10.424   9.254  13.588 -0.0956  0.0992 -0.2554
21360W        W40214  13.825   2.281   0.489 -0.0712  0.0109 -0.1291
21361W        W40215  14.426   4.075  13.807  0.0896  0.3180  0.1117
21362W        W40216   2.340   5.671   3.674 -0.1191 -0.1645  0.0144
21363W        W40217  12.925  13.261   0.441 -0.0743 -0.0485 -0.0444
21364W        W40218  14.874  16.829   3.885  0.6243  0.2455 -0.3581
21365W        W40219   5.786  18.430   0.255 -0.2041  0.0738 -0.0067
21366W        W40220  12.337  10.694   9.826 -0.1283 -0.2116 -0.1663
21367W        W40221  12.065   3.432  12.193 -0.1361  0.0662  0.0542
21368W        W40222   9.173   6.555   2.638 -0.1562 -0.0854 -0.0601
21369W        W40223   4.665   1.326  14.241  0.3288 -0.1353  0.0679
21370W        W40224   1.877  15.343   0.925 -0.0284  0.1897 -0.0416
21371W        W40225  11.741  16.714   4.033 -0.2581 -0.0765  0.1553
21372W        W40226   6.065  11.021   1.863 -0.1482  0.3077 -0.1150
21373W        W40227  14.561  10.013  10.189  0.4047 -0.2353  0.1986
21374W        W40228   8.845  18.033   4.758  0.1857 -0.1048 -0.0330
21375W        W40229  14.254   6.116   0.251 -0.0062  0.0182 -0.0556
21376W        W40230   1.406   0.685   4.356 -0.0303 -0.0574  0.1762
21377W        W40231   2.636   7.494   0.796  0.1409  0.2749 -0.1787
21378W        W40232   7.963  16.151   2.255 -0.0760 -0.2049  0.1894
21379W        W40233  11.002   4.554  11.048 -0.1963 -0.0283  0.1834
21380W        W40234  15.941  10.216   3.101  0.1869  0.0411  0.0873
21381W        W40235   1.811  12.385   1.531 -0.1974  0.0248  0.1264
21382W        W40236  18.722  14.426   2.590  0.1869  0.0184 -0.1714
21383W        W40237   6.756   7.728   5.014 -0.1221 -0.0868 -0.2068
21384W        W40238  12.120  13.566   2.344 -0.0518 -0.0607  0.0149
21385W        W40239  18.055   1.444   1.129 -0.1614 -0.0800 -0.0693
21386W        W40240   9.895   8.076   2.573  0.0856 -0.1683  0.4273
21387W        W40241   1.739  17.205   1.550  0.0328  0.0424 -0.1351
21388W        W40242   1.051   5.541  12.016  0.1407 -0.0773  0.0961
21389W        W40243   0.544  12.460  12.676  0.2800  0.2014 -0.2887
21390W        W40244   0.842  12.913   0.567  0.0872  0.1108  0.2081
21391W        W40245   1.258  15.501   1.258  0.2402 -0.0380  0.1695
21392W        W40246   9.513   8.420  13.329  0.2939  0.1981 -0.1581
21393W        W40247   4.763   1.943  12.469 -0.3788  0.0926  0.1336
21394W        W40248   9.540   7.758   2.765 -0.0351  0.2924  0.3468
21395W        W40249  12.264   9.267  11.806  0.0918  0.0925 -0.0081
21396W        W40250  12.324  11.960  11.041 -0.3415  0.0423 -0.0153
21397W        W40251   8.696  18.060   3.197  0.0402  0.1581 -0.0667
21398W        W40252  14.347   7.182   4.886  0.0144  0.0344 -0.0004
21399W        W40253  13.683   6.240  13.216 -0.0929 -0.2554  0.2785
21400W        W40254   9.586   1.206  13.263  0.0751  0.2119 -0.1151
21401W        W40255   0.202   5.905   0.125 -0.0221 -0.1026  0.0496
21402W        W40256  13.294  15.119  12.048 -0.2345 -0.0855 -0.2050
21403W        W40257   1.903  14.720  13.205  0.0697 -0.1152 -0.0194
21404W        W40258  17.415   3.906   2.281  0.0120  0.1007  0.0235
21405W        W40259   6.064  13.397   1.800  0.2453  0.0576  0.0993
21406W        W40260  17.473   8.619   4.627 -0.1529  0.4093 -0.1399
21407W        W40261   8.567  12.130   0.765  0.1059 -0.1020 -0.0528
21408W        W40262   8.175  12.962  13.985 -0.2376  0.1183  0.0474
21409W        W40263  12.823  12.842  14.414  0.1051 -0.1869 -0.0250
21410W        W40264  16.774   2.050   2.357  0.1433  0.0555 -0.1336
21411W        W40265   1.806   5.417  13.994  0.1601 -0.1892 -0.0931
21412W        W40266  11.591  14.038  11.857  0.0824 -0.0718 -0.3394
21413W        W40267   9.139  15.580  11.929 -0.2252 -0.1875 -0.1666
21414W        W40268  17.191   5.255   0.565  0.0309 -0.1294 -0.0286
21415W        W40269  18.688  15.296   1.468  0.0806 -0.2782  0.1111
21416W        W40270   7.620  17.408   4.428 -0.3519 -0.1907 -0.1279
21417W        W40271   5.253  13.157   2.298  0.0131  0.1554 -0.2726
21418W        W40272   1.881   9.993   1.007  0.3637 -0.3367  0.1552
21419W        W40273  11.423   2.628  12.478 -0.0639  0.0204  0.2740
21420W        W40274   5.816   0.505  13.309  0.1581 -0.0922 -0.0236
21421W        W40275   9.700   1.743  14.050 -0.0080  0.0366  0.1379
21422W        W40276   8.664  14.947   0.532  0.1308  0.0830  0.0147
21423W        W40277  13.292  13.588  14.365  0.2683 -0.2598 -0.1452
21424W        W40278  13.416  11.384   3.112 -0.1473  0.3000  0.0745
21425W        W40279  17.605  17.455   0.770 -0.1996 -0.1794  0.1600
21426W        W40280  18.448   6.257   0.865 -0.3437 -0.1101 -0.2722
21427W        W40281   7.082   2.059   1.754 -0.1024 -0.0784 -0.0313
21428W        W40282  16.293   2.793   1.920  0.1373 -0.0536  0.0072
21429W        W40283  15.072   8.124   0.061  0.0965  0.1022 -0.0080
21430W        W40284  18.226  18.252  11.108 -0.4305 -0.0337 -0.1951
21431W        W40285   7.833   7.059   2.908 -0.2611 -0.3483 -0.3109
21432W        W40286  12.808   9.420   3.733  0.0472  0.0003  0.3348
21433W        W40287   1.094  14.835   0.592  0.1884 -0.1603 -0.0477
21434W        W40288   6.257  12.118  14.268  0.1181  0.3423  0.2206
21435W        W40289   2.960   8.014   0.067 -0.2588 -0.2015 -0.1011
21436W        W40290   1.336  18.287   3.998 -0.2276 -0.3185  0.0056
21437W        W40291   1.575  12.166  12.642 -0.1861  0.3199  0.6157
21438W        W40292   8.763  14.560  12.116  0.1416  0.0249  0.1728
21439W        W40293   9.224   2.715   4.415 -0.1164  0.0792 -0.1917
21440W        W40294  13.548   5.442   1.983  0.2853  0.0534 -0.0907
21441W        W40295   1.859  11.611  11.143 -0.1761 -0.0612  0.0941
21442W        W40296  11.303  16.895  11.726  0.2219 -0.2199 -0.2961
21443W        W40297  13.430   8.215  12.157  0.1735  0.1439 -0.1145
21444W        W40298   1.852  16.962   0.593 -0.0960 -0.0853 -0.2725
21445W        W40299  18.187   1.186  11.712 -0.1127 -0.1121 -0.3076
21446W        W40300   9.480  17.557   2.909 -0.0293  0.2696  0.0815
21447W        W40301  18.670   6.279  12.278  0.0683 -0.0077  0.0773
21448W        W40302   3.134  10.741   3.913 -0.3791 -0.0752  0.3500
21449W        W40303  10.874   1.464  11.343 -0.2858  0.1004  0.2213
21450W        W40304  13.863  15.432   3.067  0.1806 -0.2911  0.1325
21451W        W40305  17.487   1.323  10.574  0.0302 -0.0393  0.1554
21452W        W40306  15.689   5.309   2.583  0.0242  0.1571  0.1837
21453W        W40307   5.004   8.348   3.666  0.1346  0.3519 -0.3221
21454W        W40308  13.992  14.904   0.910  0.0331 -0.1959 -0.1045
21455W        W40309   0.510   6.255  12.528  0.0783  0.0057  0.0523
21456W        W40310   7.478  10.318  11.129 -0.2988 -0.3298  0.4648
21457W        W40311  10.383   7.345   2.245  0.1182 -0.4544  0.0749
21458W        W40312   4.087   6.665   4.325  0.0738 -0.0997 -0.3097
21459W        W40313   8.437  14.116  11.728  0.3395  0.1181 -0.1018
21460W        W40314   1.035   3.223   0.637  0.1429  0.0566  0.1410
21461W        W40315  15.870   4.583   0.903  0.1912 -0.1237  0.2415
21462W        W40316  16.896   2.446  13.165 -0.0521 -0.2726  0.1559
21463W        W40317   5.956   9.138   4.089  0.0626 -0.0904 -0.0464
21464W        W40318   6.747   3.491  12.036 -0.2340  0.0309  0.1014
21465W        W40319  18.440   4.398  12.027 -0.1756 -0.0840 -0.1402
21466W        W40320   9.584  11.823  14.897 -0.0930 -0.0954 -0.0606
21467W        W40321  17.269  13.978  11.441 -0.1857 -0.3231 -0.1909
21468W        W40322  17.923  16.700   3.570 -0.2022 -0.2431  0.0361
21469W        W40323  12.114   2.803  12.115  0.1965 -0.3290  0.0360
21470W        W40324   8.670  14.094  12.305 -0.2406  0.1678  0.1102
21471W        W40325   4.698  13.033  13.310  0.0486 -0.2629 -0.0509
21472W        W40326   5.813   6.885  13.698  0.3766  0.4259  0.3342
21473W        W40327   5.565   5.043  11.770  0.2415 -0.0680 -0.1389
21474W        W40328  11.234  17.600   1.887  0.0576 -0.0304  0.1211
21475W        W40329  10.285  13.934   3.176 -0.5920 -0.0808  0.0078
21476W        W40330  12.116   0.437   2.775  0.1281 -0.0719  0.0845
21477W        W40331  12.591   8.599  11.385 -0.1961  0.1003 -0.1430
21478W        W40332   5.104   0.283  11.669  0.1502  0.3100 -0.1423
21479W        W40333   3.046  17.575  12.688 -0.2487  0.0729 -0.2111
21480W        W40334  13.911  16.953   2.576 -0.2781  0.3043 -0.2252
21481W        W40335  11.469   5.931   2.247 -0.1252 -0.3488  0.0451
21482W        W40336  17.868  17.287   4.738 -0.1782 -0.0526 -0.0102
21483W        W40337  14.407  10.405   3.441 -0.2836  0.1427 -0.1193
21484W        W40338  13.919  18.033   3.510 -0.2221  0.2233 -0.1057
21485W        W40339  18.337   7.119  12.885 -0.0166 -0.0933  0.1520
21486W        W40340   8.432   7.788   2.367 -0.0404  0.1969 -0.3011
21487W        W40341  12.995  11.143   3.393  0.0404  0.1718  0.1495
21488W        W40342   9.977  16.256  15.088  0.2900  0.3793  0.0768
21489W        W40343  13.554  14.554  14.128  0.2717 -0.4469  0.0110
21490W        W40344  17.020   9.449  10.940  0.0811  0.0334 -0.1266
21491W        W40345  13.619   6.239  14.382 -0.1452 -0.0053 -0.0919
21492W        W40346   1.905   8.042  13.101  0.2726  0.0724 -0.2386
21493W        W40347   6.759  14.520  12.732  0.0849  0.1960  0.1595
21494W        W40348   5.145   1.070   2.782  0.0204  0.0412  0.4844
21495W        W40349   7.353   3.931   1.704  0.3658 -0.2498 -0.1272
21496W        W40350   6.928   2.705   4.934  0.0996  0.2016 -0.2948
21497W        W40351   2.429   6.066   4.367  0.0268  0.0537 -0.0433
21498W        W40352   3.819   8.371   0.596  0.3107 -0.0532 -0.0553
21499W        W40353  12.254  14.906  10.698 -0.2652  0.1078 -0.1134
21500W        W40354  11.689   9.888  13.082 -0.3560  0.0697 -0.2315
21501W        W40355  15.223  11.312   0.156  0.0726 -0.1641 -0.1321
21502W        W40356  15.721   8.744  12.141 -0.1098  0.0592  0.0156
21503W        W40357   0.919   9.781   1.757  0.0771  0.0880 -0.1725
21504W        W40358  10.243   3.519   0.381  0.0525  0.0917 -0.0157
21505W        W40359   9.624  10.825  12.527  0.2262  0.2566  0.0275
21506W        W40360  14.416   6.744   4.091  0.2521  0.4067  0.0552
21507W        W40361  14.434  12.231   2.941 -0.2470  0.2783 -0.3567
21508W        W40362  13.505   1.351   1.387 -0.1167 -0.0519 -0.0729
21509W        W40363   6.476   9.945   3.239 -0.0659 -0.3436  0.0224
21510W        W40364   5.814   6.752  12.519 -0.0202 -0.1364 -0.0867
21511W        W40365  14.027   1.927  14.675 -0.0440  0.1833  0.1101
21512W        W40366  18.390  10.716   1.367  0.3167  0.0266 -0.0615
21513W        W40367   3.132   4.476   2.561 -0.0792 -0.1156 -0.0660
21514W        W40368   3.656   5.993  13.714  0.1418 -0.2863 -0.0761
21515W        W40369   9.418   0.577   1.508 -0.2313 -0.0293  0.0555
21516W        W40370  13.820  15.335  11.824  0.3944  0.1601 -0.0812
21517W        W40371  12.617  10.368   1.394 -0.3103  0.0040 -0.2969
21518W        W40372  10.627  18.752   1.078  0.2108  0.1218 -0.0781
21519W        W40373   7.513  17.840   2.209 -0.0155 -0.0330  0.2388
21520W        W40374   8.317   8.271  13.661  0.0274 -0.4342 -0.0328
21521W        W40375  17.785   8.468   0.585 -0.0343 -0.0367 -0.0880
21522W        W40376  12.100  10.513   1.677  0.1513 -0.3350 -0.2321
21523W        W40377   1.194  11.817  14.462  0.1278  0.1805  0.2703
21524W        W40378  17.950  13.302   4.312 -0.2481 -0.0896  0.2566
21525W        W40379  16.453   7.574  13.062 -0.2886 -0.1509 -0.3496
21526W        W40380  10.792  16.303   1.246  0.0962  0.0713 -0.1838
21527W        W40381   6.716   0.337   1.289  0.0888 -0.0129 -0.1827
21528W        W40382   5.298   3.812  12.376 -0.6077 -0.2205  0.0168
21529W        W40383  15.840   5.705   4.308 -0.2732 -0.3516 -0.0710
21530W        W40384   6.812   4.740  12.543 -0.2340  0.1480  0.0200
21531W        W40385   1.303   5.668   1.965 -0.1049  0.1869 -0.0688
21532W        W40386   0.430   3.457  11.041 -0.0946  0.2263  0.0893
21533W        W40387   8.267  12.044  14.424  0.0242 -0.2820  0.0666
21534W        W40388  15.401  12.629  11.645 -0.0501 -0.0675 -0.0257
21535W        W40389   9.537   8.300  14.781  0.0014 -0.1506  0.0436
21536W        W40390   2.551   8.534   3.579 -0.0574  0.2047 -0.1263
21537W        W40391  11.299   1.759   0.486  0.1717 -0.0205  0.0233
21538W        W40392  15.696   1.821  13.799  0.0298 -0.3277 -0.1655
21539W        W40393   9.052  17.617  13.515  0.1786 -0.1144 -0.0699
21540W        W40394   5.352  12.937   0.095 -0.0792 -0.0879 -0.1103
21541W        W40395  11.515   8.895   1.228  0.0685  0.0595 -0.2064
21542W        W40396  16.696   7.475   3.937 -0.2319 -0.0929  0.0433
21543W        W40397  14.170  16.570   0.445  0.3909 -0.0431  0.0092
21544W        W40398   4.316  12.165  14.731 -0.4212  0.0770  0.1329
21545W        W40399   7.141   7.761   0.669 -0.2244 -0.0110  0.1743
21546W        W40400  12.910   8.793   3.129 -0.2683 -0.0547 -0.0029
21547W        W40401   7.026  12.382  11.213  0.2307 -0.3402 -0.1014
21548W        W40402   1.708  10.397   2.992 -0.3881  0.1382 -0.2179
21549W        W40403   7.581  13.752  13.189  0.0085  0.3315 -0.0583
21550W        W40404   1.120  10.031  10.971 -0.0574 -0.0251  0.1085
21551W        W40405  18.182   2.825  13.511 -0.0635 -0.3637 -0.2472
21552W        W40406  12.018   5.099   3.688 -0.2105  0.2567  0.0814
21553W        W40407   2.039  14.905  14.588  0.1374 -0.1155 -0.0370
21554W        W40408   5.287  10.677  12.104 -0.0144 -0.0872  0.3884
21555W        W40409  18.263   5.025   2.374  0.1493 -0.4546  0.0354
21556W        W40410  10.139  17.998   1.068 -0.0420 -0.0880 -0.1152
21557W        W40411  18.407   6.474   0.414  0.2680 -0.2478 -0.0950
21558W        W40412   9.899  13.805  12.887  0.1233  0.0559  0.1459
21559W        W40413   2.681   7.615   0.294  0.2437 -0.0356 -0.1712
21560W        W40414  14.569   9.627  13.145  0.2209 -0.1029  0.3296
21561W        W40415  10.722   6.687   1.429 -0.2065  0.1198  0.3508
21562W        W40416  11.271   3.230   0.495 -0.0780  0.3460 -0.1232
21563W        W40417   6.886   9.957   2.197 -0.1758  0.0371 -0.2702
21564W        W40418  13.134  10.185  10.110 -0.2221 -0.3385  0.1276
21565W        W40419   0.776  18.193  13.228  0.1637  0.1045  0.0696
21566W        W40420   1.388   6.784  13.657  0.0040 -0.0942 -0.1640
21567W        W40421   1.086  12.057  12.738 -0.2777  0.2502 -0.0180
21568W        W40422  12.465   5.958  10.935  0.0754  0.4815 -0.0033
21569W        W40423   5.472  14.888   0.401  0.1038  0.0841 -0.0226
21570W        W40424   9.432  11.280  12.782 -0.3920  0.2701  0.2731
21571W        W40425   5.891  18.240   5.086 -0.2412  0.0998  0.0679
21572W        W40426   1.682   8.718   1.882 -0.5677 -0.0401  0.2567
21573W        W40427   6.052   1.953   2.567 -0.3850  0.1525 -0.3653
21574W        W40428   9.651   9.398   3.347 -0.2415 -0.1188 -0.2250
21575W        W40429  10.560  14.209  14.218 -0.1553 -0.1851 -0.1295
21576W        W40430  10.429  10.114   1.564 -0.0781 -0.1386 -0.1897
21577W        W40431  12.669  13.081   2.585 -0.0358  0.2958 -0.1692
21578W        W40432   4.268   0.029  12.271 -0.1458 -0.1837 -0.1201
21579W        W40433  14.042   6.367  13.538 -0.0048 -0.0920  0.1646
21580W        W40434  15.314  14.063   2.571 -0.1747 -0.4640  0.1883
21581W        W40435  11.146   5.197   2.098  0.2881  0.0402  0.1348
21582W        W40436  16.595   6.348  11.375  0.3174  0.1924 -0.2150
21583W        W40437  16.628   9.335  11.350 -0.1585 -0.0500 -0.0545
21584W        W40438   4.238  16.637  10.848 -0.1638 -0.2583 -0.1029
21585W        W40439   9.540   9.261  12.620  0.1244 -0.0153 -0.1821
21586W        W40440  12.223   7.696   9.649  0.0589 -0.0950 -0.0311
21587W        W40441  15.122  11.789  14.963 -0.1347  0.0508 -0.0434
21588W        W40442   2.635  11.292  10.486  0.0451  0.1531  0.1198
21589W        W40443   3.025   2.322  13.733  0.3009 -0.0120  0.1903
21590W        W40444   4.971   9.652   0.281 -0.1361 -0.3171 -0.3346
21591W        W40445   9.990   9.533  12.687 -0.1414  0.0127  0.0681
21592W        W40446  10.552  17.528  14.727 -0.1622  0.0628 -0.0076
21593W        W40447  18.586   3.192   2.737  0.0025  0.1405  0.0435
21594W        W40448   4.851  18.587   0.532 -0.1429 -0.2133 -0.0063
21595W        W40449  17.902   4.255   9.993 -0.2785  0.0076  0.0403
21596W        W40450   6.242   0.391  14.648 -0.2398  0.0598  0.2974
21597W        W40451  10.409   2.284  13.754 -0.2732  0.0959 -0.2647
21598W        W40452   4.456  13.534   1.150  0.1931 -0.1200  0.0813
21599W        W40453  17.813   4.312   2.354 -0.1275  0.1115 -0.4068
21600W        W40454  12.261   8.668   0.544 -0.1230  0.2462 -0.1618
21601W        W40455  18.490   4.845  10.976 -0.1563 -0.3250  0.0384
21602W        W40456   4.740   5.243  13.466 -0.0898 -0.0747 -0.1012
21603W        W40457  16.870  13.217  14.571 -0.0654  0.0443  0.1505
21604W        W40458  14.401  14.031   3.685 -0.0896 -0.0155  0.1106
21605W        W40459   5.079   6.354   0.424 -0.1033 -0.1001 -0.1335
21606W        W40460   5.841  16.149  14.864  0.3005 -0.0695  0.3729
21607W        W40461   9.972   1.989   4.612 -0.0316  0.2654 -0.0291
21608W        W40462   8.767  14.428   0.789 -0.3577 -0.0230  0.0734
21609W        W40463   0.513   1.034  13.786 -0.1192 -0.0375  0.1498
21610W        W40464   6.320  11.510   3.829  0.1940  0.1360 -0.2132
21611W        W40465   7.489   6.854  11.457  0.0136 -0.2711 -0.2942
21612W        W40466  18.455   6.946  14.527  0.0045 -0.2012  0.1927
21613W        W40467  13.525  14.945  11.675 -0.1750  0.0872  0.0026
21614W        W40468   8.091   5.779  12.079  0.0850 -0.0186  0.1503
21615W        W40469  15.184   4.743  14.999  0.4135  0.1892  0.1072
21616W        W40470  15.138  15.990  15.065 -0.2938 -0.1645 -0.2040
21617W        W40471   2.259  17.814  14.900 -0.0122  0.1363  0.1635
21618W        W40472  15.728  14.712  13.939 -0.1290 -0.0278  0.2091
21619W        W40473  15.759  11.117   0.195  0.1917  0.0451  0.2310
21620W        W40474  11.920  10.543   1.218  0.0578 -0.1079  0.0659
21621W        W40475   8.790   6.185   0.585 -0.0860  0.0856  0.0655
21622W        W40476  10.906  17.923   2.091 -0.0752  0.0510 -0.0892
21623W        W40477   2.548   6.802  11.155  0.2790  0.0250 -0.0280
21624W        W40478   2.591   2.009   3.273 -0.3752  0.0851 -0.2155
21625W        W40479  11.004  14.198  13.554 -0.2674  0.0581  0.1071
21626W        W40480   0.088  18.653  14.756 -0.1435 -0.3249 -0.1059
21627W        W40481   1.039   7.211   2.274 -0.0155 -0.0144  0.2517
21628W        W40482  10.197  10.424   4.383 -0.1969 -0.4582 -0.3371
21629W        W40483  17.359   7.375  10.604 -0.2391  0.1595  0.0862
21630W        W40484  12.541  17.682   0.710 -0.0663  0.0607  0.1765
21631W        W40485   1.281  10.346  14.356  0.0647  0.3667 -0.1598
21632W        W40486   6.967  15.153  11.350  0.1084  0.2601  0.2205
21633W        W40487  13.537   0.619  11.066  0.0373  0.2981 -0.0304
21634W        W40488  11.628   2.663   3.330 -0.1512  0.2636  0.0305
21635W        W40489   7.418   2.437   4.147 -0.1370 -0.2562  0.0474
21636W        W40490   3.091  17.263  14.823 -0.2792  0.1418  0.0812
21637W        W40491  18.411   7.314  13.551 -0.1411  0.0484  0.0378
21638W        W40492  13.359  16.537   3.800 -0.2968 -0.0516 -0.1616
21639W        W40493  14.457   6.955  12.327 -0.0277 -0.1773  0.1879
21640W        W40494   9.081   2.027   4.746  0.0355 -0.1625  0.2415
21641W        W40495   1.614   4.019  15.094  0.0381 -0.2174  0.0745
21642W        W40496  13.902  17.048   1.716  0.0304 -0.3591  0.2470
21643W        W40497   8.373  15.285  11.124 -0.0538 -0.2540 -0.0391
21644W        W40498   1.886  11.364  11.634  0.0574 -0.1415  0.2453
21645W        W40499   8.404  14.967  14.620  0.0292  0.1194  0.3878
21646W        W40500  17.505   5.423  10.130  0.0313 -0.3600 -0.0355
21647W        W40501  11.022   0.137   2.945 -0.0953 -0.3397 -0.0183
21648W        W40502   7.185   1.741  12.132 -0.1770  0.0173 -0.0215
21649W        W40503  17.198   8.661  11.484  0.0695  0.1088 -0.1115
21650W        W40504   7.761   1.036   1.907  0.0492  0.1143 -0.0562
21651W        W40505   5.694  15.998  14.109  0.0599 -0.2803  0.1823
21652W        W40506   3.588   1.292  13.103  0.2774  0.1079  0.0402
21653W        W40507  11.395  11.756  12.163  0.5457 -0.0344 -0.0509
21654W        W40508  18.174   6.768   1.988  0.0607 -0.0810 -0.0884
21655W        W40509   5.383  15.599   3.218 -0.1285 -0.0726 -0.1529
21656W        W40510  13.415  14.562   1.265 -0.0311 -0.2360  0.0566
21657W        W40511   1.010   7.559   2.662  0.0769  0.1919  0.1567
21658W        W40512  18.418  15.581  12.441 -0.0315 -0.2939  0.0616
21659W        W40513  11.065  13.390  14.169  0.0392 -0.0194 -0.1054
21660W        W40514   7.319  17.097  14.633 -0.1287 -0.0546 -0.6849
21661W        W40515  12.879  10.326   3.389 -0.3244 -0.2421  0.3395
21662W        W40516   0.894  16.970   0.759 -0.0346  0.2329  0.1999
21663W        W40517  14.249  15.714  14.834 -0.1516 -0.1099  0.2208
21664W        W40518  10.445   3.627   4.251  0.1009 -0.0704 -0.0394
21665W        W40519  12.114  17.411   4.168  0.1328  0.2017  0.3937
21666W        W40520   3.864   0.323   2.254  0.2235 -0.0188 -0.0621
21667W        W40521   4.583  17.943   5.309 -0.0643  0.2804 -0.3236
21668W        W40522   6.764   3.009  14.311  0.1190 -0.0671 -0.1292
21669W        W40523  16.241  17.002   1.609 -0.1744  0.0225  0.1996
21670W        W40524  10.013  14.205  12.095  0.0674 -0.0243  0.1597
21671W        W40525   3.908  14.540  13.766 -0.2212 -0.0929  0.1009
21672W        W40526   8.634  16.860  12.400  0.1151 -0.1480  0.0572
21673W        W40527  12.438  10.654   4.329  0.1010  0.0698 -0.0948
21674W        W40528  15.592  15.597  11.144 -0.0347  0.0766 -0.0690
21675W        W40529   4.800   3.464  13.113 -0.2815  0.1233 -0.0409
21676W        W40530  10.831  14.313  10.674  0.1546 -0.2821 -0.1107
21677W        W40531   3.101   8.747  12.768  0.1410  0.4175  0.1065
21678W        W40532  17.466   4.251  11.731  0.3544  0.0396 -0.1100
21679W        W40533   5.186  16.050   1.706  0.0825 -0.1100  0.1452
21680W        W40534   6.655   9.474   2.313  0.1887  0.0951  0.6652
21681W        W40535  16.265   8.375  11.189  0.0579  0.0958  0.0005
21682W        W40536   5.908  12.022   0.064 -0.1106  0.2155  0.1273
21683W        W40537   8.699   4.982   0.335 -0.2150 -0.0064  0.2701
21684W        W40538   0.106   5.252   4.278  0.0435  0.4560 -0.1336
21685W        W40539   3.715   1.543  14.245  0.0315 -0.1175  0.1345
21686W        W40540  10.234  18.287   4.404 -0.0490  0.0013  0.2277
21687W        W40541   2.362   3.799  11.285 -0.0747 -0.2898 -0.1420
21688W        W40542  11.105  11.332   0.822 -0.0501 -0.0214  0.1561
21689W        W40543   6.022  11.366  11.424  0.0691  0.1170  0.0152
21690W        W40544  18.851   3.339   2.290 -0.0028  0.0180  0.0556
21691W        W40545   1.719  17.116  14.412  0.0499 -0.0888 -0.0784
21692W        W40546  15.166   0.921  12.605 -0.1199 -0.0871 -0.1516
21693W        W40547  10.029  10.117   2.991  0.0589 -0.0250  0.2295
21694W        W40548   2.232  16.549  13.699 -0.1767  0.2406  0.1648
21695W        W40549   7.461  16.876   1.886  0.3426 -0.1264  0.2221
21696W        W40550  18.499   5.994  14.086  0.2388 -0.1075 -0.0014
21697W        W40551   4.135   3.798   0.476 -0.1268 -0.0150  0.2660
21698W        W40552   0.199   3.500  14.754 -0.0778 -0.0743 -0.3069
21699W        W40553  17.770   1.475  10.922 -0.0445 -0.1770  0.0279
21700W        W40554   6.006   1.390  13.605 -0.0428  0.3159  0.2391
21701W        W40555   3.865   5.054   2.507 -0.0281 -0.2093 -0.0963
21702W        W40556   5.212   6.860   1.326  0.0983  0.0851  0.2520
21703W        W40557   6.951  17.039  13.953  0.1032 -0.3334  0.0781
21704W        W40558   6.142  15.709  11.124 -0.2656 -0.0638 -0.1106
21705W        W40559   2.756  13.214  14.461  0.0263 -0.0082 -0.0668
21706W        W40560   2.662  12.174   1.699  0.3924 -0.1485 -0.1119
21707W        W40561  10.875  18.060   0.380  0.2105 -0.0094  0.1543
21708W        W40562   3.661  13.577   3.875 -0.2221  0.0060  0.1192
21709W        W40563   5.281  11.108   0.527  0.0458  0.1867  0.1864
21710W        W40564  15.967   4.921   4.633  0.2214  0.0231 -0.0364
21711W        W40565  13.748   8.349  14.806  0.1572 -0.2058 -0.0087
21712W        W40566  15.800  13.809  12.904  0.0159 -0.1568  0.3668
21713W        W40567   3.863   1.354   3.066  0.0523 -0.1740 -0.0643
21714W        W40568   0.108   7.628  14.884  0.2613  0.1666 -0.1798
21715W        W40569   8.442   4.539   2.619 -0.0335  0.2150  0.0318
21716W        W40570   2.087   6.772  14.330  0.0492 -0.0350 -0.2469
21717W        W40571   4.912  12.762  10.422  0.1085 -0.1771  0.0044
21718W        W40572  18.247  12.065  13.595  0.1005 -0.0491  0.0249
21719W        W40573   8.751   0.664  11.897  0.0854 -0.3569  0.0351
21720W        W40574  15.815  18.223  13.039  0.1822  0.0688  0.0212
21721W        W40575   5.201  13.302   1.433  0.0899  0.2436  0.0151
21722W        W40576  16.736   1.435   9.756 -0.3244 -0.1948  0.0081
21723W        W40577   0.074   7.766   2.719  0.2083 -0.1328 -0.1172
21724W        W40578   2.442  11.268   3.893 -0.0942 -0.2694 -0.0056
21725W        W40579   9.230   0.872   4.213 -0.0637 -0.0535 -0.3454
21726W        W40580   1.741   9.168   2.100  0.0190  0.2314 -0.1287
21727W        W40581   6.152   3.743   4.646 -0.0084  0.1916  0.0856
21728W        W40582   0.401  16.256   3.997  0.2378  0.1167  0.1478
21729W        W40583   4.477   1.263   4.405  0.2276 -0.3938  0.3462
21730W        W40584  12.900   5.864  14.971  0.0904  0.3948 -0.0088
21731W        W40585  16.095   8.135  10.708  0.0238 -0.0605 -0.1471
21732W        W40586  13.363   7.316   2.286 -0.1198 -0.1319 -0.1106
21733W        W40587   9.013  13.552  14.657 -0.2305  0.0925 -0.4347
21734W        W40588   6.507   0.438  11.959  0.2710 -0.0710  0.1967
21735W        W40589   2.801   1.152  13.290 -0.0449 -0.0152  0.0516
21736W        W40590  17.155  14.575  12.708  0.2050 -0.0969 -0.1049
21737W        W40591   4.216   8.195   1.027 -0.0035  0.1193  0.1854
21738W        W40592   9.410   9.871   3.029 -0.0245  0.2869  0.1512
21739W        W40593  14.457   8.349   0.772 -0.0414 -0.0676 -0.1604
21740W        W40594   5.473  17.202   2.838 -0.4168 -0.0833 -0.0725
21741W        W40595   4.586  16.730  12.357  0.0362  0.1700 -0.0914
21742W        W40596   3.399  15.007  14.460 -0.0709  0.1169  0.0689
21743W        W40597   2.935  14.301   4.822  0.0766  0.0426 -0.3673
21744W        W40598  16.936  13.317   2.640  0.2134 -0.0314 -0.1098
21745W        W40599  11.671   6.589   2.415 -0.3070  0.2205  0.4299
21746W        W40600   8.115   6.070  12.509 -0.1556 -0.1845  0.1902
21747W        W40601  13.347  16.105   9.777 -0.0482  0.1066  0.0621
21748W        W40602  14.784  10.676   4.293 -0.2424  0.0916 -0.1953
21749W        W40603  11.549   1.909   5.617 -0.1191 -0.1077  0.0693
21750W        W40604   3.329   8.019   3.098  0.1532 -0.2630  0.4585
21751W        W40605  10.330  14.636   1.365  0.1865  0.1136  0.0858
21752W        W40606   3.607   6.129   3.678  0.2520  0.2222  0.0105
21753W        W40607  13.140  14.242   4.920  0.0487 -0.0499  0.1100
21754W        W40608   3.787   4.201   1.326  0.1117  0.0499  0.1956
21755W        W40609   5.472  13.230  11.166  0.0445 -0.0524 -0.2689
21756W        W40610   6.729   1.916   1.283 -0.1994  0.4021  0.1347
21757W        W40611   1.421   1.473   4.881 -0.2946  0.0281  0.0009
21758W        W40612  16.691   3.760  10.300 -0.0591 -0.1744 -0.0336
21759W        W40613   2.919  18.469   2.536 -0.1193 -0.0387 -0.0510
21760W        W40614  17.141   6.007  14.167 -0.4035  0.0871 -0.0291
21761W        W40615   3.985   4.274  12.615  0.2652  0.0790 -0.0487
21762W        W40616   0.876   6.106  14.126  0.0979 -0.2267  0.0090
21763W        W40617   6.439   8.773  13.210  0.3627  0.2265  0.0147
21764W        W40618   3.836   9.923  13.386 -0.0909  0.2214 -0.2860
21765W        W40619   3.715   6.306  11.348 -0.1150  0.0341  0.0946
21766W        W40620  12.704  12.539   2.565 -0.1161  0.3763 -0.1958
21767W        W40621  18.312  11.086  13.798  0.2064 -0.0652  0.1124
21768W        W40622   1.982   0.294  15.023  0.1431  0.2875  0.2610
21769W        W40623  11.749  11.328  12.780 -0.1214 -0.0511  0.0203
21770W        W40624   5.982   7.366  11.930  0.0084 -0.0769  0.1297
21771W        W40625  11.872  15.866  14.968 -0.1361  0.0165  0.3541
21772W        W40626   4.835  18.280   1.477  0.2013  0.1818  0.0232
21773W        W40627   9.517   8.161   0.802 -0.0152 -0.0574  0.0441
21774W        W40628   2.229   1.215  12.301  0.0024 -0.1106  0.2206
21775W        W40629  11.099  15.348   4.326  0.0702 -0.0517  0.0355
21776W        W40630  18.826  13.178  13.164 -0.0142  0.0241 -0.0190
21777W        W40631   8.497   2.724  11.905 -0.2905  0.0689  0.4812
21778W        W40632  16.268   5.590  11.644  0.0167  0.0732  0.2372
21779W        W40633  10.153   9.627   2.252  0.3155  0.1051 -0.0574
21780W        W40634   6.561   2.937   3.746 -0.1809  0.0633  0.0153
21781W        W40635   5.743  12.836  10.789 -0.4532 -0.2510  0.2790
21782W        W40636  13.059  17.467  14.913  0.0883  0.0643  0.0851
21783W        W40637   1.412  13.851  12.946 -0.0357  0.0197 -0.1817
21784W        W40638   1.893   1.249   1.380 -0.2744  0.0678 -0.0063
21785W        W40639   3.837  10.029  13.943 -0.1057 -0.1981  0.2053
21786W        W40640   9.629   2.530  13.513  0.0728 -0.0235 -0.0561
21787W        W40641   3.909  18.358  11.742 -0.0114 -0.3468 -0.1782
21788W        W40642  14.241   1.253  13.284  0.0747 -0.0670 -0.2499
21789W        W40643   8.215   8.632  14.546 -0.1322 -0.0974 -0.1804
21790W        W40644  16.356  16.815  12.894  0.1865 -0.2015 -0.3195
21791W        W40645  10.187  13.037  12.470 -0.0520  0.1296 -0.0976
21792W        W40646  17.970   9.150  11.141  0.0264  0.0651 -0.0751
21793W        W40647   1.233  14.265   4.252 -0.1201 -0.1041  0.3178
21794W        W40648  11.201  17.950   2.478  0.1071 -0.2396  0.2381
21795W        W40649  12.873   9.849   3.950 -0.1840 -0.0837  0.1498
21796W        W40650  17.408  15.460  10.185 -0.2229  0.1028 -0.0409
21797W        W40651  11.376   4.717  13.687 -0.1446 -0.0937  0.1646
21798W        W40652   0.050   5.322  11.036 -0.1717  0.2504  0.0459
21799W        W40653  17.710   3.475  13.589 -0.1861 -0.0990 -0.1655
21800W        W40654  10.799  18.586  13.588 -0.0269 -0.0796  0.3535
21801W        W40655  18.620   1.874   2.345  0.0702 -0.4106  0.5940
21802W        W40656   4.242  12.501  12.203  0.0752 -0.0796  0.3049
21803W        W40657  12.801   2.699  14.744  0.0171 -0.2433  0.1165
21804W        W40658   4.693   7.537  11.229 -0.0763 -0.0307  0.4157
21805W        W40659   6.047  14.586   4.456 -0.1323  0.0100 -0.0113
21806W        W40660   2.661   2.821   1.380  0.0658  0.1732 -0.3937
21807W        W40661  16.501  14.712   4.543  0.0448 -0.0271  0.2230
21808W        W40662  12.470   8.210  13.922 -0.1063  0.1754  0.3980
21809W        W40663  10.647  12.832  14.397  0.0677 -0.0783 -0.1816
21810W        W40664   8.234  16.697  13.173 -0.1523 -0.1304  0.0057
21811W        W40665   9.683  17.587   3.768 -0.1005 -0.1140  0.2233
21812W        W40666   7.290  14.390   0.619  0.3618 -0.0341  0.1369
21813W        W40667   6.252  16.754   4.373 -0.2406 -0.0324 -0.2098
21814W        W40668   3.716  12.158   2.833  0.3087  0.1270 -0.1000
21815W        W40669  12.237   8.926  10.720 -0.0126  0.0903  0.2285
21816W        W40670   9.886   1.098  13.931 -0.2210 -0.1054  0.0153
21817W        W40671   7.797  10.780  11.587 -0.0535  0.0459 -0.1870
21818W        W40672   2.601  18.733  13.376 -0.4523  0.3348  0.1940
21819W        W40673  10.342  17.043  13.926  0.2170 -0.1096  0.1284
21820W        W40674   8.389   5.182   0.651 -0.0199  0.2282  0.4200
21821W        W40675  15.796  15.446   1.062  0.3464  0.0171 -0.2759
21822W        W40676  13.275   8.147  12.630 -0.4440 -0.0031 -0.0983
21823W        W40677   3.278   0.366   0.885  0.0482 -0.3012 -0.0917
21824W        W40678   0.859  16.336  14.129 -0.0939 -0.1312 -0.0504
21825W        W40679  17.056   8.458   1.600  0.0301  0.2150  0.1205
21826W        W40680  13.447   8.016   2.749 -0.3739 -0.0337 -0.0749
21827W        W40681  12.522   1.262  14.882 -0.2702 -0.1080  0.0896
21828W        W40682   2.613   3.788   3.343 -0.0986 -0.4901 -0.0946
21829W        W40683   6.148   2.391   2.896 -0.0898  0.1610 -0.0740
21830W        W40684   5.364  16.769  10.493 -0.1954 -0.0507 -0.1928
21831W        W40685   2.846   4.446  14.101 -0.0111 -0.2123 -0.1343
21832W        W40686  10.294  10.131  13.366 -0.0224 -0.3526 -0.1361
21833W        W40687  16.981   7.857   0.879 -0.1620  0.0680  0.0580
21834W        W40688  15.701  17.425  14.491  0.1532 -0.0802 -0.3251
21835W        W40689  17.566   0.699  12.748 -0.0821 -0.1369 -0.0194
21836W        W40690  14.174   9.859   3.664  0.1788  0.2148  0.0413
21837W        W40691  12.430  13.572  11.151 -0.1519 -0.0814  0.0856
21838W        W40692   6.185   7.455  11.481 -0.2037 -0.1721 -0.2079
21839W        W40693   8.301   0.147  14.794 -0.2286 -0.1623  0.1050
21840W        W40694   6.359  10.175  11.074 -0.0453  0.1040 -0.0525
21841W        W40695  10.148  11.974   3.336  0.0882 -0.1756  0.1175
21842W        W40696   7.039  13.622  13.812 -0.1451 -0.1921  0.1255
21843W        W40697  13.511   2.924   3.303  0.3564  0.0472  0.0745
21844W        W40698   1.941  13.800  10.884 -0.1151 -0.1079 -0.1791
21845W        W40699  10.976   8.046  13.870 -0.0767 -0.1410 -0.1520
21846W        W40700  11.611   1.829   0.121 -0.0447 -0.1280 -0.1862
21847W        W40701  15.974   8.276   3.809  0.0288  0.1899  0.1632
21848W        W40702  17.160   2.181   1.135 -0.1493  0.0184  0.5676
21849W        W40703  13.589   8.718   3.806 -0.0301  0.0812 -0.1322
21850W        W40704  17.242  11.950   3.884  0.2532 -0.0616  0.1499
21851W        W40705  17.953  16.934   0.117 -0.0319  0.0271  0.0127
21852W        W40706   1.693  13.096  12.698  0.5614  0.2712  0.0807
21853W        W40707  17.638   1.778  14.061 -0.0936 -0.1260 -0.2524
21854W        W40708   8.490  10.406   0.743  0.2282 -0.2210  0.2081
21855W        W40709   6.411  12.124  10.661  0.1826 -0.2739 -0.2615
21856W        W40710  15.147   6.859  13.880  0.1280  0.2201  0.2385
21857W        W40711  18.760  10.048  12.390 -0.0874 -0.1962 -0.0721
21858W        W40712   1.591  18.470   0.154 -0.2241  0.0344  0.0609
21859W        W40713  15.430   4.429  11.242 -0.0479 -0.2101  0.1159
21860W        W40714   0.722  12.634   3.718  0.1982 -0.1892  0.0031
21861W        W40715   0.857   8.498   1.390  0.0549  0.0098 -0.1398
21862W        W40716  10.721   5.427   1.268 -0.1324 -0.0615 -0.1072
21863W        W40717   3.453   9.198   4.649  0.0181  0.1131  0.0583
21864W        W40718   9.228   0.082   1.522 -0.0010 -0.4515  0.0387
21865W        W40719  10.348  11.499   3.232 -0.1858  0.0917 -0.1036
21866W        W40720  15.899   1.641   3.850 -0.2803  0.1638  0.0827
21867W        W40721   5.534  13.628   0.225 -0.3013  0.0413 -0.0108
21868W        W40722  14.225  14.209  11.366  0.3855  0.1058 -0.2418
21869W        W40723  14.800   9.541  12.348  0.1478 -0.0376 -0.2319
21870W        W40724  16.391   6.388  12.905  0.1043  0.4164 -0.1604
21871W        W40725  14.164   9.117  12.849  0.1114 -0.1620  0.1445
21872W        W40726  11.530  11.480   4.808  0.0646  0.1567 -0.0576
21873W        W40727   3.981  14.857   9.766 -0.0862 -0.0863  0.1833
21874W        W40728  10.320   5.389  13.193 -0.0172 -0.0703 -0.1093
21875W        W40729   9.794   1.394  11.366  0.2804 -0.0254  0.1396
21876W        W40730  11.734   0.814  11.639 -0.0145  0.1735  0.0725
21877W        W40731  15.515  13.516   3.602  0.0132  0.1624  0.0288
21878W        W40732  15.296  16.427   0.162 -0.5599 -0.0649 -0.1975
21879W        W40733   7.888   7.043  13.561  0.2856  0.0329 -0.1161
21880W        W40734  18.187  16.432  11.506  0.1871  0.0289 -0.3958
21881W        W40735   0.196   1.984  11.979 -0.3260  0.0160 -0.0737
21882W        W40736  14.233   0.138   1.796 -0.1990 -0.1049  0.0277
21883W        W40737  10.219  14.594  13.973 -0.0393  0.1003 -0.1251
21884W        W40738   7.443   5.630   4.318 -0.2184 -0.0158 -0.1004
21885W        W40739   1.781   2.659  11.265 -0.4236  0.0447  0.2592
21886W        W40740   1.447  13.150  11.910  0.0395 -0.1750  0.0233
21887W        W40741  11.806   6.313   1.559 -0.0424 -0.1552 -0.1889
21888W        W40742   9.114  10.564   3.628  0.2843  0.0666 -0.1940
21889W        W40743  14.301  12.501  14.357 -0.1029 -0.2568  0.2990
21890W        W40744   2.497   9.342  11.147  0.0291  0.1278  0.1478
21891W        W40745   6.123  15.923   2.674  0.0109 -0.1794 -0.1246
21892W        W40746  14.041   2.843   1.233  0.0743 -0.1501 -0.1578
21893W        W40747   0.432   9.305   0.221 -0.0091  0.3598 -0.0322
21894W        W40748  10.697   5.943   0.172  0.0372  0.1189  0.0573
21895W        W40749   5.612   3.565  15.053  0.0822 -0.1015  0.0843
21896W        W40750  10.295   5.563  15.022 -0.0190  0.1246  0.0547
21897W        W40751  13.234   4.525  14.788  0.0353 -0.0993  0.3565
21898W        W40752  16.294  15.235   3.799  0.4345 -0.0342  0.1793
21899W        W40753   0.954  16.769   2.399 -0.0958  0.1424 -0.1590
21900W        W40754  14.368   7.198  11.079  0.1119  0.1329  0.0360
21901W        W40755  11.832   9.264   0.263  0.0278 -0.0504 -0.0961
21902W        W40756  10.777   4.672   4.170 -0.1267 -0.3014  0.0747
21903W        W40757  14.673  16.215   3.200 -0.2927 -0.1091 -0.1031
21904W        W40758   9.571   3.078  13.384  0.1802  0.0122 -0.1427
21905W        W40759   9.639   0.784   2.726 -0.1992  0.3297  0.3512
21906W        W40760   7.020  14.501  14.646  0.1052  0.0639 -0.1296
21907W        W40761  18.789  14.774  10.537  0.1461  0.0365  0.0837
21908W        W40762  18.038   7.370  11.187 -0.0751  0.0160  0.2866
21909W        W40763   0.199  16.418   2.381 -0.1266 -0.1681 -0.2205
21910W        W40764   5.373   8.443  14.276  0.1696  0.1629  0.1348
21911W        W40765   7.892  15.502  13.439  0.3700  0.1483 -0.3487
21912W        W40766  10.026   3.506  14.242  0.0157  0.1891  0.2647
21913W        W40767   2.266   7.109   2.120 -0.1282  0.2440 -0.1425
21914W        W40768   2.989  13.037   1.575  0.0101 -0.1264 -0.0262
21915W        W40769  18.527   6.329  13.685 -0.3495  0.1095  0.1369
21916W        W40770   5.675   6.969  11.928  0.0431 -0.2024 -0.1880
21917W        W40771   7.641  17.964   0.885 -0.0096  0.1534 -0.0831
21918W        W40772   8.898   4.409   4.336  0.0856 -0.0275  0.0256
21919W        W40773   5.907  10.398   1.101 -0.1434  0.0403 -0.1046
21920W        W40774   2.367  11.606  11.698  0.0518  0.4359  0.2922
21921W        W40775   3.251   1.555  13.906 -0.0366 -0.0745 -0.2946
21922W        W40776  18.358   6.726  13.231  0.1000 -0.0410  0.1311
21923W        W40777  10.532   8.238   1.067 -0.0652  0.1771 -0.2356
21924W        W40778   4.908   2.886   2.737 -0.0012 -0.1203  0.1599
21925W        W40779   6.107   8.842   3.319 -0.2378 -0.1397  0.3568
21926W        W40780   3.008   8.349   0.732  0.3622 -0.0460 -0.0744
21927W        W40781  10.332   9.307  11.020 -0.2781 -0.3113 -0.0963
21928W        W40782  16.981  11.838  11.912  0.2226  0.2144  0.1497
21929W        W40783  16.162  10.077  10.924  0.0323 -0.2473  0.1755
21930W        W40784   4.807  10.366   0.354  0.0026  0.1921 -0.1062
21931W        W40785   7.780   6.905   3.805 -0.2307  0.0629  0.2792
21932W        W40786   4.433   8.052  13.690  0.0881 -0.1109 -0.1830
21933W        W40787   4.575   4.203   5.513  0.1672 -0.3127  0.0077
21934W        W40788  13.200   1.178   4.728  0.1397 -0.1269 -0.1064
21935W        W40789   9.088   3.643   2.541 -0.0200 -0.1693 -0.0601
21936W        W40790   3.415   1.552   2.878  0.0739  0.1386  0.1427
21937W        W40791   8.643   7.150   0.211 -0.0825  0.0199  0.0175
21938W        W40792   0.773   7.080   0.139 -0.2757  0.3461  0.0614
21939W        W40793  13.871   5.298  12.795  0.4142 -0.2057  0.2321
21940W        W40794   8.223   5.625   2.730 -0.3606 -0.5828 -0.3312
21941W        W40795  17.284   8.048  13.111  0.1529  0.0322 -0.1622
21942W        W40796   0.062  11.744  12.675  0.0999  0.0230 -0.5093
21943W        W40797  16.619  18.529  12.474 -0.0422  0.0163  0.1682
21944W        W40798  14.678   4.865   2.504 -0.1096  0.0385 -0.0945
21945W        W40799   5.989   4.748   0.527  0.4979 -0.2684 -0.2879
21946W        W40800   6.280   6.942  10.739  0.1499  0.1752  0.6213
21947W        W40801   0.311   2.691   0.571  0.2200 -0.0239  0.1444
21948W        W40802  12.563  13.264   1.710 -0.0783 -0.1766  0.0852
21949W        W40803   2.492  10.318  13.178 -0.2009  0.1025 -0.1835
21950W        W40804  14.867   1.433   2.850  0.1198 -0.1782  0.1130
21951W        W40805   6.525   1.295   1.167  0.2707 -0.2457 -0.1020
21952W        W40806   0.838   5.874  12.350  0.0864  0.1649  0.1095
21953W        W40807   4.282   5.956   4.378 -0.0440 -0.1563 -0.0057
21954W        W40808  13.344   0.855   3.343 -0.0482  0.1070  0.0351
21955W        W40809  13.767  12.583   3.924 -0.2695  0.1539 -0.0374
21956W        W40810  18.641   1.137   1.689  0.0265 -0.1738 -0.0616
21957W        W40811   9.147  16.429  13.057 -0.1101  0.0475 -0.0420
21958W        W40812   6.493  10.918   3.730  0.1759  0.2174 -0.3498
21959W        W40813   2.190   1.338  14.922  0.0730  0.0991  0.0571
21960W        W40814   4.446  15.807   0.405 -0.0943 -0.5159  0.2087
21961W        W40815  15.001   5.025  11.765  0.4185  0.1480 -0.0559
21962W        W40816   6.887   3.024  12.266 -0.1807  0.4442  0.0675
21963W        W40817  16.083   0.142   3.712  0.0098 -0.0106 -0.0935
21964W        W40818   7.149   4.758   2.673  0.0845 -0.0112 -0.4581
21965W        W40819   5.489   7.393   3.679  0.1455  0.0558  0.0963
21966W        W40820   1.405  11.457   4.946 -0.0518 -0.0663  0.0935
21967W        W40821  15.188   9.469   4.258  0.0057 -0.0468 -0.3034
21968W        W40822   6.636  11.897   0.190 -0.1032  0.3453 -0.1802
21969W        W40823   5.012  11.743   1.668 -0.1409  0.0686 -0.2410
21970W        W40824  16.049  16.488   3.497  0.0226  0.0269  0.0499
21971W        W40825   4.655  17.256   1.322  0.2016  0.1396  0.1631
21972W        W40826  17.855  13.436   1.250 -0.0226 -0.2927  0.3473
21973W        W40827   3.640   6.790  10.980 -0.1992  0.0242 -0.0724
21974W        W40828   6.218  15.422  12.473  0.0770  0.0693 -0.0376
21975W        W40829  16.525   4.689   1.814  0.0642 -0.1199 -0.1770
21976W        W40830   2.691   8.762  13.141  0.1596  0.1480  0.0057
21977W        W40831  11.659   7.082   2.670 -0.0815  0.3151 -0.1817
21978W        W40832  15.503  16.500  12.626 -0.0120  0.0777 -0.0383
21979W        W40833   9.101   9.592  12.794 -0.0104  0.0543  0.4783
21980W        W40834   8.665  13.266   1.455  0.1179 -0.1216 -0.4882
21981W        W40835   4.677   6.736   2.125  0.2465  0.1673  0.1833
21982W        W40836   9.768  18.223  11.292 -0.1303 -0.1508 -0.1131
21983W        W40837  14.719   9.637  14.725  0.2491  0.1476  0.0042
21984W        W40838  17.386  10.876  14.748 -0.2036 -0.1274  0.1293
21985W        W40839   3.054  10.831  12.190  0.2614 -0.0241 -0.1659
21986W        W40840   3.912   3.984   2.294  0.1466 -0.1873 -0.1651
21987W        W40841   8.536   2.826   2.615 -0.2995  0.0387 -0.3184
21988W        W40842  16.208  18.760  13.930  0.1552  0.1569 -0.2888
21989W        W40843   0.946  14.087  14.257  0.2084 -0.1522 -0.1972
21990W        W40844   4.954   8.093  12.416  0.1108 -0.2053 -0.2082
21991W        W40845   2.773  16.896   0.488  0.0735  0.0374 -0.3247
21992W        W40846   3.832   8.539   3.865 -0.1036 -0.1793  0.0922
21993W        W40847   6.225   5.259   0.566 -0.0666 -0.1521  0.1610
21994W        W40848   7.687  15.878   3.618  0.1416 -0.0005 -0.0861
21995W        W40849   6.676  10.454  10.716  0.2582 -0.2229  0.0970
21996W        W40850   9.566  10.749   3.645 -0.0494  0.0220  0.1207
21997W        W40851   1.508   2.048   1.643 -0.0246 -0.0240 -0.0512
21998W        W40852  12.531  14.150   2.158 -0.1494  0.2415 -0.2661
21999W        W40853  12.143  15.513   3.255  0.0147  0.0481  0.0876
22000W        W40854   5.479   9.437  12.556  0.1064  0.1166 -0.0528
22001W        W40855  15.077   6.650   1.309 -0.1649  0.0523  0.0390
22002W        W40856   1.251   2.849   4.411 -0.1106  0.1321 -0.1212
22003W        W40857  13.970  17.505   1.518  0.2596  0.2263  0.1090
22004W        W40858   4.497  18.563   3.248 -0.2260 -0.0099 -0.1536
22005W        W40859  16.555   6.285   9.838  0.2942  0.2589 -0.2414
22006W        W40860   9.514  13.309  11.396  0.1961 -0.0364  0.3042
22007W        W40861   5.549  14.227  13.200 -0.1625  0.0193 -0.2240
22008W        W40862  11.640   0.674  12.169  0.4828 -0.0065 -0.1022
22009W        W40863  10.430  10.155   2.596 -0.1001 -0.0936 -0.0413
22010W        W40864  13.728   2.140  14.262  0.0828 -0.1317  0.1896
22011W        W40865  12.240  12.965   4.155  0.0581  0.0313  0.2188
22012W        W40866   3.128  18.662  14.171  0.1619  0.0265  0.0232
22013W        W40867   2.095  13.454   2.976  0.0665 -0.0609 -0.0838
22014W        W40868  17.891   7.346   1.908  0.0215  0.0181  0.0551
22015W        W40869  13.893   5.078   3.250  0.0758  0.0937  0.2876
22016W        W40870  12.338   4.669   0.679  0.0742 -0.1987  0.1594
22017W        W40871   5.992  10.315   3.200 -0.2862  0.2892 -0.2256
22018W        W40872  17.991   6.955  14.177  0.0987 -0.0810  0.0401
22019W        W40873   2.449  13.728   2.201 -0.5118 -0.0652  0.1827
22020W        W40874   9.758  14.268   2.487 -0.0081  0.1057  0.1896
22021W        W40875   6.332   1.196   0.686  0.0140 -0.0297  0.2953
22022W        W40876   2.428  17.066  14.687 -0.1448  0.0997 -0.0231
22023W        W40877   7.674   3.157  11.948  0.1658  0.1151  0.0992
22024W        W40878   5.060  15.604  14.617  0.0708 -0.0514  0.0412
22025W        W40879  13.630  11.945  12.690 -0.0675 -0.3318  0.1805
22026W        W40880   1.395   8.700   3.416  0.0134  0.1377 -0.3108
22027W        W40881   7.609  17.327  11.727  0.2931  0.1036 -0.0135
22028W        W40882  14.539  18.049   1.428  0.3078 -0.0894 -0.3155
22029W        W40883   2.369   6.026   2.486  0.1131 -0.1202 -0.1778
22030W        W40884   4.786   3.983  12.294  0.3339 -0.0641  0.1101
22031W        W40885   1.251   5.945  12.650  0.0767 -0.2906 -0.3131
22032W        W40886  15.950   0.295   1.053  0.2912 -0.0942 -0.0491
22033W        W40887   1.369   2.482   2.833  0.1159 -0.1780  0.2099
22034W        W40888  15.113  14.173  11.234  0.0635  0.1670 -0.3445
22035W        W40889  12.403   0.924  12.399  0.1495  0.2789  0.0784
22036W        W40890  12.778  12.898   1.988 -0.1761 -0.2728  0.0764
22037W        W40891   6.941   1.556   2.646 -0.1459 -0.0989  0.1504
22038W        W40892   8.969  16.967   0.892  0.1359 -0.0929 -0.2468
22039W        W40893   7.420  10.465  12.775  0.0860 -0.2672  0.2583
22040W        W40894   2.810  17.682  13.506 -0.1556 -0.2564  0.1048
22041W        W40895   4.706   3.663   2.196  0.3386  0.1806  0.0228
22042W        W40896   2.104   9.062  11.233 -0.0021  0.0156  0.0590
22043W        W40897  13.476   4.411   5.200 -0.3089 -0.3338 -0.0289
22044W        W40898  18.358   2.611  12.963 -0.0646  0.0183 -0.0058
22045W        W40899  17.833   3.046  13.811  0.0736 -0.0964 -0.0469
22046W        W40900   6.736  10.093  11.443 -0.1018  0.1709 -0.1874
22047W        W40901   7.409   2.141   2.276 -0.0165  0.2006  0.3454
22048W        W40902   8.435  13.836  10.967  0.2516  0.1856  0.1886
22049W        W40903  10.623   7.043  13.759 -0.0007 -0.1148  0.3015
22050W        W40904   1.040  14.615   3.385 -0.0616 -0.0751 -0.3462
22051W        W40905   7.670   9.356   0.328 -0.2167 -0.0308  0.0529
22052W        W40906   1.170   0.511  10.667 -0.0325 -0.2502 -0.1248
22053W        W40907   4.655   8.364  13.019  0.2193  0.1589  0.1052
22054W        W40908   6.266   6.844   0.156  0.3243  0.3251 -0.2802
22055W        W40909   1.538   4.177  14.035  0.0459  0.3981  0.0967
22056W        W40910   2.563   5.703  14.702  0.0076  0.0968  0.3003
22057W        W40911  14.772   2.863   2.957 -0.0822  0.1567  0.0796
22058W        W40912   8.683  18.034   0.402 -0.0043 -0.1780  0.0072
22059W        W40913   8.664  16.253   2.794 -0.3934  0.4974 -0.3147
22060W        W40914   7.105   0.334  15.101  0.0562 -0.0113  0.2892
22061W        W40915   0.842   7.046   9.840  0.2912 -0.1643 -0.3255
22062W        W40916  12.769  15.933   2.711  0.0377  0.0580  0.3353
22063W        W40917  18.627   7.929   2.245  0.2734  0.1381 -0.0171
22064W        W40918  12.452   0.106   2.653  0.1576  0.1790  0.1942
22065W        W40919   9.143   1.911   3.406  0.0950 -0.3677  0.0387
22066W        W40920  13.604  14.996   4.125  0.0014 -0.3816  0.1209
22067W        W40921   9.003   8.950  11.422 -0.3130  0.3107  0.1444
22068W        W40922  18.085   1.618   4.035  0.0772 -0.0645 -0.5456
22069W        W40923  12.677  16.928  14.501 -0.0132  0.1158 -0.1369
22070W        W40924   3.677   2.787  14.335 -0.1246  0.2249 -0.0848
22071W        W40925   8.632  12.385  14.264 -0.4339 -0.1322  0.0947
22072W        W40926  18.591   0.936  12.740  0.1979  0.1237  0.0810
22073W        W40927   3.359  13.263  14.338  0.0732  0.0517  0.1596
22074W        W40928   5.187  14.490  13.415 -0.1963 -0.1659 -0.0630
22075W        W40929   4.588  12.621  14.801 -0.1243 -0.1606 -0.1150
22076W        W40930  15.020  15.700   1.701 -0.0942 -0.1447 -0.0799
22077W        W40931   6.943  14.295  11.806  0.3056  0.0225  0.0359
22078W        W40932   4.053   6.985   0.338  0.2466  0.0686 -0.3376
22079W        W40933   8.110   1.527   4.828 -0.1396 -0.0134  0.4375
22080W        W40934  13.954  17.512  12.084  0.0508  0.0500 -0.0650
22081W        W40935   5.498  11.070   2.581  0.0866 -0.1941 -0.3229
22082W        W40936  10.451   6.919   4.440  0.0390  0.0034 -0.1703
22083W        W40937   3.741   7.231   2.824 -0.2892  0.1291  0.2755
22084W        W40938  14.031   8.265   1.597  0.0816 -0.0003 -0.1119
22085W        W40939  13.030   0.008  13.454  0.2835  0.1751  0.1277
22086W        W40940   6.076  10.121  12.010 -0.0978 -0.2325  0.1716
22087W        W40941   1.148  12.418  13.079 -0.0276 -0.1601 -0.3402
22088W        W40942   5.781  18.858  11.997 -0.0730 -0.1069 -0.0138
22089W        W40943   5.212  10.876  12.612  0.2861  0.0373 -0.1588
22090W        W40944  17.172  15.169   1.888 -0.4071 -0.2422  0.0365
22091W        W40945  14.602   9.490  14.232 -0.1053 -0.0187  0.2510
22092W        W40946   2.155  18.595   3.337 -0.2523 -0.2536 -0.0914
22093W        W40947  13.468   3.982   1.337  0.2190  0.0211  0.4670
22094W        W40948  15.917   9.563   0.108 -0.3635 -0.0628  0.4010
22095W        W40949  10.423  11.256  11.254 -0.0352  0.0244 -0.0917
22096W        W40950   2.628  15.606   2.700  0.0578 -0.0604  0.0065
22097W        W40951   6.261  12.545   1.199  0.0836  0.3883 -0.1664
22098W        W40952  12.909  10.169   1.956  0.3886  0.2869  0.0659
22099W        W40953   0.578   0.941   1.126 -0.2379  0.0460  0.0211
22100W        W40954   6.359   0.726   2.115 -0.1024  0.2385  0.0957
22101W        W40955  13.883   0.832   0.698 -0.2995  0.2419  0.1147
22102W        W40956  17.078  16.086   9.830 -0.0142  0.1162 -0.3230
22103W        W40957   0.383   6.754  12.771  0.0096 -0.0224 -0.1686
22104W        W40958  16.529  17.034   3.300 -0.0843 -0.2327  0.0881
22105W        W40959  14.763  18.454  13.742  0.2980 -0.4018  0.0322
22106W        W40960   6.795   9.789   0.733  0.2527  0.0638  0.1101
22107W        W40961   1.080  13.915   2.156 -0.1155 -0.0701  0.1318
22108W        W40962   0.056  15.707   1.916  0.1901  0.1026  0.0193
22109W        W40963   4.670  13.987   2.900 -0.0212  0.2756 -0.0389
22110W        W40964  11.382  11.298   3.989  0.1423  0.1844  0.3017
22111W        W40965  12.214   3.104  11.051 -0.0173 -0.1875 -0.2008
22112W        W40966  14.325   0.539   0.157  0.0163 -0.0126 -0.0340
22113W        W40967  17.889   5.327   2.222 -0.1741  0.0541 -0.0699
22114W        W40968  13.849   2.430   2.547  0.0571  0.0455 -0.1930
22115W        W40969  15.462  16.670   0.862 -0.0606  0.0521  0.2477
22116W        W40970   1.173   1.008  13.554  0.1336  0.2684  0.0175
22117W        W40971  11.714  10.524   2.972  0.0648 -0.2242 -0.0301
22118W        W40972   8.939   4.886   3.383 -0.2784 -0.1029  0.0560
22119W        W40973   9.872   0.474  14.402 -0.1818 -0.2318 -0.4039
22120W        W40974  18.211   1.075  14.611 -0.1251 -0.1923 -0.0764
22121W        W40975  16.169   3.611   0.150 -0.2191  0.2985  0.0783
22122W        W40976   9.056  14.639   3.718 -0.1231 -0.1847 -0.0126
22123W        W40977   2.681   4.455  10.505  0.0495 -0.2441  0.2934
22124W        W40978   7.171   5.011   9.909 -0.1941  0.4683  0.0598
22125W        W40979  18.610  17.722  11.854 -0.1728  0.1449 -0.1941
22126W        W40980  12.952   8.313  12.292 -0.3091 -0.0248 -0.3731
22127W        W40981  17.261  12.228  13.360 -0.2154 -0.0243 -0.3102
22128W        W40982  18.309   3.601  10.679 -0.2533 -0.0112 -0.1018
22129W        W40983   8.622   0.349  11.441 -0.0765 -0.0494 -0.1133
22130W        W40984   7.259   7.442   9.793 -0.1540 -0.4622 -0.3215
22131W        W40985  16.049   5.309  14.566 -0.0848 -0.5379  0.1859
22132W        W40986  11.252  14.970   0.201 -0.0905  0.1215  0.1170
22133W        W40987   0.891  16.527  13.605 -0.2839  0.1053  0.1114
22134W        W40988   2.391  10.101   0.707 -0.3198 -0.0291  0.2689
22135W        W40989   7.255  13.173  13.814 -0.1182 -0.1633  0.1161
22136W        W40990   7.908  11.155   2.434  0.0749  0.4204  0.0505
22137W        W40991   9.698  12.997  14.907 -0.2506  0.0161 -0.2033
22138W        W40992   0.252  12.083  12.315  0.1621  0.4845  0.1120
22139W        W40993   8.475   3.980  11.449 -0.0457 -0.1838  0.2201
22140W        W40994   9.427   5.887   3.611 -0.4558 -0.1514  0.1611
22141W        W40995   8.490  16.856   2.053  0.1346  0.0011 -0.1167
22142W        W40996  11.551   5.531   1.920 -0.2109  0.2760 -0.2092
22143W        W40997  15.274   5.930   3.681 -0.0397 -0.0552 -0.1623
22144W        W40998  12.356   6.611  14.732  0.2484 -0.0565 -0.0130
22145W        W40999  13.541   0.423   0.546 -0.0161 -0.0567 -0.0579
22146W        W41000   9.839   9.151   2.820 -0.0991  0.3226 -0.1679
22147W        W41001   9.462  13.272   0.807  0.0323  0.3050  0.1029
22148W        W41002   4.908   2.769  13.210 -0.2244  0.3446  0.0331
22149W        W41003   9.113  11.949   4.995 -0.2735  0.0334 -0.1666
22150W        W41004  15.961   4.724   1.786  0.2905 -0.1846 -0.2629
22151W        W41005   2.800   2.163   2.080 -0.1674  0.2423  0.1098
22152W        W41006  16.570  17.837  14.578  0.0727  0.1487 -0.0118
22153W        W41007  18.779  16.016   4.629 -0.1514 -0.0534 -0.1689
22154W        W41008   7.921  17.468   0.047 -0.0928 -0.1482  0.4386
22155W        W41009   2.190  18.282  14.197  0.1966  0.0895 -0.2099
22156W        W41010  18.794  17.030   3.358  0.0237  0.0075  0.2850
22157W        W41011  11.639   5.402   1.404  0.1805  0.0297  0.0421
22158W        W41012   7.449   9.906   1.721 -0.1012  0.0898 -0.0434
22159W        W41013   8.050   6.152   4.973  0.0658 -0.1943 -0.2473
22160W        W41014   3.779  16.413   3.195  0.0482 -0.1151 -0.0248
22161W        W41015   1.078   1.515   0.645 -0.2776  0.2674 -0.3007
22162W        W41016   5.552   5.640   3.848  0.0344 -0.1735 -0.1867
22163W        W41017   3.730   4.061  11.838  0.0521  0.0561 -0.1713
22164W        W41018  14.318  18.245   1.076  0.1960 -0.1473  0.0553
22165W        W41019  11.991   0.967  13.496 -0.1311  0.0995 -0.0554
22166W        W41020  17.175  13.028   3.217 -0.3665  0.1603 -0.1621
22167W        W41021   1.985   5.653  13.590 -0.1084  0.0335  0.0544
22168W        W41022   4.549  15.010  10.673 -0.3642 -0.3105 -0.0651
22169W        W41023   9.185  14.026   3.181 -0.0271 -0.0651 -0.2900
22170W        W41024   8.365  10.328   0.023  0.1912 -0.0654 -0.3411
22171W        W41025   6.298  13.060  11.245 -0.0335 -0.1450  0.0792
22172W        W41026   4.740   6.987  12.799 -0.2279  0.0840 -0.3941
22173W        W41027  18.561   7.015  14.009 -0.1205  0.2595  0.3513
22174W        W41028   3.692  12.582   0.552  0.4922 -0.1840  0.2060
22175W        W41029  14.564  16.484   2.493 -0.0410 -0.1398 -0.1148
22176W        W41030  17.487   8.463   5.118 -0.1347  0.3812  0.1287
22177W        W41031  13.273   6.195   1.400  0.1537 -0.0965 -0.0237
22178W        W41032  17.346  10.016   2.636 -0.1107  0.1129 -0.2010
22179W        W41033  10.250   9.972   0.263 -0.2559 -0.2430 -0.3109
22180W        W41034   4.270   2.881   0.486  0.1967 -0.1500  0.1701
22181W        W41035   6.037  17.960  12.454  0.0710  0.0892  0.3454
22182W        W41036  17.704   4.612  11.465  0.0567 -0.1448  0.0235
22183W        W41037   4.160   2.521   2.290 -0.1797 -0.4695  0.0436
22184W        W41038   3.317   1.799   1.453 -0.2908 -0.4164 -0.0419
22185W        W41039   6.754   5.276   9.669  0.0839  0.0995  0.1504
22186W        W41040   1.450   2.778  12.709 -0.1957 -0.1379 -0.1053
22187W        W41041  16.348  14.700  12.659  0.1719  0.0368 -0.0418
22188W        W41042   6.606   9.002   2.171  0.4424  0.0166  0.0446
22189W        W41043  18.467   1.672   3.719 -0.0118  0.2134 -0.1929
22190W        W41044   0.055  17.062   2.462 -0.1632  0.0690  0.2270
22191W        W41045   5.159   7.800   3.786 -0.0158  0.3293  0.2551
22192W        W41046  13.078   7.664   3.088 -0.2081  0.0763  0.1714
22193W        W41047   0.445   5.372   2.045  0.2118 -0.2312 -0.0106
22194W        W41048   7.855  10.007   1.390  0.0350 -0.0193 -0.2249
22195W        W41049   3.925   1.975  13.502  0.2145  0.1560  0.3081
22196W        W41050  17.272   6.895  11.373 -0.1788 -0.2538  0.3579
22197W        W41051  13.563  14.159   1.504 -0.1535  0.1630 -0.1563
22198W        W41052   4.543   2.987   0.932 -0.0316 -0.2261 -0.2208
22199W        W41053   3.893   7.046   2.400 -0.0119  0.3305  0.2364
22200W        W41054  11.072   1.864   3.087 -0.1300  0.1672  0.0415
22201W        W41055   8.220   2.100  14.649  0.0792  0.0931 -0.0491
22202W        W41056  10.110  17.958  12.369  0.3089 -0.0533  0.0647
22203W        W41057  16.297   7.351   1.320 -0.1661  0.0845  0.0513
22204W        W41058   5.712   2.791   1.567 -0.2310 -0.5025 -0.4349
22205W        W41059   9.744   1.722  12.493  0.1405 -0.2329  0.1178
22206W        W41060   7.733   5.216   1.788 -0.1110 -0.1876  0.3312
22207W        W41061  12.532  11.171   2.636 -0.0892 -0.1085  0.3817
22208W        W41062  16.408  18.467   0.661 -0.1137  0.4887  0.1984
22209W        W41063  17.146   6.016   4.320  0.2488  0.2264 -0.0826
22210W        W41064  12.983  13.478   1.563 -0.0009  0.0772 -0.0281
22211W        W41065   3.587  10.833  12.861  0.2987  0.2723  0.0413
22212W        W41066  16.843  17.372   5.613  0.2880 -0.2787  0.0647
22213W        W41067   0.592  18.850  14.778  0.0566  0.1882  0.0197
22214W        W41068  14.949  16.312   4.177  0.0786 -0.0785  0.2125
22215W        W41069  18.227   3.608   1.220  0.2008  0.1254 -0.0724
22216W        W41070  16.997  10.841  11.851  0.0595  0.0694  0.0897
22217W        W41071  12.620   6.558   0.575  0.0378 -0.1310  0.1305
22218W        W41072   4.510   0.349  14.254  0.3735 -0.0721 -0.2279
22219W        W41073   1.646   7.515  11.613  0.1878  0.2891 -0.2568
22220W        W41074   2.730   4.066   3.774  0.0379 -0.2521  0.3864
22221W        W41075   9.636   9.356   2.428 -0.0851 -0.0525  0.1275
22222W        W41076   0.890   2.273   9.944 -0.1373 -0.0764  0.1948
22223W        W41077  14.280   7.861   0.835 -0.3096  0.2386  0.4589
22224W        W41078   0.269  18.376   0.487 -0.0374  0.0549 -0.0816
22225W        W41079   1.295  18.355  13.459  0.3922 -0.0192 -0.0356
22226W        W41080   4.369   1.359  12.100  0.1586  0.0013  0.3539
22227W        W41081   0.723  16.507   0.647  0.0986 -0.2792 -0.1589
22228W        W41082   1.291  18.197  11.926  0.2669  0.1927 -0.1022
22229W        W41083  14.539   3.772  13.355  0.2164 -0.0356 -0.1546
22230W        W41084   7.315  11.954  11.069 -0.0872 -0.1249  0.0330
22231W        W41085  13.418  15.915   3.936  0.0441 -0.3171  0.0985
22232W        W41086   4.177   9.481   2.449  0.1195 -0.0773  0.3255
22233W        W41087   2.780   7.905  11.072  0.0541 -0.0198  0.1101
22234W        W41088  14.636   5.679   3.211  0.1635  0.1665 -0.1008
22235W        W41089   6.157   9.043   1.071  0.2774 -0.2667  0.2403
22236W        W41090   3.840   7.901   0.857 -0.0512  0.1638 -0.0626
22237W        W41091   4.697  18.834  11.930 -0.0477  0.0767  0.2470
22238W        W41092  10.964   6.048   4.393  0.1949 -0.1455  0.0769
22239W        W41093  13.512   9.485   0.292  0.0386  0.0362 -0.0660
22240W        W41094   6.240   9.076  14.763 -0.2201 -0.1464  0.0316
22241W        W41095   3.282   4.024   2.935  0.1223  0.2259  0.3900
22242W        W41096  15.694  12.304   0.008 -0.2078  0.2520  0.1832
22243W        W41097   9.521   4.086  12.510 -0.1684 -0.0724  0.0599
22244W        W41098   9.958   7.020  13.592  0.0414  0.2498 -0.1109
22245W        W41099   3.308   6.971  10.591 -0.1211  0.0509 -0.3336
22246W        W41100  12.344  13.900   3.934 -0.0565 -0.3634  0.1935
22247W        W41101   5.815  15.726   1.593  0.1012 -0.0664 -0.1441
22248W        W41102   4.912   2.376  12.798 -0.0632 -0.2248 -0.1307
22249W        W41103   0.906  17.977  12.250  0.0822 -0.0436 -0.1312
22250W        W41104  11.451   0.306   2.250  0.1274  0.0624 -0.0088
22251W        W41105  16.968   9.773   0.482 -0.0287  0.0559 -0.3260
22252W        W41106  17.834  16.377   0.871 -0.1228 -0.0012  0.0683
22253W        W41107   9.489   5.485   4.355 -0.0974 -0.0379  0.1507
22254W        W41108  12.519   2.053   4.086  0.1524  0.3980  0.0206
22255W        W41109   8.443  18.475   1.195  0.0882 -0.4155  0.0288
22256W        W41110  14.385  15.913   3.483 -0.0889 -0.3320 -0.2157
22257W        W41111   7.505   8.573   1.846  0.0345  0.2266 -0.4706
22258W        W41112  18.090  18.086  14.919 -0.2096 -0.0821  0.1175
22259W        W41113   1.608  14.033   1.294  0.0942 -0.1032  0.0248
22260W        W41114  14.617  17.343   0.060 -0.0930  0.2124 -0.2212
22261W        W41115   9.522   6.286   1.145  0.1551  0.0214  0.1336
22262W        W41116   9.034  10.074   3.302  0.1769  0.1038 -0.0675
22263W        W41117   7.882   2.847  14.228 -0.3704  0.4061  0.1565
22264W        W41118   0.826  18.375  11.840 -0.0955  0.0374 -0.2575
22265W        W41119  15.279  15.697   2.925 -0.1120  0.3618  0.4780
22266W        W41120  12.720   5.397  15.016  0.3676 -0.0686  0.0543
22267W        W41121  16.458  12.013  14.850 -0.2463 -0.1206 -0.0702
22268W        W41122  12.874   9.524  12.475 -0.0182 -0.0532 -0.1167
22269W        W41123   6.755  17.511  14.005  0.1086 -0.2059  0.0636
22270W        W41124   4.510   2.413   0.381 -0.2036 -0.0072 -0.2750
22271W        W41125  17.449  15.044  14.400  0.1057 -0.2089  0.1267
22272W        W41126   2.562   4.134  13.768 -0.0787 -0.0712  0.3622
22273W        W41127  16.322   0.192  12.192 -0.2803 -0.2461  0.0028
22274W        W41128  17.977   8.810   0.300 -0.1251  0.1554  0.0473
22275W        W41129  17.623  11.364  14.811 -0.3181  0.1890  0.0469
22276W        W41130  16.954  17.940   1.156 -0.1640 -0.4867  0.0763
22277W        W41131   3.331  14.621  10.648  0.2159  0.3098 -0.3942
22278W        W41132   6.095  11.145  10.949 -0.1000 -0.0694  0.3009
22279W        W41133   0.906  17.629   4.325 -0.0718  0.1087 -0.0109
22280W        W41134  18.485   4.605   1.245 -0.1774  0.0237  0.1827
22281W        W41135  15.952  16.420  13.212  0.1144 -0.0828 -0.1467
22282W        W41136   6.026   3.433   1.980 -0.0666 -0.1731 -0.1730
22283W        W41137  17.244  14.610   2.392 -0.0668  0.1857  0.1081
22284W        W41138   9.008  14.637  12.616  0.0787 -0.1600  0.2909
22285W        W41139  13.525   3.970   0.419  0.0033  0.3658  0.0905
22286W        W41140   4.570  18.801   2.813 -0.0259  0.1304 -0.2116
22287W        W41141  16.259   4.731   1.343 -0.0238 -0.2157 -0.0289
22288W        W41142  11.785   3.836   3.029  0.2888  0.0740 -0.1089
22289W        W41143   5.817   5.427  11.512  0.0874 -0.0853 -0.2671
22290W        W41144  11.910   0.125   3.162 -0.1234  0.1531  0.2191
22291W        W41145   4.217   5.764  11.340 -0.0372  0.1036  0.1643
22292W        W41146   7.040   4.459   1.176  0.4322 -0.1881  0.2748
22293W        W41147   8.962   5.573   1.125  0.1341  0.0188  0.2022
22294W        W41148  16.242   9.264   2.582 -0.2223 -0.0699  0.1349
22295W        W41149  16.380  10.456   3.038 -0.0221  0.5179 -0.1562
22296W        W41150  15.144   1.827  12.894  0.0155  0.0669  0.1690
22297W        W41151   1.681  11.703  14.797  0.1545 -0.0247  0.1231
22298W        W41152  17.620   0.865  11.862  0.3491 -0.2421  0.1762
22299W        W41153   1.345  12.045   9.495  0.0710  0.3750 -0.2437
22300W        W41154  18.609  12.257   1.497 -0.0493  0.2183  0.0501
22301W        W41155   6.847  10.650  12.796 -0.1049 -0.1065  0.0034
22302W        W41156  10.393  15.880  14.494 -0.0758  0.1866  0.1521
22303W        W41157   1.703   9.826  11.487 -0.1506  0.1967 -0.0688
22304W        W41158   4.672  15.191  13.927 -0.0424 -0.1399  0.0322
22305W        W41159   3.972   4.725  13.378  0.0102  0.1479 -0.0189
22306W        W41160  13.152  14.646   2.719 -0.1431  0.3753 -0.0787
22307W        W41161   1.549  12.643  10.294  0.2156  0.1416  0.2321
22308W        W41162   0.775  10.916   4.422  0.2055 -0.4593 -0.1512
22309W        W41163  16.598  11.980   2.509  0.2900 -0.1014 -0.2875
22310W        W41164   4.837  12.441   3.952  0.0717 -0.0622 -0.2663
22311W        W41165   7.704   8.364   0.476 -0.3678  0.1936  0.1351
22312W        W41166   3.210   4.454   4.371  0.3554 -0.4469  0.0154
22313W        W41167  17.456  14.904   3.112  0.1029 -0.0621 -0.1043
22314W        W41168  15.942   1.490  14.866 -0.0452 -0.2616  0.1138
22315W        W41169  13.166  11.023  13.395  0.1620  0.2009 -0.2269
22316W        W41170  10.960  10.560  13.071 -0.1815  0.1457  0.2212
22317W        W41171   8.583  10.533  13.080 -0.3552 -0.1290 -0.0713
22318W        W41172   3.702   5.149  13.307 -0.1124  0.1697  0.1397
22319W        W41173   4.572  10.258  15.032 -0.2671  0.0261 -0.3221
22320W        W41174   1.959  10.314   0.661 -0.1260  0.0189  0.0827
22321W        W41175   2.684   8.932  11.353  0.0078 -0.0114 -0.0027
22322W        W41176  13.908  11.577   1.878 -0.2750  0.1580  0.1173
22323W        W41177   2.283  16.154  15.061 -0.0168  0.2407 -0.1770
22324W        W41178   4.222   5.721  13.987  0.2348 -0.1002  0.1481
22325W        W41179   0.369   7.758   3.690 -0.0505  0.1403 -0.0279
22326W        W41180   9.301   5.782  13.389  0.0078  0.2082 -0.2529
22327W        W41181  11.655  14.579  12.618 -0.1405  0.0550  0.5806
22328W        W41182  17.237   7.995  14.581 -0.0221 -0.0137  0.2196
22329W        W41183   3.041   7.811   0.564 -0.0063  0.0500  0.1234
22330W        W41184  13.711   6.657  14.881 -0.1651  0.1153 -0.0094
22331W        W41185  18.779   0.315  14.911 -0.0176  0.0993 -0.4193
22332W        W41186  15.573   3.962   2.281  0.0914  0.2363  0.0771
22333W        W41187   3.619   1.812   1.863 -0.2524  0.3446  0.2269
22334W        W41188  12.663   4.347  11.212 -0.2636  0.0469  0.0569
22335W        W41189   7.869  15.627   1.894 -0.0023 -0.2697  0.3467
22336W        W41190   8.006   3.642   1.570 -0.1059 -0.0312  0.0505
22337W        W41191  14.789  12.746   2.819  0.2769 -0.0460  0.0094
22338W        W41192  12.179  17.160  10.716  0.0942  0.1362 -0.3022
22339W        W41193  18.587  11.243  14.155 -0.2802 -0.1833 -0.2110
22340W        W41194  14.877  13.967   3.440 -0.2575 -0.1617 -0.0702
22341W        W41195   5.222   4.725  12.509 -0.1943 -0.2285  0.2498
22342W        W41196   3.493   5.263  14.934  0.3389  0.1754  0.3558
22343W        W41197   8.836  14.634   2.416 -0.1474 -0.0279  0.1296
22344W        W41198   3.553   3.518  13.587 -0.2484  0.0281  0.1647
22345W        W41199   3.065   3.287   2.932  0.1714 -0.0832 -0.2090
22346W        W41200   9.206  16.682  14.436 -0.1039  0.2183  0.1844
22347W        W41201  13.239   3.107   1.798 -0.0690  0.0390 -0.0676
22348W        W41202   8.653   2.322   2.625  0.1119 -0.2820 -0.1187
22349W        W41203   4.227   7.400   0.041  0.1007  0.0845  0.3757
22350W        W41204  11.400  10.865   0.455  0.1371  0.0827 -0.1662
22351W        W41205   8.349  18.491   5.327 -0.2546 -0.0718 -0.1549
22352W        W41206  14.719  17.933  11.458 -0.1294  0.2067 -0.0656
22353W        W41207   4.975   7.736   4.773  0.2919 -0.0591 -0.1936
22354W        W41208  13.443   2.776  11.210  0.1072  0.3142 -0.0141
22355W        W41209   2.481   4.911  11.392  0.1657 -0.3706 -0.0417
22356W        W41210  16.256   5.049  11.597 -0.1822 -0.2267  0.0426
22357W        W41211  14.648   4.780  14.981 -0.2774 -0.1111 -0.1979
22358W        W41212  10.196  11.879  13.087 -0.3362  0.1542  0.2188
22359W        W41213   7.003  11.711  14.397 -0.2441  0.3313 -0.2052
22360W        W41214   4.861   7.189   1.469 -0.2199 -0.2921 -0.0016
22361W        W41215   7.815  12.290  10.892 -0.2023  0.1848 -0.1339
22362W        W41216   5.383   6.747   3.957 -0.2065 -0.2368  0.0095
22363W        W41217   5.952   9.266   2.982 -0.0027  0.1129 -0.2965
22364W        W41218  13.361  18.594   1.397 -0.3927  0.4471  0.1520
22365W        W41219   0.855   0.436  11.864 -0.2002  0.1801 -0.0681
22366W        W41220  16.314  16.502   1.735  0.1530  0.0888 -0.0810
22367W        W41221  11.471  18.445   4.592  0.2772  0.3442 -0.0549
22368W        W41222   1.551   1.499  12.585  0.3993  0.0376 -0.0055
22369W        W41223   6.202  11.665   2.572 -0.2020 -0.0612  0.0585
22370W        W41224  14.256   5.198   2.371 -0.1309  0.1647 -0.0149
22371W        W41225   8.219  16.561   2.434 -0.1389  0.0660  0.2630
22372W        W41226   0.873   2.964  14.547  0.2891  0.2849  0.1427
22373W        W41227   3.866  15.776  14.693 -0.0348 -0.0143  0.0900
22374W        W41228  15.385   0.151  13.660  0.0342  0.1576 -0.0632
22375W        W41229   3.396  12.891  13.931  0.0284 -0.3453  0.0401
22376W        W41230   7.181  15.014  13.843 -0.1019 -0.0790  0.0809
22377W        W41231   7.109   6.559  14.411  0.0667 -0.1439  0.2869
22378W        W41232   2.968   5.443  11.819 -0.1774 -0.1324  0.0506
22379W        W41233   8.423   4.246  12.382  0.0314  0.1098  0.2208
22380W        W41234   5.328  10.025  13.560 -0.0104 -0.1854  0.2817
22381W        W41235  13.445   9.885   1.160 -0.0817 -0.0022  0.0684
22382W        W41236   2.184   4.157   2.034  0.1636 -0.0886  0.0457
22383W        W41237  15.831  16.829  12.922  0.2438  0.0738 -0.2684
22384W        W41238  13.571   6.557  13.903 -0.1169  0.1120  0.0930
22385W        W41239  16.476  17.994  14.045  0.0511 -0.1709  0.2749
22386W        W41240   5.186   8.909  14.316 -0.0080 -0.1212 -0.1699
22387W        W41241  12.962  15.875  11.015 -0.2602  0.0600  0.1914
22388W        W41242   4.681  11.585   3.875  0.0022 -0.0096  0.0047
22389W        W41243  16.717   4.356   0.473 -0.1933  0.1227 -0.1555
22390W        W41244   1.807   2.925   0.351 -0.0873  0.2365 -0.0990
22391W        W41245   9.171  15.719   3.916  0.0079 -0.2882  0.0726
22392W        W41246  18.802   5.598  10.606  0.0898 -0.1839 -0.0522
22393W        W41247  14.099   7.121  11.485 -0.1028  0.2304 -0.1872
22394W        W41248   6.557  10.253  11.910 -0.0129  0.1145 -0.1618
22395W        W41249   9.178   9.642   2.043  0.1364 -0.0599 -0.1407
22396W        W41250   3.830  17.112   3.811 -0.1170 -0.0689 -0.0712
22397W        W41251   3.651  11.358  14.933 -0.2598  0.2058 -0.4076
22398W        W41252  16.166   9.000   1.288 -0.0844 -0.3264 -0.0437
22399W        W41253  13.042  13.587  13.919  0.2536 -0.0425 -0.1504
22400W        W41254   3.993   3.220  13.435 -0.0761 -0.1912 -0.0061
22401W        W41255  10.926  10.964  14.289  0.2768 -0.0541  0.2625
22402W        W41256  18.253  10.021  11.511  0.1495 -0.1663  0.0133
22403W        W41257  11.833   4.949   5.823 -0.1187  0.0173 -0.0359
22404W        W41258   3.218  12.390  13.128  0.0125  0.0154  0.2447
22405W        W41259  15.874   1.601   5.310  0.0983 -0.0460  0.0284
22406W        W41260  12.917  11.505  11.908 -0.2986 -0.1110 -0.0498
22407W        W41261   2.382  11.794  11.114 -0.1207  0.1605 -0.0180
22408W        W41262   2.138   3.670   2.114  0.1050  0.3269  0.1741
22409W        W41263   1.119  11.803  11.261  0.0510  0.0109  0.0449
22410W        W41264  13.237   5.049   2.016 -0.0896  0.0199 -0.1068
22411W        W41265   2.250  17.950  11.114 -0.0931 -0.5099 -0.3147
22412W        W41266   9.771  18.569  14.745  0.1474 -0.0325 -0.2369
22413W        W41267  14.944  15.478  14.772 -0.1455 -0.0556  0.1704
22414W        W41268   2.968  17.110  11.168 -0.0855 -0.1160 -0.1291
22415W        W41269  16.732  10.441   3.492  0.3041 -0.3211 -0.1267
22416W        W41270  18.109   1.827  11.747 -0.2081 -0.1922  0.1221
22417W        W41271  16.884  11.703   1.338 -0.1398  0.3707 -0.2296
22418W        W41272  13.647   6.492   2.877 -0.1771  0.1897 -0.2260
22419W        W41273   5.748  12.816   0.373 -0.0336 -0.1350  0.2303
22420W        W41274   0.980  17.019   1.953 -0.0070 -0.3284 -0.1129
22421W        W41275  15.774   3.403  12.742  0.1606 -0.0237  0.3861
22422W        W41276  17.435   5.475   0.921  0.0592  0.0289 -0.1075
22423W        W41277   1.575  17.588  11.525  0.0072 -0.0260  0.1999
22424W        W41278  18.725  10.596  14.825 -0.1065  0.0276  0.1493
22425W        W41279   7.103  12.827  13.247  0.2233 -0.0160  0.1574
22426W        W41280   3.358  11.524  12.416  0.2036  0.0577  0.0071
22427W        W41281   5.844  17.354   3.997 -0.1464 -0.0933  0.0009
22428W        W41282  13.953   1.518   1.224  0.2196  0.3481 -0.0736
22429W        W41283   8.297   3.996   2.646  0.0057 -0.2716  0.0637
22430W        W41284   3.481  13.251   2.819 -0.1166  0.3077 -0.1454
22431W        W41285  18.053  14.998   0.822 -0.2181 -0.4942  0.0181
22432W        W41286   4.540   3.664  10.078 -0.0590 -0.0240  0.1368
22433W        W41287   8.008  13.529  11.180  0.0866  0.0460  0.4002
22434W        W41288   9.720   1.984   4.181 -0.1970  0.1841 -0.0320
22435W        W41289   1.532   9.541  14.846  0.1300 -0.0318 -0.1382
22436W        W41290   4.351   8.319   3.743 -0.2079 -0.3122  0.2447
22437W        W41291   5.039   5.753   3.860 -0.3065  0.0876 -0.3056
22438W        W41292  16.103   3.145  10.839 -0.0686 -0.1938  0.0407
22439W        W41293   9.973  15.715   2.349 -0.1265  0.0729 -0.2261
22440W        W41294  18.450  18.150   2.769  0.2883  0.0469  0.0216
22441W        W41295  17.755  10.825  11.173 -0.0025 -0.1155  0.2278
22442W        W41296  18.259  11.224   0.233 -0.2393  0.0289 -0.3402
22443W        W41297   9.871  12.906  14.409 -0.0018 -0.4245  0.1558
22444W        W41298  16.943   7.358  10.888 -0.1650  0.0686 -0.0261
22445W        W41299  11.505  14.193   2.805 -0.2975  0.1703 -0.1207
22446W        W41300   7.622   1.530   0.595  0.2106  0.1786  0.1903
22447W        W41301   6.560   7.347  10.851  0.1864  0.1779  0.1196
22448W        W41302   8.166  10.758  11.233 -0.0845 -0.1613  0.1572
22449W        W41303  16.061   2.752   4.502  0.3672 -0.0915 -0.0226
22450W        W41304   6.107   6.010   0.113  0.3461  0.2681  0.5589
22451W        W41305   2.652   2.549  12.385 -0.2133  0.0417  0.1041
22452W        W41306   2.499   0.036   3.798  0.0716  0.2444 -0.1577
22453W        W41307   6.836   7.252   1.210 -0.0667 -0.1434 -0.0651
22454W        W41308  11.480  18.561   5.153 -0.0753  0.0680 -0.1511
22455W        W41309   1.335   9.964   0.772  0.0616  0.1913  0.2152
22456W        W41310   3.751   2.366   1.908 -0.1941  0.0151  0.1382
22457W        W41311  13.496  10.514   0.325  0.0350 -0.0676 -0.0404
22458W        W41312   1.170  15.270  14.237 -0.1224 -0.2898 -0.0607
22459W        W41313   1.537   5.701   2.420 -0.0439 -0.0073  0.0453
22460W        W41314   1.588  18.725   2.990  0.0722 -0.0054  0.3389
22461W        W41315   9.843   7.969  14.535 -0.0098  0.4726 -0.1232
22462W        W41316   3.988   5.480   0.422 -0.1739  0.2894  0.0529
22463W        W41317   7.797   2.819   4.179 -0.0344 -0.0660 -0.1800
22464W        W41318   6.270   4.870  12.029  0.0338 -0.2145 -0.1325
22465W        W41319  17.671   6.798   2.008  0.2258 -0.1380 -0.1009
22466W        W41320   1.490   8.631  12.230 -0.0597  0.2737 -0.0847
22467W        W41321   4.769  11.420  10.922 -0.0820  0.0144  0.1539
22468W        W41322  12.194  10.509   2.600 -0.1007 -0.4773  0.0710
22469W        W41323   0.967   2.001  11.834  0.0680  0.2701 -0.1570
22470W        W41324  17.022  15.593  11.898 -0.0546 -0.0234  0.4898
22471W        W41325   3.554   0.833  11.793  0.2786  0.3291  0.0256
22472W        W41326  14.933   0.166   4.154  0.0393  0.1715  0.2082
22473W        W41327  16.143   3.026   2.811  0.0106 -0.1355  0.0188
22474W        W41328  17.362   3.054   4.045 -0.2393  0.1382 -0.1699
22475W        W41329   6.780   0.502   0.324 -0.2339  0.1076  0.1883
22476W        W41330  10.599   4.514   0.114  0.4075 -0.0095 -0.2003
22477W        W41331   8.058   6.270   3.265  0.0597  0.0660  0.0759
22478W        W41332   2.088  17.060   0.163 -0.0342 -0.0836 -0.1802
22479W        W41333   9.661   6.472   4.141 -0.0113 -0.2298 -0.0574
22480W        W41334  14.785   5.090   3.266  0.0767  0.0739 -0.3049
22481W        W41335  17.487  16.686  13.867  0.1531 -0.2415 -0.0522
22482W        W41336   7.579   0.131   0.771 -0.1904  0.0673 -0.1186
22483W        W41337  12.521  16.467  11.741  0.1072  0.0587  0.0746
22484W        W41338   9.229  15.087   4.648  0.0946  0.0559  0.1293
22485W        W41339  13.337  14.051   3.695 -0.0422  0.1505  0.0132
22486W        W41340   3.872   6.161  12.300  0.1486 -0.1443  0.1856
22487W        W41341   5.079   6.721  11.882  0.0200  0.0245 -0.0043
22488W        W41342   4.209   5.104   2.928  0.0490 -0.0865  0.0512
22489W        W41343  11.323   2.226   0.854 -0.5311  0.1710  0.0063
22490W        W41344   5.625   0.400   0.985  0.1798  0.1735 -0.1504
22491W        W41345  13.069   7.158  11.179  0.1087  0.1695  0.1742
22492W        W41346   3.243  13.020  10.730 -0.0859 -0.0425  0.1854
22493W        W41347  15.918  10.515   0.116  0.1316 -0.1620  0.0048
22494W        W41348  11.092  17.673  10.678 -0.1922 -0.0240 -0.1711
22495W        W41349  15.350  11.839   0.827 -0.1017  0.2791 -0.0680
22496W        W41350   7.695  10.866  14.233  0.0840 -0.0686  0.2382
22497W        W41351  10.678   6.000   4.873 -0.0739 -0.2511  0.3132
22498W        W41352   7.692  18.011   1.737  0.3341 -0.0285  0.0172
22499W        W41353  17.656  10.387   0.658 -0.2108 -0.2976 -0.0428
22500W        W41354  17.195   2.930  12.131 -0.1227  0.4740  0.0771
22501W        W41355  17.061  17.398   0.937 -0.1016  0.0657 -0.0524
22502W        W41356  10.927   0.937   1.868 -0.1649  0.2699 -0.0345
22503W        W41357  18.229   0.255  13.841 -0.0458 -0.0406 -0.2320
22504W        W41358   7.811  14.861  12.585  0.1549  0.0260 -0.2921
22505W        W41359   7.254  12.311  14.037  0.1576  0.1835 -0.0188
22506W        W41360   9.092   8.443   0.872 -0.1521 -0.1568 -0.1732
22507W        W41361   7.665  14.751  14.487 -0.1248  0.0168  0.0908
22508W        W41362   3.767  14.442  10.641 -0.1125 -0.0204 -0.1313
22509W        W41363   1.648   6.638   0.475  0.0400  0.2848  0.0202
22510W        W41364   8.242  16.281  14.822  0.1405 -0.0925  0.0354
22511W        W41365  15.089  15.152  14.413 -0.3009  0.3099 -0.4924
22512W        W41366   2.168   4.197   1.462 -0.1724  0.1143  0.2206
22513W        W41367  14.752   6.615   0.919  0.2146 -0.1562 -0.3330
22514W        W41368  13.941   8.095  12.009  0.0477  0.1509  0.0455
22515W        W41369  13.965  15.559  13.896  0.2586 -0.1043 -0.3336
22516W        W41370  17.713  10.901  13.759 -0.2754  0.1933  0.0625
22517W        W41371  11.323   8.931   2.664 -0.0129 -0.1079 -0.0684
22518W        W41372   2.940  17.062  12.108  0.1582  0.0966  0.2524
22519W        W41373  10.886   4.120   3.244 -0.1449  0.0586 -0.2181
22520W        W41374  18.186  10.499  13.057  0.3414  0.0572 -0.4730
22521W        W41375   7.109  18.750  13.905  0.1397  0.2575 -0.1614
22522W        W41376   4.069   6.807   3.646 -0.3064  0.2125 -0.0111
22523W        W41377   8.709   3.099   2.025  0.0924  0.2109 -0.0403
22524W        W41378  12.514  18.153   3.015  0.4160  0.4558 -0.2893
22525W        W41379  10.293   0.980   0.500 -0.1805  0.1348 -0.3131
22526W        W41380   1.782   0.491  12.879 -0.2959  0.0979  0.0262
22527W        W41381   8.118   0.806   2.784 -0.0413  0.0779 -0.0553
22528W        W41382   3.132  17.918   3.881  0.0060 -0.1940  0.3967
22529W        W41383  17.508  12.131  12.751 -0.0203 -0.1568 -0.0096
22530W        W41384   7.990   9.512   4.051  0.1344 -0.0993 -0.0856
22531W        W41385  11.997  10.532  11.458 -0.0653 -0.0325 -0.0990
22532W        W41386   2.089   7.260  14.627  0.1769 -0.0667  0.3151
22533W        W41387  17.127  11.801   3.175 -0.1569  0.1227 -0.1873
22534W        W41388   5.000  11.825   2.344 -0.0091  0.3258  0.1004
22535W        W41389   0.607   3.982   1.171  0.2373 -0.4124 -0.1962
22536W        W41390  11.062  17.648   2.968  0.3677  0.0761  0.1692
22537W        W41391  14.092   9.420  14.216 -0.0627 -0.1538 -0.1905
22538W        W41392  12.692  17.021  11.403 -0.0577 -0.0111  0.2041
22539W        W41393   2.327  15.677  12.334 -0.0521 -0.1381  0.1403
22540W        W41394   8.311   4.211   3.155  0.3578  0.0716  0.1413
22541W        W41395  13.712  11.088   2.298  0.3812  0.2675  0.0842
22542W        W41396   3.828   4.448  14.943 -0.3393  0.0413  0.1026
22543W        W41397   8.467   9.740  13.837 -0.2873  0.4075  0.2827
22544W        W41398   4.166   6.832   1.251  0.2896  0.1255 -0.0185
22545W        W41399   9.783   3.124   0.642  0.0183  0.0707  0.1137
22546W        W41400   0.117   6.438  10.690 -0.0848  0.2461 -0.0532
22547W        W41401  11.345  15.289   1.444 -0.1900 -0.1913  0.1676
22548W        W41402  13.672   3.608   0.167  0.0717 -0.4643 -0.1114
22549W        W41403  15.796  10.323  10.742 -0.3907 -0.0093  0.1882
22550W        W41404  14.048  13.703   4.067 -0.0426  0.2687  0.0924
22551W        W41405  13.425  16.646  11.019 -0.0649  0.1151 -0.1278
22552W        W41406  16.750   5.764   2.162  0.1846  0.1651  0.3330
22553W        W41407  10.790   3.311  11.252 -0.1113  0.2715  0.0600
22554W        W41408   3.879   2.704   4.541 -0.4004 -0.2710 -0.4034
22555W        W41409  11.322  12.723   1.599 -0.2294  0.1444  0.0428
22556W        W41410   1.174   6.875  12.594 -0.2716  0.1595  0.0178
22557W        W41411   3.870   1.418   2.080  0.2407  0.0603 -0.3782
22558W        W41412   1.283  14.590  14.146  0.2700  0.1274 -0.0378
22559W        W41413  15.992   7.836  13.171 -0.3024 -0.2796 -0.0790
22560W        W41414  16.898   9.940  12.335  0.1271 -0.0901  0.1178
22561W        W41415  17.008  12.978   4.058  0.2481  0.0551 -0.0381
22562W        W41416   1.132  17.427  10.878 -0.1359 -0.0056 -0.1214
22563W        W41417  13.689  15.062   1.317  0.0709  0.0141 -0.0119
22564W        W41418   7.289   5.222   2.830 -0.2530 -0.3930  0.0293
22565W        W41419  10.159   2.289  13.161 -0.0045  0.0491  0.0969
22566W        W41420  10.802  10.663   0.121 -0.0961  0.0219  0.1072
22567W        W41421  10.645  10.747   4.605  0.1693 -0.1577 -0.0282
22568W        W41422  18.595  13.069  11.873 -0.5293  0.0017 -0.0263
22569W        W41423   2.644  10.000  13.899 -0.0964  0.2295 -0.0364
22570W        W41424  10.761   5.029   3.702 -0.2942  0.2820  0.2826
22571W        W41425   7.407   5.735  13.769  0.0695 -0.1352  0.0193
22572W        W41426  16.643   3.931  11.813 -0.2991  0.1450  0.0425
22573W        W41427  17.907   9.475   0.568  0.2364  0.1739  0.0010
22574W        W41428   7.522  12.671   0.139 -0.1677  0.0954 -0.1475
22575W        W41429   7.942   7.771  11.033  0.0316  0.4382  0.0806
22576W        W41430   6.630  10.532   4.933 -0.0375  0.0531 -0.1763
22577W        W41431   7.484  14.870   1.338  0.2966  0.0456  0.1691
22578W        W41432  16.521   1.325  12.905  0.3394  0.2020  0.0160
22579W        W41433  10.249   1.865  12.246 -0.0268  0.0630  0.2712
22580W        W41434   6.778  12.752  14.035  0.1467  0.3552 -0.1326
22581W        W41435  12.633   9.196  14.747  0.1214 -0.0425 -0.1849
22582W        W41436  10.517  15.247   4.535 -0.0987  0.1524  0.3837
22583W        W41437   2.386  14.474  13.196 -0.1623  0.1145 -0.1064
22584W        W41438  12.775  15.590   4.068 -0.0871  0.0509 -0.1429
22585W        W41439  15.890  10.926   2.125 -0.0143  0.1812  0.1401
22586W        W41440   6.161   2.635   1.372  0.0385  0.1024 -0.1366
22587W        W41441  10.659   3.107  12.612 -0.3097  0.1564 -0.0766
22588W        W41442  16.546  11.985   1.622 -0.0742 -0.1798  0.0732
22589W        W41443  14.440  12.313  11.686  0.1022  0.5127  0.1428
22590W        W41444  17.785   1.907  14.568 -0.3259 -0.5418 -0.2043
22591W        W41445   1.420   8.949  13.918  0.2825 -0.0627  0.4760
22592W        W41446  18.090   8.602  11.902 -0.1119 -0.0667  0.1085
22593W        W41447   9.027   1.260  13.715  0.4217  0.0792  0.1111
22594W        W41448  14.405  10.021  13.500 -0.0885 -0.0888  0.0736
22595W        W41449  16.267   5.731   0.688  0.1868  0.1161  0.0483
22596W        W41450  18.786  12.282   3.747 -0.1624 -0.4012 -0.0547
22597W        W41451   6.196   2.568  13.520  0.1606  0.4083 -0.0703
22598W        W41452  13.809   4.049   1.770 -0.0870 -0.2759  0.0303
22599W        W41453   7.877  13.037   0.008  0.0861  0.0389  0.1613
22600W        W41454   8.581  10.726   1.281  0.1405  0.0490 -0.4959
22601W        W41455   8.270  11.115   1.194  0.0215  0.2060  0.0435
22602W        W41456   4.074   1.271   4.667  0.2763  0.0960 -0.3626
22603W        W41457   7.129   7.119  15.028 -0.1822  0.1566 -0.0247
22604W        W41458   2.728  14.421  14.619  0.0552  0.0721 -0.1244
22605W        W41459  14.587  10.055  12.447 -0.3200 -0.1865 -0.0119
22606W        W41460   5.649  11.760   1.520  0.1015  0.0506  0.1163
22607W        W41461  11.210  17.641  11.561  0.0777 -0.1533 -0.3427
22608W        W41462  17.678   5.480  13.714  0.2214  0.1402  0.0320
22609W        W41463   2.216  15.854  10.898 -0.0067  0.2352 -0.3937
22610W        W41464  10.734   1.703  10.090  0.2886 -0.1711 -0.0092
22611W        W41465   9.347   2.665   3.609 -0.1518 -0.2268  0.2972
22612W        W41466   9.342  12.731  14.590  0.1238 -0.1197 -0.1283
22613W        W41467   1.757   7.817   2.134  0.2188  0.3420  0.2255
22614W        W41468  12.479  13.369   1.209  0.1780  0.2719  0.1051
22615W        W41469   4.052  17.291   4.238  0.0673  0.0906 -0.1824
22616W        W41470   0.545   2.095   2.876 -0.3201  0.1664 -0.1646
22617W        W41471  12.617   0.017  14.573  0.1817  0.0824  0.2741
22618W        W41472  12.069  18.407  12.832 -0.2239  0.2807  0.1753
22619W        W41473  16.304  10.578  11.141 -0.1583  0.1714 -0.3054
22620W        W41474   1.942   3.496  13.022 -0.1129 -0.0725 -0.1339
22621W        W41475  14.980   9.872   2.412  0.0569 -0.1056 -0.0118
22622W        W41476  18.752  14.067  11.258 -0.0856 -0.1267  0.2187
22623W        W41477  12.421   6.820   4.202  0.2168 -0.0571  0.3276
22624W        W41478  17.713  10.375  13.356 -0.0735  0.1519 -0.0184
22625W        W41479   8.305  15.185   3.185  0.1102 -0.3599 -0.2101
22626W        W41480   2.110   0.979  13.092  0.0000 -0.0750  0.3474
22627W        W41481  15.523  10.016   4.070 -0.1797  0.1352 -0.0149
22628W        W41482  15.549  15.610  13.102 -0.1215 -0.2022  0.0881
22629W        W41483   1.939   1.450   3.599 -0.0892 -0.0712 -0.0078
22630W        W41484  10.591   7.487   9.973  0.1822 -0.0097  0.2736
22631W        W41485   7.797  10.748   1.467  0.3595  0.0790  0.1222
22632W        W41486   9.254   3.941  12.095 -0.0243 -0.1768 -0.2992
22633W        W41487   0.507   4.775   5.031 -0.0304 -0.0792  0.0415
22634W        W41488  12.449   1.033  14.078 -0.1671  0.0664  0.0721
22635W        W41489  15.988   0.871   2.691  0.0461 -0.0309 -0.0180
22636W        W41490  14.680   8.663  11.049  0.1687  0.2069 -0.0571
22637W        W41491   5.027   9.389  14.369 -0.3311  0.0001  0.1585
22638W        W41492   5.332  11.367  13.608  0.1497  0.1044  0.0362
22639W        W41493   0.250   9.183   0.664 -0.2241 -0.0587  0.0521
22640W        W41494   5.202   2.821  11.072  0.2301  0.0655  0.0971
22641W        W41495   3.203  13.495  10.614 -0.1245 -0.0372 -0.0339
22642W        W41496   2.996  17.356   3.971 -0.1596  0.1623 -0.0034
22643W        W41497  10.959  12.724  11.905 -0.0473 -0.0659  0.0673
22644W        W41498  15.001  14.489   2.814  0.1261  0.1175  0.2312
22645W        W41499  15.536   9.859   1.156 -0.2918  0.0814  0.4537
22646W        W41500   7.515  12.761   3.781  0.0993  0.0408 -0.2587
22647W        W41501  13.871   1.009   1.143 -0.0029 -0.1502  0.2043
22648W        W41502  18.131  13.995  13.850  0.0255  0.2343  0.1618
22649W        W41503  14.232   8.305   4.317  0.1856  0.0758 -0.1919
22650W        W41504   0.506   5.601  12.949  0.0640  0.0003  0.2040
22651W        W41505   5.051   4.236  11.629  0.2147  0.1690 -0.2446
22652W        W41506   5.771   3.084   3.263  0.0335 -0.4652  0.3419
22653W        W41507   4.642   3.307   0.589 -0.1893 -0.0878  0.1269
22654W        W41508   1.441   1.244  13.091  0.1610 -0.0573 -0.1324
22655W        W41509   8.972  15.886  11.594  0.0636  0.0661 -0.1513
22656W        W41510   7.963   8.592  13.109 -0.1527 -0.1097  0.1149
22657W        W41511  13.573  15.364  14.645 -0.1899 -0.0482 -0.1253
22658W        W41512   4.697  15.829  12.957 -0.1425 -0.0305 -0.1244
22659W        W41513   1.731   4.872   0.100 -0.1410 -0.0988 -0.1004
22660W        W41514   8.757  16.902   0.057 -0.3530  0.2186  0.1102
22661W        W41515  13.854  16.357   1.939  0.0554 -0.0715 -0.1942
22662W        W41516   2.533   8.802  10.803  0.2633  0.0795 -0.0047
22663W        W41517  11.568   7.282  11.906 -0.0876 -0.1088 -0.0312
22664W        W41518   8.881   2.512   0.051  0.1116  0.2777  0.0036
22665W        W41519   9.860  13.256  12.166 -0.1052  0.2357 -0.1554
22666W        W41520   8.135   7.607   4.038  0.1693 -0.0593  0.1818
22667W        W41521   8.101   1.823   3.496 -0.1937 -0.0246 -0.4428
22668W        W41522   9.492   7.742   3.633 -0.0077 -0.2631  0.4262
22669W        W41523  15.697  12.623   1.425 -0.0446 -0.0184  0.0717
22670W        W41524  15.589  10.423   3.800 -0.0139 -0.3188  0.2172
22671W        W41525  12.281   3.636  14.458  0.2416  0.0295 -0.4645
22672W        W41526   0.866  18.488   4.301  0.1745 -0.5838  0.1167
22673W        W41527  18.639   7.905   0.592  0.1481 -0.0145 -0.0136
22674W        W41528  15.361  10.677   2.014 -0.1797 -0.2868  0.0579
22675W        W41529   4.412  18.257   1.205  0.0907 -0.1469  0.0289
22676W        W41530   2.062  11.264  13.062 -0.0478  0.1964 -0.1599
22677W        W41531   7.941   3.662  12.764 -0.1754 -0.1342  0.1174
22678W        W41532  16.865   4.359  13.731 -0.2665  0.0960  0.2360
22679W        W41533   0.510  15.634  13.005 -0.0421 -0.0063 -0.1015
22680W        W41534   4.616  10.767  12.030 -0.0285  0.0868  0.0383
22681W        W41535   1.724   0.048   0.298  0.1831 -0.1634 -0.0683
22682W        W41536   1.943  14.272  13.025  0.0790  0.2086 -0.0050
22683W        W41537   5.480  16.504   2.180 -0.2486  0.2087 -0.0131
22684W        W41538  13.107  11.628   3.461 -0.0065 -0.0941  0.2804
22685W        W41539   5.221  11.414   1.379 -0.1422 -0.0412 -0.0590
22686W        W41540   7.634   9.064  11.653 -0.2051 -0.0082  0.1072
22687W        W41541  14.758   0.769   0.942  0.4037 -0.1051 -0.3392
22688W        W41542   0.876  17.433  12.149 -0.1728 -0.1913  0.2109
22689W        W41543   6.115  10.530  10.840 -0.2684 -0.0319  0.4040
22690W        W41544  18.450  17.359   2.307 -0.1194 -0.0724 -0.2254
22691W        W41545   6.757   9.067  13.916  0.0293 -0.1906  0.3503
22692W        W41546   6.720   0.480   2.408 -0.1380  0.1083  0.0733
22693W        W41547   1.587  10.613   1.659 -0.1784  0.2914 -0.1334
22694W        W41548   9.478   9.523  13.201  0.2167 -0.1841 -0.2935
22695W        W41549  18.031  14.352  13.482 -0.1414 -0.0654 -0.0943
22696W        W41550  12.015   4.575   4.978  0.0265 -0.2681  0.1945
22697W        W41551  12.016  13.261   1.577 -0.2131  0.1613  0.1651
22698W        W41552  14.797   6.634  12.144 -0.0713  0.0385 -0.0346
22699W        W41553   3.308   0.464   2.935  0.2340 -0.2364  0.0429
22700W        W41554  18.744   6.072   3.056 -0.1375 -0.0066 -0.1380
22701W        W41555  16.017  11.866  14.029 -0.2933 -0.0620  0.1108
22702W        W41556  14.348  10.351  11.354 -0.1629  0.1739 -0.0408
22703W        W41557   2.203   7.844  10.685 -0.2329 -0.0244 -0.0381
22704W        W41558  10.072   4.885   1.633  0.1113  0.3596 -0.0341
22705W        W41559  11.824  14.692  10.899  0.0758  0.1155 -0.0962
22706W        W41560   7.870   6.004   4.336  0.1819 -0.0732  0.2000
22707W        W41561  13.511  16.525  14.943  0.0538  0.0265  0.2375
22708W        W41562  12.088   1.336  13.821  0.0395  0.3463  0.1607
22709W        W41563  16.329  12.995  12.015  0.4672  0.0265  0.1037
22710W        W41564   6.544  15.324   0.497 -0.1383  0.1117  0.2415
22711W        W41565  11.885  18.162  14.433 -0.1669  0.1261  0.0181
22712W        W41566   0.841   8.993   4.401  0.3725 -0.2851  0.3353
22713W        W41567  17.277  10.970   0.114  0.2097 -0.1251 -0.0716
22714W        W41568  11.234   4.886  13.265  0.0799 -0.2257 -0.1529
22715W        W41569   4.439  17.002  11.541 -0.0257 -0.6447 -0.0580
22716W        W41570  13.465  11.337   1.656 -0.1820  0.2008  0.0651
22717W        W41571  13.845   8.400   2.064 -0.0691  0.4955 -0.1270
22718W        W41572  11.665   8.273   1.969  0.3088  0.0482  0.1811
22719W        W41573   5.806   0.973   4.282 -0.3702 -0.0310  0.0677
22720W        W41574  18.613   8.169  11.350  0.0654 -0.0164 -0.3978
22721W        W41575  11.630   1.894  10.539 -0.0637 -0.3282  0.0652
22722W        W41576  13.262  17.094  12.856 -0.1576  0.2931 -0.0067
22723W        W41577  13.306   5.896  11.229  0.0737 -0.1540 -0.0850
22724W        W41578  14.530  16.615   5.143 -0.0828 -0.3070  0.1346
22725W        W41579   8.940   7.346   1.589 -0.3068 -0.3383  0.0880
22726W        W41580   6.570   0.579  12.429 -0.0587 -0.3943 -0.0136
22727W        W41581   8.406   6.911   1.067  0.1081 -0.1662 -0.0489
22728W        W41582   7.312  18.263   5.252  0.1001  0.1742  0.1924
22729W        W41583  11.896   9.343  12.328  0.3063  0.5627 -0.1419
22730W        W41584  17.948  15.245  14.295  0.0791 -0.4066  0.1991
22731W        W41585   9.977  16.537   0.776  0.0949  0.0497  0.1162
22732W        W41586   6.674   0.969  11.939 -0.0790 -0.3072 -0.1734
22733W        W41587   8.292   1.175   1.877 -0.2050 -0.3938  0.2408
22734W        W41588  13.359   3.438   3.319 -0.0123 -0.3368  0.0909
22735W        W41589   4.593   7.318  14.767  0.2148 -0.0501 -0.1322
22736W        W41590   2.570  17.240  10.658  0.0844  0.2249  0.0211
22737W        W41591   1.991   2.675   2.025  0.3694 -0.1389  0.1353
22738W        W41592  10.076   6.260  11.499  0.2321  0.1789  0.1225
22739W        W41593  14.957  15.587  11.156  0.1716 -0.0597 -0.1141
22740W        W41594   7.036   0.801  13.761  0.1986  0.3176 -0.1538
22741W        W41595  17.514  15.600   4.336 -0.0442 -0.0039  0.2808
22742W        W41596  12.987  11.909   0.091  0.3007 -0.0506  0.1012
22743W        W41597  14.826  15.108  13.662  0.2742  0.1294 -0.1006
22744W        W41598   9.246   9.107   3.633  0.1202  0.0887  0.0725
22745W        W41599  14.878  15.775   3.152  0.1940 -0.1045 -0.2318
22746W        W41600   7.217  11.573   4.224  0.0150 -0.0960 -0.0503
22747W        W41601   8.784  14.927  11.328 -0.2128  0.0289  0.3683
22748W        W41602   1.803  16.578  12.594 -0.1609  0.2800  0.0351
22749W        W41603  12.902   4.804   0.058  0.1967 -0.0403  0.1341
22750W        W41604  10.629  11.935  14.172 -0.1672 -0.0690 -0.1074
22751W        W41605   0.647   6.697  13.378 -0.0611 -0.1498  0.0562
22752W        W41606  12.515   2.826  14.377 -0.1266 -0.0903 -0.1621
22753W        W41607  18.632  10.816   3.717 -0.0472  0.1929  0.2106
22754W        W41608  14.814  13.659  14.798  0.0830 -0.1372 -0.2377
22755W        W41609  14.646  15.848  12.590 -0.2661  0.0745  0.0311
22756W        W41610  16.295   0.315   4.169 -0.0657  0.1959  0.1043
22757W        W41611   4.332  15.624  13.299 -0.0954  0.2770  0.1845
22758W        W41612  15.642   1.329  13.640  0.4072 -0.2750 -0.2459
22759W        W41613  12.634  17.662   1.248 -0.1923  0.2693  0.0635
22760W        W41614   3.828   9.840   2.458 -0.1831 -0.2917 -0.2056
22761W        W41615  14.189  16.309  13.209  0.2374  0.1413  0.1024
22762W        W41616  16.224  14.021   0.206  0.2121 -0.0886  0.2820
22763W        W41617  16.966   3.867   0.556 -0.2642  0.1379  0.0648
22764W        W41618   4.266   3.082   3.754 -0.0774  0.2758 -0.1753
22765W        W41619  16.532  10.655  14.374  0.1797  0.0022  0.1361
22766W        W41620  10.025  14.839   3.927  0.0190  0.0219 -0.1986
22767W        W41621   6.684  13.753   3.718 -0.0641 -0.0072 -0.2789
22768W        W41622  16.235  17.328  14.592 -0.0077  0.1164  0.1706
22769W        W41623   6.816  17.463   0.403  0.0852 -0.3104  0.1999
22770W        W41624   3.435  14.084   1.180 -0.0493 -0.0751  0.3118
22771W        W41625  14.489  18.821  11.929 -0.1545  0.0739 -0.1798
22772W        W41626   6.977   4.049  14.702  0.1675 -0.1266 -0.4189
22773W        W41627   6.929  10.987   1.783  0.1152  0.3332 -0.0328
22774W        W41628   5.838  18.811   2.950 -0.1899  0.1515  0.0964
22775W        W41629  12.571   4.267  10.637 -0.0812  0.0886 -0.0558
22776W        W41630   9.091  10.191  11.867 -0.3489 -0.3106  0.0298
22777W        W41631   8.653  10.196   2.905  0.0659 -0.0485 -0.0997
22778W        W41632  17.544   6.864  11.801  0.0459  0.3112  0.1216
22779W        W41633  14.760   0.578   3.055  0.0545  0.0467  0.3032
22780W        W41634  14.497   8.496  13.379 -0.1652  0.3264  0.0147
22781W        W41635   1.450  11.371   2.711  0.0097  0.0352 -0.3749
22782W        W41636   9.748  18.121   3.745 -0.4413  0.3051 -0.1196
22783W        W41637  13.505  12.768   2.883 -0.1078 -0.3606 -0.1799
22784W        W41638  17.561   1.677  15.116  0.1312 -0.0304 -0.1662
22785W        W41639  18.210   2.207   0.675  0.1818 -0.0353 -0.1840
22786W        W41640  17.495  11.715  14.017 -0.3133  0.0717  0.2106
22787W        W41641  10.804   9.689   1.482 -0.4190  0.0356  0.2707
22788W        W41642   0.354  10.068   2.858  0.2041 -0.0128  0.1944
22789W        W41643  13.715  15.934  13.226  0.1167 -0.0061 -0.4498
22790W        W41644  18.058  14.290   2.080  0.1884  0.1753  0.1237
22791W        W41645  16.883   8.588   0.957  0.0339 -0.3153 -0.1730
22792W        W41646  15.939  15.140  12.709 -0.0656 -0.2351 -0.1106
22793W        W41647  11.104   2.460   0.050 -0.0883 -0.1491  0.4429
22794W        W41648   8.660  17.795  14.672  0.0444 -0.0803 -0.3516
22795W        W41649  11.345  10.833   9.793 -0.1605 -0.1158 -0.1524
22796W        W41650   6.283   4.598  11.290  0.2833 -0.0210  0.1131
22797W        W41651  18.252   6.716   3.533  0.1174 -0.2067  0.1493
22798W        W41652   5.214   2.780   4.375 -0.1093 -0.0215 -0.1322
22799W        W41653   3.423   9.478  12.213 -0.1092 -0.0516 -0.1993
22800W        W41654   0.535  14.975   0.131  0.1779 -0.0421  0.2066
22801W        W41655   6.794   1.646  14.994 -0.0159  0.2281 -0.3000
22802W        W41656  11.396   9.053   0.356 -0.1892 -0.0067 -0.0282
22803W        W41657   1.116  18.474  12.960 -0.4206 -0.0452  0.4199
22804W        W41658  11.184   3.031  11.401  0.0123 -0.2607  0.0738
22805W        W41659  10.820   3.332   3.995  0.2874 -0.1318  0.0496
22806W        W41660  15.506   6.464   2.321  0.2190 -0.0236  0.1494
22807W        W41661  11.387   3.711  13.392  0.1566 -0.2330  0.1366
22808W        W41662   4.496   5.929   3.007  0.4373 -0.0057 -0.1014
22809W        W41663   1.925  16.924   2.447 -0.1002 -0.0918  0.0597
22810W        W41664  10.899   4.764   3.198  0.1312 -0.1223 -0.1960
22811W        W41665  16.148  12.750   2.849 -0.0490  0.1951  0.2473
22812W        W41666  16.003   9.178   4.066  0.0116 -0.0409  0.1278
22813W        W41667  17.778   8.079   2.272 -0.0340 -0.1228  0.0571
22814W        W41668  14.771   4.361   4.990 -0.2205 -0.0698 -0.1153
22815W        W41669   4.667   3.529  14.556  0.0940  0.1054 -0.0940
22816W        W41670  18.775  17.706   2.024 -0.2101 -0.4008  0.0366
22817W        W41671   1.360   6.427   3.336 -0.1572 -0.1343  0.4924
22818W        W41672  16.901   5.329   4.560 -0.0185 -0.0353  0.0297
22819W        W41673   5.946  10.075   0.421  0.1350 -0.2548 -0.1589
22820W        W41674   7.931   7.815   3.467 -0.1272  0.0565 -0.2767
22821W        W41675  18.294  13.176   3.992 -0.2275 -0.3423  0.1887
22822W        W41676  17.117  12.531  11.751 -0.1933  0.1464  0.0117
22823W        W41677  17.351  14.278   1.351  0.2688 -0.2494  0.1700
22824W        W41678  16.022  16.306  14.733 -0.0599 -0.0714 -0.2251
22825W        W41679   4.335   2.555  12.009  0.0264  0.0354  0.1111
22826W        W41680   4.720   9.924   1.004  0.0436  0.1561  0.0351
22827W        W41681  13.192   8.080  10.578  0.1433  0.1843 -0.3966
22828W        W41682  13.892  13.323   2.110 -0.0751  0.0361  0.1363
22829W        W41683  17.984  18.393  13.878 -0.1758 -0.3592  0.2898
22830W        W41684  15.498  17.984   1.374  0.1208 -0.2128 -0.1018
22831W        W41685   6.663   2.165  13.837  0.1650  0.1180  0.2413
22832W        W41686  16.289   7.018  12.956  0.1574 -0.0242  0.2165
22833W        W41687   4.895   4.580   5.699 -0.0639 -0.0974  0.2625
22834W        W41688   5.582  16.606  14.894  0.2065 -0.1892  0.0216
22835W        W41689   3.087   3.438  12.240 -0.2268  0.1709 -0.0424
22836W        W41690   1.162   2.195  14.656  0.0644  0.1321 -0.1355
22837W        W41691  17.153  15.763   1.725  0.1077 -0.2528  0.1191
22838W        W41692  11.871   6.070   2.660 -0.0989 -0.1939  0.0521
22839W        W41693   3.602  10.221  14.980  0.0894  0.0811 -0.1794
22840W        W41694   0.033   3.410  10.674  0.1645 -0.0794 -0.1072
22841W        W41695   9.259   1.308  12.370  0.0745 -0.0059 -0.2963
22842W        W41696   8.279  13.394   0.141 -0.2120 -0.4540  0.1325
22843W        W41697   7.201  13.776  12.398 -0.0876 -0.2680 -0.2787
22844W        W41698  11.138   2.301   2.618  0.1420  0.0979 -0.0422
22845W        W41699   1.282  11.134  10.353  0.0740  0.1305  0.0501
22846W        W41700   3.770  14.335  15.104 -0.0795 -0.1022  0.0835
22847W        W41701  15.239   3.126   1.597  0.0101 -0.1777  0.0673
22848W        W41702  18.662   4.214   4.080 -0.1963 -0.0538 -0.1908
22849W        W41703   8.986   6.125  13.614  0.1105 -0.0546 -0.0056
22850W        W41704   6.295   9.219  11.209 -0.0530  0.1367 -0.0482
22851W        W41705  15.610   9.502   4.701 -0.0726  0.4273 -0.1874
22852W        W41706  10.713   8.245  13.088  0.1728  0.1700  0.1441
22853W        W41707  15.497  17.763  12.845  0.1905  0.1881  0.1329
22854W        W41708  18.377  17.055   1.299  0.0826 -0.1616 -0.0232
22855W        W41709   0.858   3.293   3.461 -0.1645  0.1576 -0.2599
22856W        W41710   2.354   0.228   0.273 -0.1248  0.1933 -0.2415
22857W        W41711  11.083   5.161   2.951 -0.0538  0.0900 -0.1635
22858W        W41712  14.040   4.540   0.485 -0.0465 -0.2654  0.2141
22859W        W41713   1.729  10.501   2.495  0.2572  0.1642 -0.0688
22860W        W41714  12.038   8.148   3.568 -0.2049  0.0902 -0.0751
22861W        W41715   5.343  12.458   4.213 -0.1336  0.1633  0.1216
22862W        W41716   7.154  18.114   0.907  0.1004 -0.1768 -0.1203
22863W        W41717   6.440  14.587  10.867  0.1228 -0.2601  0.3217
22864W        W41718   2.657   3.108  14.181 -0.2735 -0.2901  0.0619
22865W        W41719  15.159  12.098  11.823 -0.2117 -0.1239 -0.1432
22866W        W41720  18.223   0.842   3.485 -0.0060  0.1010 -0.0294
22867W        W41721   6.182  12.149   2.687 -0.0972 -0.1231  0.2808
22868W        W41722   2.679   1.835  11.703 -0.2112 -0.0469 -0.0668
22869W        W41723   4.337  15.218  14.728 -0.0947  0.0762 -0.2609
22870W        W41724  18.090  10.165   4.171  0.0745 -0.1693  0.4024
22871W        W41725   1.532  12.164  14.684  0.2654 -0.3573 -0.2599
22872W        W41726  13.063  16.500   0.182 -0.0837 -0.0102  0.1842
22873W        W41727   1.913  13.857   1.660  0.1704  0.1106 -0.3424
22874W        W41728  16.743  13.709  10.199 -0.1529 -0.0283  0.1998
22875W        W41729  16.991  12.659  13.453  0.1944 -0.2552  0.0320
22876W        W41730  15.299   8.553   4.581  0.0656  0.0345  0.1976
22877W        W41731  11.893   4.897   3.043  0.1697 -0.0219 -0.1344
22878W        W41732   6.452   8.322  12.000  0.3264  0.1325 -0.1655
22879W        W41733  15.159   1.264   4.249 -0.0170  0.0417  0.1387
22880W        W41734   4.607   4.343   4.840 -0.0885 -0.2750 -0.3613
22881W        W41735   4.868  16.354  13.752  0.0703  0.2730 -0.0653
22882W        W41736   6.878   9.087   9.854  0.0849 -0.0892  0.0480
22883W        W41737   1.637   4.791   1.461 -0.0659 -0.2029 -0.1600
22884W        W41738  14.052  12.928   1.194 -0.0679 -0.1092  0.0219
22885W        W41739   2.408  13.795   3.554  0.0297  0.0122 -0.5644
22886W        W41740   6.575  11.349   5.236 -0.1121 -0.1956 -0.3676
22887W        W41741   6.586  13.583  13.532 -0.3364 -0.4022 -0.0545
22888W        W41742  11.860   1.886  12.327  0.1535 -0.1441  0.1485
22889W        W41743   5.745   0.069  12.937 -0.2072 -0.0426  0.1469
22890W        W41744   7.561   7.263  13.972 -0.0796 -0.0370  0.1248
22891W        W41745   8.010  11.005  14.699 -0.4421 -0.1435  0.1330
22892W        W41746   0.647  18.628  13.276  0.0918  0.1714 -0.0630
22893W        W41747   4.402  15.889   0.898 -0.0323  0.0130  0.0073
22894W        W41748   6.826   8.049   3.768  0.2004  0.2007  0.2155
22895W        W41749   7.862   8.705   3.671  0.2359  0.0782  0.2482
22896W        W41750   5.240   9.656   3.543  0.1386 -0.0544  0.1030
22897W        W41751   2.373  13.866  11.164 -0.0865  0.1808 -0.0710
22898W        W41752  14.289  12.690  10.208 -0.2591  0.1111  0.0103
22899W        W41753  16.771  15.416   1.680  0.0040  0.2766 -0.0914
22900W        W41754  13.023   8.983   3.616 -0.3900  0.3738 -0.1333
22901W        W41755   2.884  17.925  13.030 -0.2338 -0.0740  0.2990
22902W        W41756   6.626  15.268  12.669 -0.0918 -0.2417  0.1157
22903W        W41757   7.316   7.082   4.004 -0.0022  0.2720  0.0859
22904W        W41758  18.810   9.373  11.637  0.2082  0.0684  0.1623
22905W        W41759  10.754  15.135   2.396 -0.0849  0.1393 -0.0970
22906W        W41760  11.759   1.383  11.539  0.1945  0.0018 -0.1024
22907W        W41761  13.924   4.175   4.965 -0.0088  0.0190  0.0573
22908W        W41762  12.531   2.906   0.201 -0.1741 -0.2219  0.0151
22909W        W41763   0.559   3.963   3.960 -0.1168  0.2156 -0.2000
22910W        W41764  17.169  12.153  14.539 -0.0251 -0.1916  0.0946
22911W        W41765   2.676   0.902  14.445  0.3390  0.0767 -0.1011
22912W        W41766  16.217   3.320   1.920  0.0739  0.0370 -0.0368
22913W        W41767   2.635  12.127  11.720 -0.0948  0.0969  0.0384
22914W        W41768  13.328  12.772  11.750  0.1664 -0.0316  0.4901
22915W        W41769  15.262  14.815  14.057 -0.1979 -0.0269  0.2750
22916W        W41770   1.424   4.760  13.621  0.2027  0.0604  0.1771
22917W        W41771   2.010  15.221   0.289  0.0553  0.1397 -0.1329
22918W        W41772  16.735  18.581   1.088  0.4526  0.2425  0.1209
22919W        W41773   6.334  12.960   1.690  0.1718 -0.0411  0.0618
22920W        W41774   6.948  11.532   1.770 -0.1034 -0.0989 -0.0269
22921W        W41775  14.043  18.602  14.883 -0.0537 -0.0889  0.2819
22922W        W41776   3.808  10.381  14.548  0.4272  0.2852 -0.2547
22923W        W41777  18.103   7.775   1.938  0.0927 -0.1918 -0.2818
22924W        W41778  11.469   2.495   2.070 -0.2546 -0.2344  0.5058
22925W        W41779   7.939  13.849  13.510 -0.5044 -0.0067  0.0959
22926W        W41780   5.423   1.379  11.047  0.2222 -0.0681  0.0221
22927W        W41781  15.867  13.821  11.787  0.0080  0.2003  0.2241
22928W        W41782   3.515  12.795  12.365  0.1485 -0.0109 -0.0241
22929W        W41783   4.687  16.514  11.144  0.1984 -0.2490 -0.2895
22930W        W41784  16.247  13.215   2.646 -0.1494 -0.0197  0.0012
22931W        W41785   6.301  16.317  12.715 -0.0670  0.0369  0.2838
22932W        W41786  18.593   2.551  13.383 -0.2245  0.3213 -0.2151
22933W        W41787  16.152   3.836  11.830 -0.0420 -0.0353 -0.0392
22934W        W41788   0.700  12.066   0.017 -0.5469  0.0382  0.2135
22935W        W41789   5.295   0.249   1.318 -0.1763  0.0063  0.1795
22936W        W41790   6.419  14.122  12.899  0.0370 -0.3227  0.3336
22937W        W41791  18.079   3.622  13.937  0.0132  0.2758 -0.1236
22938W        W41792   1.007  18.267   0.987  0.1890 -0.3589  0.0038
22939W        W41793   9.025   3.803  11.641  0.0258  0.0784 -0.2744
22940W        W41794   8.900   7.843  14.792 -0.0122  0.0679 -0.0453
22941W        W41795   9.960   0.201  13.762 -0.0977 -0.1388 -0.0240
22942W        W41796   2.362   3.900   2.928 -0.1084 -0.1847 -0.0210
22943W        W41797  18.525   0.737   1.335 -0.4102  0.1824  0.1599
22944W        W41798   3.799  12.063   3.349  0.0306  0.1626 -0.1674
22945W        W41799   8.655  11.822   4.669 -0.1665 -0.0125 -0.0369
22946W        W41800  18.567   2.783  12.455 -0.1079 -0.0714  0.0159
22947W        W41801  12.960   4.719   0.502 -0.1462  0.1679 -0.1451
22948W        W41802   5.038   5.455  11.019 -0.1200  0.0621  0.1116
22949W        W41803  14.815   9.246   2.627  0.2743  0.0734  0.0440
22950W        W41804   2.017  13.588   0.452 -0.1039  0.0361 -0.1058
22951W        W41805   9.676   6.787   2.830  0.1979  0.1422  0.0855
22952W        W41806   9.577   8.536   3.405  0.0883  0.0420  0.1439
22953W        W41807   5.834  15.983   0.210 -0.0083  0.1727 -0.0186
22954W        W41808   9.301  12.817   3.704 -0.0333 -0.3221  0.2483
22955W        W41809  14.419  14.536   0.232  0.5254  0.0857  0.2411
22956W        W41810  11.105   0.034  12.293 -0.2798  0.2422 -0.1385
22957W        W41811   7.103  13.062  14.692  0.2004  0.0465  0.3675
22958W        W41812   6.876   4.652  12.024 -0.3355  0.0161 -0.0013
22959W        W41813  11.263   3.373  13.831 -0.0374 -0.0560 -0.1067
22960W        W41814   9.072   2.014  11.659  0.1998  0.2336  0.0111
22961W        W41815   3.147  16.526   2.995  0.1862 -0.0983  0.0598
22962W        W41816   6.835   1.374   0.320 -0.4455  0.1177  0.0363
22963W        W41817  13.765  16.880  12.056  0.3985  0.3099 -0.0795
22964W        W41818  10.466   2.952  11.500 -0.0808  0.0527 -0.1319
22965W        W41819  15.610   3.846  11.923  0.2564  0.0727  0.0684
22966W        W41820   7.042   7.290   0.724 -0.0070  0.1675 -0.1675
22967W        W41821  16.599   8.198   0.733 -0.0495  0.3306  0.1554
22968W        W41822   1.019   5.832  13.366  0.1040  0.2338  0.2595
22969W        W41823  17.803  14.977  13.330 -0.1500 -0.3230 -0.1327
22970W        W41824   5.264   8.195  13.858 -0.2825 -0.0521  0.2162
22971W        W41825   6.584   0.651  13.946 -0.0169  0.5665 -0.0040
22972W        W41826   7.421   9.495  14.431  0.0315  0.1820 -0.3632
22973W        W41827   3.165   6.730  13.659 -0.0816  0.1685  0.3152
22974W        W41828  16.421   8.262  13.832 -0.1025 -0.3089 -0.0601
22975W        W41829   4.175   3.445   2.019  0.1616 -0.1108  0.2151
22976W        W41830  17.240   6.947  10.850 -0.1175 -0.1104 -0.1377
22977W        W41831   8.268  18.139   0.665 -0.1266 -0.0678 -0.0359
22978W        W41832   8.192   3.194  12.760 -0.1094  0.2329  0.1197
22979W        W41833   2.733  14.418  11.948 -0.0923  0.2892 -0.2558
22980W        W41834  12.638   8.710   2.324 -0.0639 -0.2839  0.1998
22981W        W41835   4.434  10.183  12.695  0.2342  0.3027  0.1311
22982W        W41836  14.245   4.254   4.142 -0.0955 -0.0374  0.1563
22983W        W41837   2.870   6.359  12.310 -0.0244 -0.0258 -0.1543
22984W        W41838  13.343   3.262  11.330  0.1093  0.3782  0.0633
22985W        W41839  10.977   6.589  13.125  0.0387  0.1668  0.0667
22986W        W41840  15.453   8.766  11.303 -0.1816  0.1021 -0.3910
22987W        W41841  14.299   8.777   2.331  0.2643  0.5425  0.2936
22988W        W41842   6.048  12.518   3.485 -0.0531 -0.2784 -0.0113
22989W        W41843  14.914  17.217   1.625 -0.1329  0.3045 -0.0090
22990W        W41844  10.716  14.671  14.837 -0.0360  0.1804 -0.2488
22991W        W41845  18.704   7.916   3.612  0.0804  0.0763  0.0608
22992W        W41846   5.027  13.595  14.003  0.1511 -0.3379  0.0002
22993W        W41847   2.304   8.884   2.741 -0.1446 -0.0610 -0.1009
22994W        W41848  18.505  12.490   2.398 -0.3249 -0.1624  0.1016
22995W        W41849  18.098   4.105  14.666  0.0001 -0.0422  0.0135
22996W        W41850   3.307   2.780  11.587 -0.1589 -0.0794  0.2754
22997W        W41851   2.854  14.759  10.550  0.0810  0.0377  0.0611
22998W        W41852  14.034  14.383   2.502  0.1052  0.0458 -0.0147
22999W        W41853  14.561  12.705  13.062  0.2517  0.0707 -0.0825
23000W        W41854   3.221  13.268   0.877 -0.0157 -0.0941 -0.2362
23001W        W41855  17.467  11.912   5.249 -0.2340 -0.0291 -0.1760
23002W        W41856   6.414  17.491   0.964  0.0166 -0.2390 -0.1953
23003W        W41857   6.495  18.225   1.479  0.1004  0.0601 -0.0109
23004W        W41858   7.045  14.061   0.891  0.2075 -0.0559  0.1978
23005W        W41859  16.919   2.309   2.967  0.0817 -0.3213 -0.2712
23006W        W41860   9.685  17.542   4.646 -0.2405  0.3136  0.0885
23007W        W41861   9.316   6.326  13.985 -0.4017  0.1374  0.3070
23008W        W41862   3.094  14.041  12.736 -0.0174  0.0479  0.0382
23009W        W41863  14.720   6.291  11.051 -0.0683 -0.3157  0.0889
23010W        W41864   7.331   4.644   4.044  0.0086  0.3900  0.2779
23011W        W41865  13.671   7.416   4.149  0.2023  0.0871  0.2094
23012W        W41866  12.843  15.749  10.319 -0.1626  0.1288 -0.0023
23013W        W41867  17.653  16.328  12.518 -0.3346 -0.4757 -0.1148
23014W        W41868   6.377  13.427  10.876 -0.0502 -0.0686  0.0697
23015W        W41869   0.877   4.108   2.651 -0.1789  0.1807  0.0244
23016W        W41870  14.133   6.467  14.581  0.3145 -0.0229  0.0106
23017W        W41871  11.095  11.249   4.650 -0.1076  0.1036 -0.0637
23018W        W41872   6.998   2.164   4.021 -0.0053 -0.0359 -0.0817
23019W        W41873   6.979   4.244   2.577  0.0228  0.0019  0.0503
23020W        W41874   2.931   4.926  11.713 -0.1330  0.3509  0.1633
23021W        W41875   7.993   3.017  10.403 -0.1390  0.0459 -0.3617
23022W        W41876  13.570  15.630  12.815 -0.0321 -0.0177  0.0123
23023W        W41877  13.637  14.655  13.379  0.0636  0.1074 -0.0319
23024W        W41878  17.271   1.362   0.257  0.0571  0.1088 -0.1695
23025W        W41879  13.054   6.681  11.004  0.1414 -0.0857  0.3490
23026W        W41880   5.583   4.580  13.775  0.1282 -0.1188 -0.1540
23027W        W41881   8.000   0.047   0.965  0.0384  0.0862 -0.0892
23028W        W41882   8.909   2.544  12.230 -0.4118 -0.0508 -0.2240
23029W        W41883  14.901  18.576   4.380 -0.0499  0.1594 -0.2827
23030W        W41884   5.640   4.066  13.818 -0.3070 -0.2612 -0.2115
23031W        W41885  16.253  14.022   1.126 -0.1375 -0.1124  0.0263
23032W        W41886  14.564   4.630  13.895  0.0767 -0.6464 -0.0535
23033W        W41887   4.424   4.515   3.724 -0.0603  0.1623 -0.1916
23034W        W41888  17.708  13.713   0.706 -0.1758 -0.2274  0.1135
23035W        W41889  10.815   5.767   5.360  0.1555  0.0076  0.0380
23036W        W41890   1.114   0.325   1.683  0.1175 -0.0456  0.1172
23037W        W41891  12.573  10.250   2.959 -0.0739  0.0037  0.1310
23038W        W41892  16.039   8.836  14.305 -0.0484 -0.1896 -0.0902
23039W        W41893  12.000  15.553  13.661  0.1244  0.1219  0.0253
23040W        W41894   4.370  14.771   3.652 -0.2892  0.1658  0.0736
23041W        W41895   3.723  18.193   2.552  0.0678 -0.3207 -0.0988
23042W        W41896  14.545  11.928  13.632  0.0576 -0.0812  0.0029
23043W        W41897  10.988  16.473  10.881 -0.0321 -0.0800  0.2130
23044W        W41898  18.279  14.436  14.343 -0.2446  0.2328 -0.1335
23045W        W41899   3.579   1.417   4.061 -0.1948 -0.1474 -0.2506
23046W        W41900  15.035   0.561   1.345  0.0097  0.1478 -0.3090
23047W        W41901  16.052  18.249   3.053  0.1074  0.1927 -0.0429
23048W        W41902   2.502   2.775  13.242  0.2720  0.1675 -0.2338
23049W        W41903  12.167   7.103   3.352  0.1980 -0.1776  0.1465
23050W        W41904   5.736   6.922  15.112  0.1283  0.1090 -0.2075
23051W        W41905  12.520   7.409   3.018 -0.3260  0.1599 -0.2107
23052W        W41906   8.165   4.925   2.734  0.2059 -0.0102  0.0899
23053W        W41907   3.184   4.915   0.473 -0.1096 -0.1474  0.3164
23054W        W41908   4.070   0.007   3.836 -0.1760  0.0237  0.0824
23055W        W41909   4.540  14.968  11.187 -0.2162  0.3293  0.0331
23056W        W41910   0.472   6.804  10.627  0.0116 -0.1095  0.1480
23057W        W41911   2.059   1.756   1.733  0.0228  0.0174  0.1227
23058W        W41912  11.547   5.855   1.255 -0.3712  0.1515  0.1322
23059W        W41913  13.431  17.435  11.433 -0.0018 -0.1329 -0.1060
23060W        W41914  11.422  14.057   0.633  0.2832 -0.1314  0.2177
23061W        W41915   1.704   6.674   4.142 -0.0710 -0.0441  0.0020
23062W        W41916   1.781  18.496   0.638  0.1245  0.0398 -0.4533
23063W        W41917   6.818  12.798   1.411  0.0937 -0.3947  0.0345
23064W        W41918   5.266  15.201  12.341 -0.1385  0.0694 -0.1206
23065W        W41919  13.051  13.402  11.706 -0.2327  0.0360 -0.1622
23066W        W41920   3.079  14.277   4.311  0.2180 -0.2967 -0.1464
23067W        W41921   8.523  14.139   1.216 -0.2153  0.3048  0.0137
23068W        W41922  18.021   4.066   1.480  0.0180 -0.0860 -0.3640
23069W        W41923  16.878  11.511   2.401  0.0927  0.2011 -0.0396
23070W        W41924  11.119  12.644  13.619  0.0646  0.1731  0.2851
23071W        W41925  13.943   9.559  11.297  0.1608  0.1339  0.0117
23072W        W41926  14.057   5.029  11.105  0.2623 -0.1673 -0.0861
23073W        W41927   8.270  11.062  12.456  0.0475 -0.1115  0.2659
23074W        W41928   0.786   6.257  13.279  0.2519  0.2878 -0.0833
23075W        W41929   3.847   2.606   0.829 -0.2194 -0.1224 -0.0899
23076W        W41930  11.604  16.309  13.835 -0.1801 -0.0218  0.1055
23077W        W41931  13.809  16.980  12.920 -0.0654  0.1089 -0.2002
23078W        W41932   9.560  15.966   2.502 -0.1193 -0.0585 -0.1326
23079W        W41933   3.112  14.936   2.440  0.1706  0.2900  0.0531
23080W        W41934   4.392   1.306   0.421 -0.0530 -0.1913 -0.4380
23081W        W41935  14.765   1.803   0.601 -0.0171  0.2942  0.2860
23082W        W41936  14.954   1.972   2.019 -0.0435  0.0888 -0.0590
23083W        W41937   2.135   2.382   2.501 -0.3771 -0.0600 -0.3897
23084W        W41938   5.282  15.621  11.918 -0.1511 -0.0756  0.1986
23085W        W41939  11.137   9.366   2.332 -0.0324 -0.3193  0.0753
23086W        W41940   0.499   4.492   2.032  0.1189  0.5533  0.1646
23087W        W41941   5.572   8.651  13.801 -0.0875 -0.1993 -0.2367
23088W        W41942  16.542  13.838  12.249 -0.0236  0.2003 -0.1179
23089W        W41943   6.601   9.532  14.769  0.0062 -0.0954  0.2185
23090W        W41944  13.035   7.077   3.708 -0.1439 -0.1311  0.0284
23091W        W41945   4.655  10.085   3.062 -0.0271 -0.1356 -0.0239
23092W        W41946  16.192   7.444  14.377  0.1468  0.4510  0.0508
23093W        W41947   4.578  13.386  12.556  0.2244 -0.2885  0.0318
23094W        W41948   0.548   4.406   0.939 -0.1020  0.1759  0.0627
23095W        W41949   6.013   1.764  12.531  0.0809 -0.0333 -0.0780
23096W        W41950  15.335   4.801   0.512 -0.2987  0.2514 -0.0113
23097W        W41951  11.167   7.525   3.348 -0.2605 -0.2093  0.0183
23098W        W41952   0.435   4.359   2.886  0.0717 -0.0937 -0.1248
23099W        W41953  16.033  10.925  14.156 -0.0174  0.0735  0.0111
23100W        W41954   6.216   5.245   2.268  0.1756 -0.2554  0.0732
23101W        W41955   2.225   3.369  14.241 -0.2830  0.1677  0.0394
23102W        W41956   6.741   8.369  13.244  0.1685  0.2513 -0.0214
23103W        W41957   9.704   3.334   3.152 -0.1236 -0.0819 -0.0864
23104W        W41958   6.401   9.995  13.853 -0.3043 -0.0405  0.0509
23105W        W41959  13.934  10.322  13.227 -0.1719 -0.1082 -0.1555
23106W        W41960  15.564   0.709  13.702 -0.0093  0.1285 -0.0415
23107W        W41961   5.692   9.516   3.793  0.1340 -0.3023  0.1858
23108W        W41962   1.851   7.295  14.175  0.2712 -0.0868  0.0562
23109W        W41963   6.979   3.003   3.455 -0.0765  0.0125  0.2399
23110W        W41964   3.100   5.138  13.744  0.0785 -0.0824 -0.1140
23111W        W41965   4.001   6.297  14.063  0.1153  0.0203 -0.0377
23112W        W41966  10.106   2.543  11.676 -0.1731  0.1118 -0.2552
23113W        W41967  16.917  18.126   4.590 -0.0682 -0.1226  0.4628
23114W        W41968   0.398   3.331   4.636 -0.0786  0.0798  0.2301
23115W        W41969   9.075  17.253   4.363 -0.1516 -0.0845  0.1953
23116W        W41970  12.557   6.995  13.098  0.2790 -0.0841 -0.0746
23117W        W41971   1.316   5.976  13.813  0.2106  0.0021 -0.0347
23118W        W41972  18.516   1.876   1.757  0.0947 -0.0756 -0.0806
23119W        W41973  13.682  17.474  13.104 -0.3149  0.0579  0.2665
23120W        W41974  15.007  15.223   3.216 -0.2088 -0.3651  0.1448
23121W        W41975  11.322  10.594  10.777 -0.1929 -0.0513 -0.1902
23122W        W41976   4.457   7.993   1.469 -0.1051 -0.2359 -0.1130
23123W        W41977   8.154   5.762  12.896 -0.0668 -0.1605  0.0196
23124W        W41978  11.814   1.861   1.715 -0.1066 -0.1376  0.1374
23125W        W41979   3.664   7.458   2.274 -0.1721 -0.0138 -0.0340
23126W        W41980  10.402   5.865   1.484  0.2326  0.1149  0.2621
23127W        W41981   7.857  18.423  11.539 -0.1352 -0.1686 -0.0323
23128W        W41982  13.311   0.758   0.217  0.2565  0.0120  0.1862
23129W        W41983   0.073   9.073   2.402  0.0720  0.0045  0.1186
23130W        W41984   0.848  13.835  12.748  0.0075 -0.2159  0.0751
23131W        W41985   6.543  13.488  11.777  0.1029  0.3284  0.2953
23132W        W41986   5.784   4.563  11.000 -0.0778  0.2300  0.1227
23133W        W41987  15.665   0.614   2.389  0.0470  0.1195  0.0238
23134W        W41988  10.204   4.091  13.677  0.2618 -0.0591 -0.0818
23135W        W41989  18.555   5.590   4.186  0.0337 -0.1502 -0.0177
23136W        W41990   8.586  15.617   2.046 -0.0339 -0.2361 -0.2148
23137W        W41991  16.391   7.144   3.327 -0.3366  0.3791 -0.1190
23138W        W41992   6.118   6.406  14.536 -0.3209  0.1810 -0.0789
23139W        W41993   8.437   1.037   5.912 -0.0076 -0.0353  0.1441
23140W        W41994   9.305  12.707  11.446  0.0832  0.2314 -0.0095
23141W        W41995   9.430  17.637   4.215 -0.1274  0.5154  0.0335
23142W        W41996   6.305  11.811  14.960  0.1179  0.1729  0.0125
23143W        W41997  17.333   1.242  11.074  0.2489 -0.0376 -0.6328
23144W        W41998   1.514   1.672   2.416  0.0876  0.1648  0.0223
23145W        W41999   9.870  12.545   2.309  0.0661  0.1272  0.0870
23146W        W42000  10.805   5.813   3.457 -0.1015  0.0774 -0.1764
23147W        W42001  13.095   7.929  11.034  0.1654 -0.0160 -0.0383
23148W        W42002  14.589  16.279  12.956  0.0953  0.1904 -0.4346
23149W        W42003   9.344   3.460  13.572  0.0855  0.0212 -0.1468
23150W        W42004   6.074   7.350  13.701 -0.4407 -0.1857 -0.1707
23151W        W42005  18.763  15.323   2.732 -0.0898 -0.0880 -0.0102
23152W        W42006  16.458  11.899  13.173 -0.0990  0.1574 -0.4151
23153W        W42007   3.422   1.611   2.303 -0.1337  0.1959  0.1998
23154W        W42008  10.517   9.827  11.097  0.0864 -0.0199 -0.3716
23155W        W42009   6.504   6.265  13.617 -0.3136 -0.2861  0.2034
23156W        W42010   3.099   5.262  12.549 -0.3216  0.0123  0.1858
23157W        W42011  17.277   2.006   3.200 -0.3769  0.1912 -0.0557
23158W        W42012  12.487  13.731  12.541  0.2446 -0.0945  0.0973
23159W        W42013  12.221   9.989  12.951  0.1161  0.1422  0.1189
23160W        W42014  17.699   0.185   2.336  0.1150  0.1722 -0.0941
23161W        W42015  15.119  10.188   3.699 -0.2708 -0.2650 -0.0760
23162W        W42016  16.267   4.954   3.117 -0.0969  0.0287  0.3688
23163W        W42017  15.329  12.847   0.738 -0.0099 -0.2854 -0.3248
23164W        W42018  15.827   6.938  11.082  0.0735  0.1945  0.1371
23165W        W42019   0.657   5.379  13.446  0.2337  0.0113 -0.0625
23166W        W42020  15.824  18.518   0.254 -0.3441  0.1103  0.2487
23167W        W42021  13.131   6.658   3.944  0.0058  0.0821  0.2667
23168W        W42022  10.791   2.621   4.491  0.0819  0.0733 -0.1963
23169W        W42023   1.671   3.319  10.742 -0.0610 -0.4123 -0.0666
23170W        W42024   6.808   8.166   0.769  0.1542  0.2191 -0.1034
23171W        W42025   1.966   6.241  14.376 -0.1528 -0.4738 -0.0370
23172W        W42026   2.088   5.175   2.318  0.0199  0.0934 -0.4337
23173W        W42027  16.632  13.102   3.020  0.0832 -0.0386 -0.2225
23174W        W42028   4.457   8.971  12.351 -0.0945  0.0973 -0.2683
23175W        W42029   6.171  18.255  13.282 -0.2404 -0.1242 -0.1168
23176W        W42030  13.798  15.370   0.543 -0.1621 -0.0677  0.1590
23177W        W42031  13.378  10.397   0.854  0.2634  0.1213 -0.2154
23178W        W42032   7.403   8.362   0.968 -0.1375  0.1113 -0.1460
23179W        W42033  14.953  18.282   1.157  0.3370 -0.0052 -0.3233
23180W        W42034   0.109   3.696  11.403  0.2297 -0.1804  0.3862
23181W        W42035   0.117   1.462   1.482  0.0261  0.1296 -0.1277
23182W        W42036   3.084  10.154   9.591  0.2099  0.2930  0.0275
23183W        W42037   0.682   9.270  14.908 -0.1697  0.1846 -0.0456
23184W        W42038  17.753  11.652   1.680  0.1428  0.2602  0.1119
23185W        W42039  14.153  14.061   1.494  0.2800 -0.3402  0.3582
23186W        W42040   0.954   6.831   0.909  0.1728  0.1657  0.0958
23187W        W42041  16.056   9.606   0.603 -0.1088  0.1342 -0.2075
23188W        W42042  10.889  13.148   2.964  0.3143 -0.1595  0.3393
23189W        W42043   8.706   1.741  14.003 -0.1725  0.3506  0.0205
23190W        W42044   0.187  13.755  14.640 -0.3863 -0.2359  0.2444
23191W        W42045  10.549   0.144   3.225  0.1355  0.0700  0.0105
23192W        W42046   9.372   6.119   0.555  0.1109  0.0616  0.0395
23193W        W42047   5.831   9.376  14.819  0.0233  0.2185 -0.1980
23194W        W42048  13.338   4.609  12.694 -0.1516  0.0107 -0.1387
23195W        W42049   1.624   5.748   3.893  0.0648 -0.0418 -0.4340
23196W        W42050   2.124  16.070  13.398  0.2395  0.0788  0.0971
23197W        W42051   7.561   5.714  12.995  0.2087  0.1686  0.3434
23198W        W42052   8.067   9.110  10.641 -0.2498 -0.1894  0.1525
23199W        W42053   0.481  16.654  12.111 -0.0437 -0.4160  0.0117
23200W        W42054   2.150  17.375   2.449  0.0439  0.0873  0.3090
23201W        W42055   2.294  10.048  13.551 -0.1361  0.1714 -0.2795
23202W        W42056   5.542  11.545  14.048  0.0632 -0.4283 -0.2747
23203W        W42057   8.810  17.111  11.186  0.1638 -0.3730  0.0270
23204W        W42058  16.801  12.466   2.317  0.2300  0.2543  0.2127
23205W        W42059   0.349  13.806   0.021 -0.1394  0.4702 -0.0700
23206W        W42060   0.723   4.539   2.467  0.0794 -0.0227  0.1552
23207W        W42061  12.242   4.560   3.377 -0.2106 -0.1324 -0.0940
23208W        W42062   7.756   4.078   3.250 -0.1647 -0.1353  0.0171
23209W        W42063   5.070   1.007   2.269  0.1935 -0.1039  0.0131
23210W        W42064  13.960   9.884   0.844 -0.1499  0.1333 -0.1908
23211W        W42065   1.290  13.117   0.371  0.1573 -0.0269  0.0000
23212W        W42066   3.394  11.808  11.022 -0.2684  0.1585 -0.0517
23213W        W42067  15.555   7.856   1.515 -0.1962  0.3915 -0.0539
23214W        W42068   1.783   3.467  14.489 -0.1901  0.1427  0.0196
23215W        W42069  10.581   8.736  14.785  0.0644  0.1884  0.0143
23216W        W42070  18.533   6.939   2.283  0.1825 -0.2086  0.1580
23217W        W42071  17.449   6.366  13.036  0.0367  0.3391 -0.1699
23218W        W42072  12.866  10.395   4.292 -0.0536 -0.1257 -0.1264
23219W        W42073  14.229  16.626  11.862  0.1227 -0.0824  0.5367
23220W        W42074   5.866  14.112   3.234 -0.2632  0.2605  0.0291
23221W        W42075   8.142  16.229   2.836  0.1085 -0.1694  0.1554
23222W        W42076   5.394   9.773   1.600 -0.0690 -0.0893 -0.1963
23223W        W42077   6.973   0.432   0.813  0.2040  0.0013  0.0656
23224W        W42078   0.219   6.221   2.091  0.0146 -0.0142 -0.0307
23225W        W42079   7.524  12.361  12.252  0.2810 -0.0527 -0.2623
23226W        W42080  14.866  15.407   4.082 -0.0989 -0.3270 -0.0388
23227W        W42081   1.040   8.715  11.459  0.2565  0.0586  0.2988
23228W        W42082   2.399  18.209   3.105  0.2303  0.0686  0.0421
23229W        W42083  11.190   0.383  13.158 -0.1928 -0.1249 -0.2314
23230W        W42084   8.117   1.813   2.001 -0.0644  0.0291 -0.1762
23231W        W42085   9.030   7.127  13.583  0.0223  0.0137  0.0551
23232W        W42086  15.587  10.949   3.943 -0.0469 -0.0669 -0.0761
23233W        W42087   0.045   1.987  11.503 -0.2026 -0.1520 -0.0286
23234W        W42088  15.087   2.312   4.253 -0.2849 -0.3815 -0.2096
23235W        W42089   2.234  13.005  10.999 -0.3494 -0.3129  0.0647
23236W        W42090   7.897   7.092  11.186 -0.0928 -0.2345  0.0260
23237W        W42091  16.207  13.069  11.481  0.0438  0.0915 -0.0649
23238W        W42092  11.588  11.411   2.690  0.0578  0.0034  0.4587
23239W        W42093  14.861   4.688   1.170  0.2597  0.3436  0.2242
23240W        W42094  15.774  12.760  14.316 -0.0888  0.0728 -0.4187
23241W        W42095  13.166  18.504   2.593  0.2019  0.1665  0.0137
23242W        W42096   7.803   1.784   2.965  0.4573 -0.3544  0.0923
23243W        W42097   3.583  14.493  11.601 -0.1365 -0.0112 -0.0823
23244W        W42098  10.457  14.636   4.085  0.1104  0.2424  0.0957
23245W        W42099  17.760   6.176   3.921 -0.1272 -0.0193  0.0042
23246W        W42100  17.649   7.792  12.853  0.1829 -0.0624  0.1176
23247W        W42101  13.632   5.332  13.226 -0.0440  0.1465  0.0054
23248W        W42102   4.219   6.449   0.430  0.1057  0.0738 -0.1440
23249W        W42103  16.703  10.255   0.486  0.1523  0.0060 -0.0505
23250W        W42104  17.933  13.437  13.196  0.0915 -0.3144  0.1189
23251W        W42105  16.257   0.690  11.912  0.1961 -0.0562 -0.2995
23252W        W42106  10.086   3.400   2.630 -0.1332 -0.3705 -0.1964
23253W        W42107   7.305   3.483  13.876 -0.1789  0.1453  0.2862
23254W        W42108  18.498   5.234  11.838  0.1234 -0.0036  0.2480
23255W        W42109  10.731  16.494   3.686 -0.0606 -0.1554  0.0997
23256W        W42110   9.127  11.438  14.120 -0.0681  0.3930 -0.2396
23257W        W42111   9.490   7.114  13.245  0.0782  0.1166 -0.1657
23258W        W42112  16.749  11.073   0.131  0.4268 -0.1107 -0.0171
23259W        W42113  10.918  15.003   3.295  0.1844 -0.1792  0.0612
23260W        W42114  11.638  14.556  12.069 -0.0995 -0.0197  0.2149
23261W        W42115   7.866   4.871   0.752 -0.0990  0.1760 -0.0421
23262W        W42116   1.300   6.784  11.020 -0.0026  0.2804  0.0197
23263W        W42117   3.945   5.485  11.646  0.1116  0.0389  0.0046
23264W        W42118  11.762   9.115  11.622 -0.2442  0.3013 -0.1792
23265W        W42119  10.039  18.128   2.043 -0.0544 -0.0157  0.1508
23266W        W42120  17.314  10.679   2.043 -0.4119 -0.2795 -0.0928
23267W        W42121  12.891  13.905  14.265 -0.2278  0.2990 -0.2370
23268W        W42122  17.290   4.064   1.029  0.0380 -0.1684 -0.0384
23269W        W42123  13.071  14.000   1.485  0.1630 -0.3742  0.2384
23270W        W42124  10.956   4.361   1.150  0.0781  0.3200 -0.0039
23271W        W42125  15.466   9.779   2.202 -0.0549  0.1562 -0.2942
23272W        W42126   7.239  10.038   0.872 -0.2228 -0.1976 -0.1132
23273W        W42127   3.747  11.748  12.672 -0.0280  0.0629 -0.0149
23274W        W42128  17.665   8.729   2.760 -0.0670  0.0570 -0.0853
23275W        W42129   0.951  13.676  12.009 -0.2562 -0.3062 -0.0715
23276W        W42130  15.456  17.180  10.758  0.0545  0.1086  0.2941
23277W        W42131  17.681   9.042   0.732  0.0062  0.1392 -0.1275
23278W        W42132  12.623   4.507   1.427 -0.2322  0.2204 -0.0562
23279W        W42133  18.658  11.155   3.329 -0.1594 -0.1137 -0.0893
23280W        W42134  17.730  15.020   1.625  0.2009  0.0763  0.0304
23281W        W42135   6.791   4.154   0.877  0.1884  0.0683 -0.1557
23282W        W42136   9.503  13.237   3.406  0.1556  0.0533 -0.0781
23283W        W42137  16.154   6.988   3.790  0.0135 -0.1079 -0.2339
23284W        W42138  18.207  13.895  13.276 -0.1433  0.1158 -0.4494
23285W        W42139  17.468  12.653  13.703  0.5768  0.1681  0.1177
23286W        W42140   3.559   4.100  12.732  0.0328 -0.0742 -0.0040
23287W        W42141  16.891   7.669  12.863 -0.3451  0.1811  0.1785
23288W        W42142  18.560   9.921  13.631 -0.0469  0.0783 -0.2912
23289W        W42143  15.575  15.784   3.762  0.2148 -0.3494  0.0584
23290W        W42144  12.789   8.417  14.477  0.2756 -0.0091 -0.2005
23291W        W42145  10.174   8.696   3.879 -0.0144 -0.0834 -0.0677
23292W        W42146  14.999   7.947   3.777  0.0786 -0.2588 -0.2428
23293W        W42147   3.345   9.215   1.403 -0.0117 -0.0108  0.0484
23294W        W42148  11.956  16.707   0.265  0.0959  0.0970 -0.0404
23295W        W42149   7.391   1.410  10.404  0.1449 -0.1125  0.1975
23296W        W42150  10.518  14.704  10.480  0.0188  0.3044  0.0089
23297W        W42151   9.133   6.015   2.623  0.0007 -0.1450  0.1648
23298W        W42152   6.976   1.047   4.235 -0.2321 -0.0304  0.4565
23299W        W42153   4.202   2.478   1.627  0.0339 -0.0776 -0.2894
23300W        W42154  15.674   7.975  12.754 -0.0665 -0.2124 -0.1728
23301W        W42155   3.230  10.588   9.443 -0.0080  0.1983  0.3954
23302W        W42156   2.763   3.847  12.268 -0.0403  0.1803  0.2425
23303W        W42157  10.436  13.742  12.908 -0.1213 -0.0175 -0.0249
23304W        W42158   0.400   6.105   0.885  0.2236 -0.1794 -0.4141
23305W        W42159  10.617   1.123  10.071  0.0203 -0.1637  0.1964
23306W        W42160  18.812   4.536  12.342  0.4139  0.0129 -0.0175
23307W        W42161  18.779  13.290   3.846  0.0070 -0.1977  0.1720
23308W        W42162  17.615   8.403  10.484 -0.0645 -0.1772  0.0701
23309W        W42163  11.942   6.060  11.375  0.0675 -0.2747 -0.0610
23310W        W42164  18.286   1.457  12.133  0.1740  0.1140 -0.0026
23311W        W42165   5.204   0.161   0.750 -0.2427  0.2024  0.0113
23312W        W42166  16.833  17.834  11.296 -0.2614  0.0985 -0.1194
23313W        W42167  16.369   2.119   2.661  0.1928 -0.1862  0.0806
23314W        W42168   0.749   5.820  10.834  0.1385 -0.2536 -0.4361
23315W        W42169   1.335   0.329  11.118 -0.1846 -0.0608  0.2185
23316W        W42170  13.652   2.905  12.486 -0.2394  0.1686  0.1422
23317W        W42171   6.241  12.949  10.708 -0.1615 -0.2780 -0.0346
23318W        W42172   7.731   7.918  12.484  0.1681 -0.0211  0.0584
23319W        W42173  14.031   1.335   0.747 -0.1474  0.0246  0.2443
23320W        W42174   6.584  16.774   2.096 -0.0444  0.0260 -0.0407
23321W        W42175  13.956   1.540  11.758 -0.1481  0.1365 -0.3734
23322W        W42176   0.944   5.847  11.304  0.1016 -0.4284 -0.1736
23323W        W42177   7.786   8.189  12.901 -0.1702  0.1837 -0.1606
23324W        W42178   3.171  14.315  14.284 -0.0426 -0.0819 -0.1724
23325W        W42179   0.729  12.763  13.080  0.2736 -0.0723  0.3428
23326W        W42180  15.325   5.639   4.447 -0.2524  0.2555 -0.0783
23327W        W42181   2.260   6.806   3.719  0.1724  0.2192 -0.2742
23328W        W42182   5.748  10.185   2.332 -0.3574 -0.2199  0.1613
23329W        W42183  12.101   2.406   1.546 -0.1069  0.0318 -0.0159
23330W        W42184   0.927  18.203   3.774  0.2108  0.2542 -0.1284
23331W        W42185   1.096  13.001  14.639  0.1091 -0.0091  0.3278
23332W        W42186  10.147   5.022  12.489  0.0485 -0.0646 -0.3674
23333W        W42187   8.620  17.667  13.867  0.1784 -0.0317 -0.0201
23334W        W42188   3.071   6.944  11.080 -0.1888 -0.1487 -0.0900
23335W        W42189  10.886   1.129  14.219  0.2612 -0.2340 -0.0461
23336W        W42190  14.196  18.827   4.936  0.0219  0.2877  0.1582
23337W        W42191  17.813   9.718   0.069  0.1404  0.0466 -0.0764
23338W        W42192   8.963  13.779   1.934  0.0170  0.0631 -0.0736
23339W        W42193  13.882   3.683   1.327 -0.2539  0.1792  0.2134
23340W        W42194  11.872   1.683   4.768 -0.1235  0.1221  0.0133
23341W        W42195   1.848   7.226  12.609 -0.1895  0.3863  0.1054
23342W        W42196  14.213   1.158   3.153 -0.0621  0.2562  0.0823
23343W        W42197   2.656  14.164  14.178 -0.0674  0.2731  0.0485
23344W        W42198   6.680   7.032   0.391 -0.2049  0.1853  0.2301
23345W        W42199   4.117  11.379   2.609  0.1679 -0.0465  0.1194
23346W        W42200  16.701   5.374   1.553  0.0880  0.0057  0.2090
23347W        W42201  12.718   4.756   3.146 -0.2153  0.0712  0.2537
23348W        W42202  15.889   6.753  14.260  0.0838 -0.0116 -0.1512
23349W        W42203  13.775  12.120   4.117 -0.1491 -0.1149 -0.0653
23350W        W42204  18.172  18.666   3.586  0.0177 -0.2197 -0.1500
23351W        W42205   7.741   0.150  13.555  0.1690  0.1835 -0.1032
23352W        W42206   4.260   5.004   1.135  0.0651  0.2165 -0.1549
23353W        W42207   2.375   1.883  13.594  0.0927 -0.1421  0.0153
23354W        W42208  18.787  15.706   5.589  0.1546  0.0829 -0.1629
23355W        W42209  13.571   7.133  13.068 -0.2269  0.1904 -0.0128
23356W        W42210   2.396   7.149  14.249 -0.1194  0.0919  0.1408
23357W        W42211   7.961   6.834   0.711 -0.1369  0.1640  0.2594
23358W        W42212   4.694   7.984   3.862  0.4967 -0.2197 -0.2253
23359W        W42213  10.473   0.964   3.830  0.3245  0.1653  0.0975
23360W        W42214  13.725  11.606   2.362 -0.2429  0.1743  0.1512
23361W        W42215   4.579  12.313  11.121 -0.2501 -0.1043  0.0095
23362W        W42216   3.846   4.712  12.364  0.2392  0.0213 -0.0934
23363W        W42217   4.588   5.926   1.688  0.1962  0.0462 -0.1606
23364W        W42218   9.390  17.525  10.758  0.1222  0.3956  0.0262
23365W        W42219   3.492   2.685   4.212  0.1471  0.2236  0.2586
23366W        W42220  15.221  17.183  13.378  0.0889 -0.2204  0.1707
23367W        W42221   1.367   5.067  10.315 -0.0435 -0.0255 -0.0029
23368W        W42222   4.088   3.574   3.065  0.0794 -0.0606 -0.1447
23369W        W42223   2.937  10.814   0.579  0.2092  0.0273 -0.1066
23370W        W42224  11.980   1.730  14.227 -0.2920 -0.2156 -0.0383
23371W        W42225  14.099   3.677  12.146  0.0674 -0.0280 -0.2406
23372W        W42226  18.407   5.052  14.917  0.1721  0.0214  0.0774
23373W        W42227   3.928   7.054  12.587  0.0461  0.0171 -0.1431
23374W        W42228   3.941   7.256   1.330  0.3862 -0.2659  0.1589
23375W        W42229  12.993  15.798   0.463  0.0524 -0.1186 -0.0769
23376W        W42230  16.157   6.752  11.995 -0.0229 -0.1596 -0.1735
23377W        W42231  15.945  13.814  13.429 -0.0260 -0.3761  0.0076
23378W        W42232   8.848   6.151  14.086 -0.3679  0.0851 -0.3272
23379W        W42233   1.887   9.950   3.355  0.0520 -0.2985 -0.1371
23380W        W42234  10.173   3.791  14.625  0.4356 -0.1204 -0.0129
23381W        W42235   2.905  14.051   9.515  0.2249 -0.0714  0.0015
23382W        W42236   2.841   8.433  13.546 -0.0636  0.0442  0.2261
23383W        W42237  10.742  15.185   0.465  0.0160 -0.1467  0.0262
23384W        W42238   9.339  14.485  10.023  0.0535  0.1845 -0.0257
23385W        W42239   1.117  16.960  11.879  0.1168  0.1246  0.3469
23386W        W42240   2.905  16.375  14.224 -0.3218 -0.2021 -0.1472
23387W        W42241  12.205   9.189   0.634  0.0940 -0.0030 -0.2853
23388W        W42242   0.675   6.585   2.497  0.0002  0.1138  0.0945
23389W        W42243  17.320   7.880  11.897 -0.1081 -0.3485 -0.0493
23390W        W42244  17.599  14.554  13.136  0.0449 -0.0202 -0.3424
23391W        W42245   7.657  10.644   0.874  0.2647  0.0248 -0.0157
23392W        W42246  17.415  16.636  11.358 -0.0843  0.1831  0.0100
23393W        W42247   0.341  17.923  12.541 -0.0757  0.2120 -0.2840
23394W        W42248  17.440   7.247   3.616  0.3222  0.0582  0.2460
23395W        W42249  15.182   2.749   0.181  0.1198  0.2500  0.4937
23396W        W42250   9.897   1.309   3.920 -0.0765  0.0845 -0.0749
23397W        W42251  16.624   6.122   0.634  0.2028 -0.1408  0.2518
23398W        W42252  11.660  12.313  10.653  0.1292  0.0524  0.2002
23399W        W42253  13.079   2.866  11.574 -0.0628 -0.0205  0.1904
23400W        W42254  18.621  15.807  10.690  0.0285 -0.0722  0.2229
23401W        W42255   8.004   1.310   0.060 -0.0896 -0.1872  0.0250
23402W        W42256  16.429   2.228   1.003 -0.2579  0.0478 -0.0628
23403W        W42257   9.144  13.981  13.761  0.2521 -0.1095 -0.0465
23404W        W42258   1.661   0.480  10.734  0.0423 -0.1527  0.0307
23405W        W42259  12.756   9.433  12.029 -0.1845  0.0600  0.0180
23406W        W42260   4.314  12.155   1.207 -0.4205 -0.0684 -0.0285
23407W        W42261   7.372   2.911   3.812  0.1002  0.0703  0.0182
23408W        W42262   2.549  14.896   4.301 -0.0380  0.1209  0.0301
23409W        W42263  11.300   7.816  14.189 -0.2147 -0.0021 -0.0546
23410W        W42264   7.024   6.300  14.810  0.1793 -0.0724 -0.1982
23411W        W42265  16.316  13.596   4.153  0.0809 -0.1386 -0.0952
23412W        W42266  18.102   3.073  14.742  0.0676  0.0506 -0.1093
23413W        W42267   1.848  17.170  11.353 -0.1885 -0.0315 -0.1656
23414W        W42268   5.717   2.893  11.225  0.2662  0.0534  0.1882
23415W        W42269  15.821  17.478  12.481  0.0423 -0.1717 -0.0388
23416W        W42270  13.687  17.144   1.311 -0.2533  0.3077  0.0481
23417W        W42271   5.050  10.173   0.739  0.3294 -0.0301 -0.3958
23418W        W42272  10.690  18.476  12.956 -0.1131 -0.0086 -0.2819
23419W        W42273   0.986   2.496   1.069 -0.1015 -0.0510 -0.1853
23420W        W42274  13.452  12.805   0.512 -0.0510 -0.1063 -0.1246
23421W        W42275   6.347  14.139   3.098 -0.1268 -0.1119  0.2935
23422W        W42276   7.532   8.357   4.933 -0.0686  0.2271 -0.0330
23423W        W42277   6.520  14.780   0.241  0.3294  0.3651 -0.0945
23424W        W42278  14.918  11.206  13.421  0.0764 -0.1883 -0.2866
23425W        W42279  13.028   1.429  12.204 -0.2365 -0.0553  0.0829
23426W        W42280   9.928  11.432  11.375  0.1469  0.0376 -0.1473
23427W        W42281  15.102   2.047   2.499 -0.0344 -0.0621 -0.1108
23428W        W42282  11.085  11.778  14.618 -0.1081 -0.0331  0.1427
23429W        W42283   0.198   4.908  14.239 -0.0788 -0.2305 -0.3240
23430W        W42284   5.571   8.602  12.991 -0.4891  0.0254  0.2105
23431W        W42285   4.047   4.378  11.345  0.1613  0.0594  0.2316
23432W        W42286  16.457  14.075  14.407  0.3547  0.1014 -0.1159
23433W        W42287   7.445   9.474   4.144 -0.1409 -0.2729  0.0758
23434W        W42288  10.463   3.021  10.927 -0.0284  0.3288  0.2527
23435W        W42289   2.340   5.130  13.513  0.0752  0.0729 -0.0686
23436W        W42290  16.971  16.820   4.498 -0.1290 -0.4286 -0.0757
23437W        W42291   5.403   4.958   3.301 -0.1933 -0.0390 -0.0562
23438W        W42292   3.781   6.475   3.954  0.2693 -0.0073 -0.0354
23439W        W42293   1.204   9.441   1.496 -0.2650 -0.1312 -0.0511
23440W        W42294   9.795   4.339  13.835 -0.0909  0.0742 -0.1371
23441W        W42295   1.112   5.437   0.795  0.0583  0.2841  0.1088
23442W        W42296   5.155   3.005  15.047  0.1951  0.0966 -0.0081
23443W        W42297  13.325   2.909   0.023 -0.2493 -0.0563 -0.1896
23444W        W42298  10.278   5.325   2.093  0.1492 -0.1442  0.2562
23445W        W42299   5.656   3.781  12.008  0.1593  0.0131  0.0329
23446W        W42300  14.609   7.625  14.049 -0.0594  0.0941  0.1264
23447W        W42301   6.000   8.524  14.017  0.0069  0.0748  0.0305
23448W        W42302   6.428   4.551  14.300  0.1077 -0.1185  0.0033
23449W        W42303   4.055  17.306   0.222  0.1090 -0.1969  0.0345
23450W        W42304   6.907  17.410  12.694  0.4120  0.0889 -0.2788
23451W        W42305   8.707   5.725  13.778  0.1219 -0.0797 -0.1542
23452W        W42306   7.014   8.449  14.089 -0.4012 -0.1349 -0.0994
23453W        W42307   3.321  13.244  12.691  0.1682 -0.1060 -0.0801
23454W        W42308   4.071   1.001  10.791 -0.1461 -0.0076  0.0114
23455W        W42309  14.754  12.374  13.437  0.1310  0.0751 -0.2417
23456W        W42310   1.272   5.515  13.076  0.3460  0.1922 -0.0174
23457W        W42311  18.100   9.088  13.598  0.3263 -0.1712 -0.0472
23458W        W42312   6.575  12.007   3.936  0.1207  0.1562  0.1543
23459W        W42313   8.716   6.427   1.870  0.2902 -0.0954 -0.1053
23460W        W42314   5.396  17.754   0.723  0.0741 -0.1720  0.3476
23461W        W42315   2.062  11.309   3.622 -0.3867  0.1289  0.1657
23462W        W42316   5.798   2.776  12.848 -0.1475 -0.1593  0.1306
23463W        W42317   0.757   4.150  11.918  0.1871  0.0953 -0.0328
23464W        W42318  15.160  10.695   3.891  0.1141 -0.0023 -0.0547
23465W        W42319  14.204   2.730  11.786  0.0234  0.1727 -0.0984
23466W        W42320   4.209   8.965  13.778 -0.0036  0.0668  0.0244
23467W        W42321   9.878   9.824   0.637 -0.1996  0.1107  0.1607
23468W        W42322   6.064  13.736   0.869  0.1207  0.2470 -0.1143
23469W        W42323   7.643   2.206   2.714  0.3531 -0.1837 -0.1523
23470W        W42324  18.713  16.123  14.294  0.1850 -0.1125  0.1221
23471W        W42325   1.380  15.070  10.774  0.3527  0.4391 -0.0700
23472W        W42326  12.848  14.463   0.767  0.0210  0.0237  0.0265
23473W        W42327  18.179   1.164  13.038 -0.0713 -0.2826  0.0838
23474W        W42328  10.174   4.781   4.734  0.2283 -0.3372  0.0424
23475W        W42329  15.071  14.662   4.553 -0.2684 -0.3359 -0.0025
23476W        W42330   1.208  11.843  15.052  0.2020  0.2250  0.0564
23477W        W42331   4.197   5.622  12.070 -0.1778  0.1220  0.2889
23478W        W42332  12.019  14.023  15.024 -0.2714 -0.3251  0.4237
23479W        W42333   8.057   7.018  14.831 -0.1249  0.0673  0.0449
23480W        W42334   4.642   3.209   2.486  0.0171  0.1775 -0.0675
23481W        W42335   3.209  10.526   1.076 -0.1581  0.0752  0.2693
23482W        W42336   0.237   1.918  14.294 -0.0735 -0.0410  0.0334
23483W        W42337  18.844   8.832  12.270  0.2252 -0.0473  0.4395
23484W        W42338  16.194  11.515  11.577 -0.1945  0.0237 -0.1206
23485W        W42339   4.012   5.419  10.099 -0.1307  0.3825 -0.1258
23486W        W42340  10.478   3.388  11.720  0.0343  0.1961 -0.3157
23487W        W42341  14.035   2.126   0.017 -0.0785 -0.1030  0.4082
23488W        W42342  16.696  16.379   0.137 -0.5542 -0.3154 -0.3522
23489W        W42343  14.383  11.123   0.598 -0.0826 -0.1593  0.0437
23490W        W42344   2.709  10.525  12.474 -0.0983  0.1190  0.2507
23491W        W42345   9.806   6.425   0.237  0.1796  0.1715 -0.1079
23492W        W42346   3.936  11.667  11.788  0.2640  0.0383  0.1648
23493W        W42347  15.336  13.525  14.936  0.2052  0.1757 -0.0571
23494W        W42348   8.277  15.268   0.665 -0.0081  0.0408  0.0903
23495W        W42349   3.472   0.617   0.044  0.1260 -0.1356  0.2549
23496W        W42350  15.028  13.554   3.963  0.2206 -0.0613  0.2847
23497W        W42351   3.438   7.095  14.072 -0.1796  0.2823  0.1582
23498W        W42352   3.325   3.738  11.453 -0.0495  0.1073 -0.2185
23499W        W42353   2.776  13.122  10.798  0.0552  0.3298 -0.1990
23500W        W42354   1.552  15.942   2.240 -0.2665  0.0071 -0.2257
23501W        W42355  10.095  17.279   3.748  0.3458 -0.0363  0.2355
23502W        W42356   1.999   9.279   0.938 -0.1287  0.0928  0.1239
23503W        W42357   2.998   3.461   2.328  0.1075 -0.0775 -0.0663
23504W        W42358  10.730   3.380  10.597 -0.4065 -0.4340  0.2335
23505W        W42359   9.788  16.047   3.355 -0.1530 -0.1869 -0.4194
23506W        W42360   9.309  12.631  15.124  0.1068  0.3473  0.0849
23507W        W42361   2.151  15.376   2.767  0.0390 -0.1027 -0.0806
23508W        W42362   7.735  11.790   0.694 -0.3111  0.1172 -0.0214
23509W        W42363   1.311  12.882   2.697 -0.1727 -0.0075  0.0303
23510W        W42364   6.462   1.117   4.123  0.0749 -0.2190 -0.0134
23511W        W42365   0.583   4.581   3.674  0.2750  0.3918 -0.0150
23512W        W42366   3.204   3.789  11.019 -0.0499 -0.0307  0.0330
23513W        W42367   4.336   3.675  11.352 -0.1318 -0.1852 -0.0085
23514W        W42368   9.683  15.695  11.172 -0.0443 -0.0438 -0.0794
23515W        W42369  16.582  16.194  13.979  0.1386 -0.0095 -0.0485
23516W        W42370   8.109  17.295   0.564 -0.0462  0.1397 -0.0355
23517W        W42371  14.210  12.033   2.186 -0.0490 -0.3233  0.0560
23518W        W42372  15.883   7.796   1.142  0.3431 -0.0156  0.0356
23519W        W42373  11.628   0.403   0.302 -0.2123  0.2871 -0.0311
23520W        W42374  16.468  13.031   1.743 -0.1022 -0.4705 -0.1151
23521W        W42375   1.942   9.822  14.778 -0.1414 -0.0406 -0.1320
23522W        W42376  11.054  13.861   4.819  0.0103  0.4401  0.1331
23523W        W42377  18.419   0.444  12.693 -0.1464  0.0001 -0.1218
23524W        W42378   3.277   9.470   5.041 -0.0067  0.1236  0.0945
23525W        W42379  17.792  10.099  11.863  0.1238  0.2882  0.0989
23526W        W42380  17.879   2.604  13.073 -0.0856 -0.2361  0.0976
23527W        W42381  16.162  18.246   2.571 -0.1658 -0.2254  0.1575
23528W        W42382   0.061  10.751  13.143 -0.2107  0.0689  0.1434
23529W        W42383  14.184   0.662  14.266 -0.2213 -0.0978 -0.0798
23530W        W42384   5.813  11.331   0.607 -0.1543 -0.0253  0.1266
23531W        W42385   2.638  11.149   2.036  0.2362 -0.0481  0.1627
23532W        W42386  13.692  18.715   4.848 -0.1330  0.0298 -0.3709
23533W        W42387  13.028   3.059   1.292  0.1224 -0.1231 -0.0960
23534W        W42388   2.263   9.756   3.122  0.2155  0.1240  0.1183
23535W        W42389   5.248   0.645   3.659  0.1297  0.0449  0.0808
23536W        W42390  15.881  14.317  15.125  0.0657 -0.0200 -0.1867
23537W        W42391  12.126   6.219  14.547  0.0416  0.3607 -0.2138
23538W        W42392  10.248  17.089   2.951 -0.0277  0.0852 -0.1103
23539W        W42393   8.119  17.102  14.461 -0.0783  0.2066  0.0034
23540W        W42394  11.203   0.629   0.299 -0.1973  0.1225  0.1881
23541W        W42395   7.823  12.774  12.001  0.0172  0.3514 -0.1426
23542W        W42396  10.200   2.995  14.362 -0.1664 -0.2884  0.1309
23543W        W42397  16.322  16.030  15.108  0.1151 -0.3146  0.0769
23544W        W42398   9.484  12.579   0.463 -0.0044 -0.1417 -0.1529
23545W        W42399  16.069  12.067   2.928  0.1034  0.1123 -0.1585
23546W        W42400   1.386  15.560  11.623 -0.3081  0.1376 -0.0586
23547W        W42401  11.612  13.843  11.392  0.2460  0.1569  0.2469
23548W        W42402  13.533   0.633  12.412  0.0550 -0.2389  0.3112
23549W        W42403   5.064   8.207  11.950 -0.2655  0.1496 -0.0991
23550W        W42404  16.366   2.323  12.339 -0.2883 -0.4900 -0.0283
23551W        W42405   1.664   1.937   4.260  0.0940 -0.0764 -0.0501
23552W        W42406  18.368  14.915  11.368  0.0600  0.1404 -0.4991
23553W        W42407   8.866   6.793  12.458  0.3186  0.0989 -0.0774
23554W        W42408  16.363  14.700  13.268 -0.0608 -0.4736  0.0141
23555W        W42409   9.597   2.226   3.678  0.0254  0.3220  0.2320
23556W        W42410  15.205   2.139   1.552 -0.3239  0.1054  0.0870
23557W        W42411  10.113   7.658   0.180  0.1692 -0.0545 -0.0025
23558W        W42412   6.217   5.223  13.347  0.1539  0.0414 -0.2055
23559W        W42413   5.560   7.731   1.885 -0.0298  0.2804 -0.0589
23560W        W42414   1.986  12.179  12.941  0.2866  0.1052 -0.1308
23561W        W42415   0.315   7.078  13.264 -0.1049 -0.4722 -0.1285
23562W        W42416   4.174   4.221  13.588  0.0070  0.0078  0.2274
23563W        W42417   3.985  15.313  15.046 -0.1767 -0.1487  0.2051
23564W        W42418   8.362   4.653   3.973 -0.1687 -0.1174 -0.1668
23565W        W42419  17.476   1.618  11.463 -0.1164 -0.0974  0.1935
23566W        W42420  12.628  10.738  12.742 -0.0784 -0.0422  0.3435
23567W        W42421   3.976   3.275   1.579 -0.1371  0.3802  0.2070
23568W        W42422   6.244   9.871  14.710  0.3071 -0.0806 -0.2137
23569W        W42423  14.035   6.179   9.912  0.0187  0.2374  0.0701
23570W        W42424   0.513   9.648  14.520 -0.2775  0.1314 -0.1094
23571W        W42425   7.727  16.645   2.280 -0.1419 -0.2322 -0.3027
23572W        W42426   1.723   3.868   0.444  0.1028 -0.1630 -0.0137
23573W        W42427   3.507   0.568  14.656  0.2005 -0.0043  0.2188
23574W        W42428  10.456  10.739   4.057  0.0497  0.0135 -0.0246
23575W        W42429   1.131   5.393  14.524  0.1102  0.0797 -0.0721
23576W        W42430  16.265   2.948   1.446  0.2770  0.1711  0.1890
23577W        W42431   9.429  17.145   3.979  0.1266  0.0112 -0.0902
23578W        W42432   3.734   3.966  13.705  0.0835  0.0457  0.2431
23579W        W42433   7.751   9.098  12.663  0.0201  0.0555  0.1824
23580W        W42434  11.247   1.629   4.137 -0.3433  0.0016  0.0508
23581W        W42435   9.940   3.919   1.428 -0.1436 -0.0700  0.0116
23582W        W42436   6.096  15.722  14.292 -0.2039 -0.0816 -0.2058
23583W        W42437  12.764  16.256   0.567 -0.0650  0.1252  0.0513
23584W        W42438  17.589   8.356  14.781  0.1234 -0.3513 -0.1618
23585W        W42439   4.803   3.282   1.368  0.2618  0.1048 -0.1085
23586W        W42440  12.088   4.500   3.858  0.0229  0.2247 -0.5734
23587W        W42441  17.298   7.424  13.032  0.0415 -0.0014  0.2753
23588W        W42442   0.708  15.966  14.980 -0.0866  0.0116  0.0336
23589W        W42443  14.193   7.575   3.896 -0.1435 -0.2086 -0.1478
23590W        W42444  12.456   8.121  12.274  0.0454  0.0621  0.2645
23591W        W42445   8.183  16.604   5.527  0.0952 -0.0658 -0.0984
23592W        W42446  12.095  11.670  12.553  0.3513  0.1173  0.1614
23593W        W42447  13.527  11.335   3.659  0.0952  0.2433  0.0926
23594W        W42448   9.617  14.443   3.902  0.4919  0.3075  0.1278
23595W        W42449  11.961  16.483  12.972  0.0915 -0.1724 -0.2619
23596W        W42450   4.692   2.041  14.996  0.0784 -0.0781 -0.0096
23597W        W42451  17.036   8.430  14.451  0.0872 -0.0278 -0.0744
23598W        W42452   6.025  16.306   0.507  0.0894 -0.2018  0.0101
23599W        W42453   6.729  18.794  11.768  0.0765  0.0928  0.3384
23600W        W42454  14.733  13.398   1.131  0.0367 -0.1885  0.1277
23601W        W42455  16.205   6.153   3.623 -0.1122 -0.3620  0.2272
23602W        W42456  10.807   0.017  13.153  0.0078 -0.1566 -0.4123
23603W        W42457   1.095  14.756   1.834  0.1619  0.3381  0.4177
23604W        W42458  10.501  12.238  11.336  0.0101 -0.1282  0.0692
23605W        W42459   7.960   2.953  13.405  0.0673  0.0582  0.0353
23606W        W42460   8.807  16.130   3.880 -0.1763 -0.0140 -0.3972
23607W        W42461   0.947   1.661  12.727 -0.2155  0.1632 -0.2132
23608W        W42462  15.532   9.769   1.676  0.0900 -0.1282 -0.0733
23609W        W42463   0.014   6.081   2.504 -0.0006 -0.1467 -0.1144
23610W        W42464   7.984  13.451   4.415  0.0412 -0.3599  0.0181
23611W        W42465  13.625   4.778   2.846  0.0261  0.2711 -0.1976
23612W        W42466   4.525   6.223  11.352  0.2210 -0.0470  0.0326
23613W        W42467  13.451   8.911  15.013  0.0884  0.0250 -0.3143
23614W        W42468   8.366   4.557  11.962  0.5328 -0.1366  0.0562
23615W        W42469   3.886  18.122  12.674 -0.2407 -0.1629 -0.0320
23616W        W42470  17.066   7.038  10.356  0.1402  0.0623  0.0516
23617W        W42471  10.188   4.572   0.585 -0.0249  0.0425 -0.1289
23618W        W42472   1.136   9.906   1.207  0.1210 -0.1019  0.3023
23619W        W42473   6.903   1.706   4.201  0.0307  0.2617  0.1975
23620W        W42474  10.309  10.953  14.360  0.1679  0.0365  0.0706
23621W        W42475  15.999   2.631   2.545  0.1684  0.1928  0.0170
23622W        W42476  13.983  12.040   2.623 -0.0118  0.3402 -0.3658
23623W        W42477   8.646  15.700  11.946  0.3435 -0.1267 -0.1325
23624W        W42478   6.075   8.915   1.641 -0.0631  0.1894 -0.1071
23625W        W42479   5.684  15.210   2.381 -0.2841 -0.3811  0.2130
23626W        W42480  14.893  11.694   3.381  0.1944  0.0005 -0.3592
23627W        W42481  12.781   3.429   4.591  0.2258 -0.0586 -0.1476
23628W        W42482  17.026  14.053  14.547 -0.1058  0.1253 -0.4640
23629W        W42483  18.798   8.479   3.162 -0.1005 -0.0512 -0.1805
23630W        W42484   9.818   5.801   4.607  0.1757  0.2936  0.1543
23631W        W42485   9.099   3.835   1.253  0.1909 -0.0239  0.1484
23632W        W42486   4.823   4.925   3.984  0.5333 -0.2596  0.2072
23633W        W42487  13.359   9.583  12.519 -0.0451 -0.3130  0.0181
23634W        W42488   7.979  18.364  14.108  0.2071  0.0446 -0.1899
23635W        W42489  18.736   6.965   4.800 -0.1074 -0.0837 -0.2195
23636W        W42490  13.060   9.936  12.696 -0.2505 -0.0682 -0.0323
23637W        W42491  14.939  16.500   2.885  0.2929 -0.0402  0.0962
23638W        W42492  17.368  15.250  13.427  0.2007  0.3360 -0.0248
23639W        W42493   0.309  13.484   3.629 -0.2027 -0.1728 -0.0359
23640W        W42494  17.169  18.699  12.447  0.1791 -0.3075  0.0521
23641W        W42495  15.281   4.883   3.305 -0.2865 -0.0578  0.2466
23642W        W42496  16.196  13.019  12.564  0.0711 -0.2104  0.0882
23643W        W42497   6.750   1.022   0.024 -0.0124 -0.1278  0.3178
23644W        W42498   5.487  14.715  13.092  0.0174  0.2113 -0.0645
23645W        W42499   0.718  12.180  13.121 -0.2898 -0.1432 -0.1276
23646W        W42500  16.722  14.237  13.027  0.3015 -0.2480 -0.1423
23647W        W42501   9.736  10.149   4.345 -0.4173 -0.1609 -0.0754
23648W        W42502   4.094  14.451  12.472  0.3807  0.1876  0.1717
23649W        W42503  11.148  18.268  13.014  0.2440  0.1706 -0.1251
23650W        W42504   1.483   6.010  11.231  0.5855  0.1720 -0.0256
23651W        W42505   5.939   0.248  11.260  0.0021 -0.2200 -0.0485
23652W        W42506  11.025  15.107   1.908  0.0400  0.1085 -0.0015
23653W        W42507   7.978  12.619  14.587 -0.1934 -0.0437  0.0142
23654W        W42508   4.257  12.548   0.839 -0.1086 -0.1314 -0.1461
23655W        W42509  12.368  14.469   2.511 -0.1332  0.1250 -0.3077
23656W        W42510  11.399   3.900   3.380  0.0479  0.1393  0.1406
23657W        W42511  11.868   1.444  10.460 -0.1832  0.0409  0.0149
23658W        W42512   9.517  16.088  12.333 -0.1443 -0.1091 -0.1553
23659W        W42513  15.641  10.211  11.232  0.2639 -0.0761 -0.4478
23660W        W42514  14.484  13.421  14.162  0.0073  0.1790 -0.0676
23661W        W42515   0.465   9.862   2.027  0.1089 -0.2158  0.2904
23662W        W42516  15.302  17.747  14.204  0.0659  0.3672 -0.2068
23663W        W42517  10.124  13.485  11.261 -0.0186  0.1211 -0.0524
23664W        W42518   0.747  16.284   1.562  0.1928  0.3477  0.0300
23665W        W42519  14.302   1.151  14.149 -0.4143  0.0814  0.1361
23666W        W42520   1.922   1.404   0.325  0.0741  0.0376  0.0636
23667W        W42521   4.194   0.548   3.518  0.1367  0.0738  0.3197
23668W        W42522   8.445   6.466  11.487 -0.1467  0.3148 -0.1243
23669W        W42523  10.973  18.536   0.635 -0.0678 -0.0077 -0.0627
23670W        W42524   2.129   1.169   4.019  0.3441 -0.1608 -0.0497
23671W        W42525  10.410  16.480  15.040  0.2096 -0.1953  0.1765
23672W        W42526   9.826   5.512  12.341 -0.0158  0.0390  0.0665
23673W        W42527   0.681   6.809  14.789 -0.2864  0.1351 -0.2357
23674W        W42528   0.959  15.984  11.565 -0.2086 -0.0839  0.1251
23675W        W42529  15.843   8.719   4.067  0.1761 -0.4261  0.3122
23676W        W42530  15.160   9.048   1.294 -0.0901  0.1889  0.0951
23677W        W42531  13.432   5.295  14.434 -0.1758 -0.0143 -0.0422
23678W        W42532   0.611   8.897   1.556  0.0284 -0.1336  0.1155
23679W        W42533  12.343  17.244   2.467 -0.0799 -0.2265  0.2354
23680W        W42534  12.974   1.356   1.257 -0.0965  0.0271  0.1832
23681W        W42535   7.268   6.380  12.073 -0.0949 -0.1166  0.1411
23682W        W42536  13.989  18.437  12.404  0.1579  0.1274  0.1989
23683W        W42537   8.284   6.740   1.949 -0.0085 -0.1393 -0.0189
23684W        W42538  10.896   6.682   2.991  0.0644  0.1136 -0.2561
23685W        W42539  18.806  14.039   0.853  0.2937 -0.1769 -0.0405
23686W        W42540  18.723   1.300  14.950 -0.2330  0.2361  0.1534
23687W        W42541   1.093   0.195   3.659 -0.3188  0.3301 -0.1128
23688W        W42542   2.239   5.680  12.450 -0.1551 -0.2181 -0.4044
23689W        W42543   1.226   8.093   0.930  0.0173 -0.2078 -0.1762
23690W        W42544  14.420  11.332  10.787  0.0919 -0.2285 -0.4471
23691W        W42545   6.232  18.077  13.761  0.1995  0.0918 -0.2133
23692W        W42546   5.905   4.821  13.563  0.0205 -0.0497  0.2082
23693W        W42547  18.074   5.022  14.172 -0.0994 -0.4067  0.0364
23694W        W42548   0.391  11.106   2.660  0.0678 -0.0623 -0.0723
23695W        W42549   2.904   1.489   1.515 -0.0875  0.2310 -0.0919
23696W        W42550  11.314  10.258  13.213  0.2987  0.3630  0.2136
23697W        W42551   3.119  18.378   0.560 -0.1789  0.0193 -0.1234
23698W        W42552  13.894   0.503   1.583  0.3370  0.1670  0.0119
23699W        W42553   7.794   7.160   1.050 -0.0929 -0.0850 -0.1110
23700W        W42554  16.812   7.840  13.809  0.1280  0.1389  0.1122
23701W        W42555  17.633  15.137   3.896 -0.2429  0.0014 -0.4368
23702W        W42556  15.938   4.511   3.936  0.0108  0.1342  0.1724
23703W        W42557  10.629   7.315  11.386  0.0964 -0.1521 -0.0436
23704W        W42558  18.193   5.096  13.693 -0.2379  0.1250  0.0741
23705W        W42559  13.991  13.292   1.558 -0.4124 -0.0746 -0.0942
23706W        W42560  17.741  10.340  10.970 -0.2412 -0.5884  0.1166
23707W        W42561  15.651  15.779   4.404 -0.1973 -0.1487 -0.1940
23708W        W42562   1.491  14.994   1.256  0.0863  0.1618  0.0167
23709W        W42563   7.230  17.306  13.644  0.1605 -0.1227 -0.1679
23710W        W42564  10.403  11.156   3.683 -0.2662 -0.1031  0.2552
23711W        W42565   4.829   3.557   0.975  0.1596 -0.1193 -0.1326
23712W        W42566   4.357  16.242   0.122  0.3647 -0.1678  0.2517
23713W        W42567   5.634   3.099  12.486 -0.3033 -0.0901  0.0708
23714W        W42568   3.289  18.039   3.424 -0.2394  0.0347  0.1209
23715W        W42569   4.375  17.623   3.974  0.1848 -0.0461  0.0225
23716W        W42570  13.461   1.593   3.177  0.4127 -0.0306 -0.2406
23717W        W42571   5.637  15.525   3.655  0.0657  0.0367 -0.0395
23718W        W42572   7.723   9.181  10.946  0.2767 -0.2917  0.1231
23719W        W42573  18.231  10.503  11.343  0.1570  0.6881 -0.0037
23720W        W42574   0.024   0.525   2.350  0.3829  0.2623 -0.2351
23721W        W42575  18.446   4.091  12.658 -0.2315  0.0442  0.0213
23722W        W42576  15.466  18.814  12.742  0.1166  0.1079 -0.2679
23723W        W42577  17.233  16.903   4.052  0.1004 -0.0948  0.3561
23724W        W42578  16.345   9.252   2.083 -0.1799  0.1871  0.2471
23725W        W42579   9.170   2.886   0.090 -0.2422 -0.3496  0.2578
23726W        W42580   8.994  12.456  13.337  0.3598  0.0458 -0.0978
23727W        W42581   8.479   8.280  10.627  0.1050  0.4087 -0.4599
23728W        W42582  11.947   7.631  12.043 -0.0870  0.2095 -0.1091
23729W        W42583  11.115  11.819  14.120  0.2809 -0.1744  0.2432
23730W        W42584   3.556  10.432  14.023 -0.0457 -0.1233  0.0169
23731W        W42585   2.779   5.549  15.106 -0.0366  0.3227  0.0611
23732W        W42586   6.875  10.664   2.537  0.2502  0.0295 -0.0018
23733W        W42587   0.627   5.088   3.527 -0.1207  0.1204  0.1463
23734W        W42588   4.503   9.964   4.936  0.0992  0.0322 -0.0882
23735W        W42589   4.814   1.227   0.080  0.0581  0.0328 -0.2822
23736W        W42590   6.280  14.757   3.071  0.0012 -0.0835 -0.1993
23737W        W42591   5.421   6.683  13.357 -0.0192 -0.1884 -0.0152
23738W        W42592  16.730   1.484   1.434 -0.4790  0.3306  0.3182
23739W        W42593   1.514   7.795  12.679  0.4884 -0.0946 -0.1547
23740W        W42594   1.040  16.361   2.860  0.0699 -0.0358 -0.0090
23741W        W42595  10.016   4.989   0.769  0.1308 -0.3439 -0.2009
23742W        W42596  16.963   9.996  13.389 -0.1396 -0.2675 -0.2157
23743W        W42597  12.758  12.329  14.473  0.0374 -0.0283  0.0167
23744W        W42598   6.772  11.290  14.534  0.1392  0.2217  0.2142
23745W        W42599  13.523  13.331  11.436 -0.2005  0.1220  0.0161
23746W        W42600   4.346  18.701  11.604 -0.1394 -0.1155 -0.2070
23747W        W42601  13.462  16.786   1.017 -0.0824 -0.2334 -0.0908
23748W        W42602   3.858   9.769  11.950  0.0190 -0.1528  0.1793
23749W        W42603   6.842   5.917   0.477  0.2362  0.0396 -0.2029
23750W        W42604  17.559  16.446  10.417 -0.0355  0.0861  0.4805
23751W        W42605   0.864   3.246  10.105 -0.1701  0.0173 -0.2061
23752W        W42606   8.649   2.008   3.459 -0.0575 -0.0291 -0.2340
23753W        W42607  17.451   3.251  14.042  0.0353 -0.0432  0.1196
23754W        W42608   1.478   9.116  11.951  0.1563 -0.1128 -0.0919
23755W        W42609  16.386  17.556  11.163 -0.0468  0.1052 -0.1998
23756W        W42610  12.013   7.460  14.913 -0.2900 -0.0226  0.0857
23757W        W42611  17.505  15.030   2.360  0.3913 -0.2639 -0.2608
23758W        W42612  14.021   8.253  13.422 -0.1860  0.0094  0.2442
23759W        W42613  14.887  11.669  12.116 -0.0973 -0.1050 -0.1217
23760W        W42614  18.612  12.162  12.450 -0.1429 -0.1121  0.3908
23761W        W42615  17.917  16.926  11.146 -0.0363  0.4829  0.1737
23762W        W42616  11.871  13.475  14.591 -0.0444 -0.0873 -0.3047
23763W        W42617   3.727  13.517  11.269  0.1554 -0.0550 -0.0027
23764W        W42618   9.403   0.535  14.459  0.3782 -0.0188  0.0330
23765W        W42619  18.243  16.541   4.038  0.1297 -0.1619 -0.2296
23766W        W42620   4.303   0.990   0.785  0.0779  0.1390 -0.0565
23767W        W42621  10.581   6.318   3.172  0.2395  0.1332  0.3175
23768W        W42622   1.656  15.101  10.386 -0.1386  0.0956  0.0155
23769W        W42623   8.974  17.636   9.795 -0.0100  0.3638 -0.2474
23770W        W42624   6.966   2.389   4.484  0.1080 -0.1907 -0.0305
23771W        W42625   6.645  18.320  11.808 -0.2841  0.0940  0.0141
23772W        W42626  13.902   6.219   2.018 -0.1261 -0.3299  0.0511
23773W        W42627  16.538  17.965   3.749 -0.1914 -0.0267 -0.0494
23774W        W42628   7.301  18.116   4.681  0.1401 -0.1755 -0.0894
23775W        W42629  11.496  17.717  13.734 -0.2079  0.1207 -0.1963
23776W        W42630  18.649  14.013  13.023 -0.2683 -0.0431  0.1297
23777W        W42631   4.292  14.988  12.564 -0.0232 -0.2238 -0.0783
23778W        W42632  11.860  10.901  13.154 -0.0881 -0.1410 -0.0592
23779W        W42633   0.197  10.242   3.278 -0.0930  0.2471 -0.2310
23780W        W42634  15.867   4.020   0.133 -0.0126 -0.0242 -0.3886
23781W        W42635   6.699  17.867   1.198 -0.2888 -0.1469 -0.0509
23782W        W42636  17.043  13.333  12.872 -0.1035 -0.0332  0.1722
23783W        W42637   5.345   2.711  11.524 -0.0434  0.0997 -0.1707
23784W        W42638   0.251  11.571   2.902 -0.0949  0.0099  0.1892
23785W        W42639  10.641   8.766   0.976  0.1549 -0.1293  0.1258
23786W        W42640  17.365  17.758  12.693 -0.0924  0.0865  0.0833
23787W        W42641   1.015  15.622   0.807 -0.0277 -0.1750  0.0445
23788W        W42642  18.160   2.927  12.147  0.1002 -0.1350  0.0373
23789W        W42643   9.558   9.863   3.928 -0.0448 -0.0846  0.3524
23790W        W42644   9.120   8.185   3.098  0.0102  0.1102 -0.2045
23791W        W42645   1.542  13.574   3.488  0.3929  0.0218 -0.0198
23792W        W42646   8.442   0.129   3.363  0.0248  0.0673 -0.1284
23793W        W42647   4.225  14.390   2.159 -0.1401  0.0342 -0.1002
23794W        W42648   9.981   2.157   2.874 -0.0106 -0.1014  0.1857
23795W        W42649  12.428  12.149  13.577 -0.0491 -0.2294 -0.0506
23796W        W42650   6.431  16.537  11.156  0.1348  0.1049 -0.3176
23797W        W42651   3.613  13.811  14.918  0.3185  0.0123  0.4300
23798W        W42652   2.131   9.603  13.970  0.0099 -0.0666  0.1408
23799W        W42653  17.647   8.790  11.810 -0.1464  0.0901 -0.0372
23800W        W42654   3.521  18.461  14.368 -0.2064 -0.0565 -0.0757
23801W        W42655   0.169   2.891   3.847  0.0430  0.2059  0.5131
23802W        W42656  15.271   9.342   0.349 -0.1770  0.0223 -0.1533
23803W        W42657  10.687  18.550   0.156 -0.0269 -0.1524 -0.0190
23804W        W42658   6.483   7.781   0.441  0.2031  0.0148 -0.0591
23805W        W42659  15.615  18.508   3.150 -0.0885  0.0200 -0.0286
23806W        W42660   6.987   9.844  14.522  0.1211  0.0913 -0.0180
23807W        W42661   0.751   7.193   1.830 -0.0267 -0.1549 -0.3833
23808W        W42662  10.677   7.362   4.291  0.0476  0.2235 -0.3584
23809W        W42663  11.394   6.214   2.596  0.1230 -0.4926 -0.1930
23810W        W42664  11.831  14.006  10.543  0.3075  0.1501 -0.1737
23811W        W42665  11.550  18.616   3.132 -0.2788 -0.0130 -0.3902
23812W        W42666   5.823  14.846  14.540  0.2223 -0.1175 -0.2353
23813W        W42667   7.354   2.407   0.806  0.0662  0.3442  0.0820
23814W        W42668  10.617  17.763   1.201  0.1493  0.0241 -0.1731
23815W        W42669   0.479  13.927   2.139  0.1600 -0.1672  0.2583
23816W        W42670   1.018   6.037   3.347 -0.2212 -0.0078  0.3350
23817W        W42671   1.037   9.643  13.743 -0.0130  0.0118  0.2354
23818W        W42672  14.573   2.808   4.790 -0.4036 -0.0237 -0.3134
23819W        W42673   7.124   8.080   5.218  0.1792 -0.1175 -0.6418
23820W        W42674   5.307   8.568   2.707 -0.0833 -0.0229 -0.3370
23821W        W42675   5.014   6.318   4.450  0.0128  0.1756 -0.0731
23822W        W42676   8.380   7.186   3.098 -0.1584 -0.1711 -0.2592
23823W        W42677  15.036   2.996   1.082 -0.3302  0.2735  0.0724
23824W        W42678   2.170   7.154   1.315 -0.0031 -0.0957  0.0305
23825W        W42679  12.272  13.820  12.061 -0.1111  0.2493  0.0361
23826W        W42680   7.321   2.779  12.153  0.3201  0.1058 -0.0711
23827W        W42681  13.203  12.118   0.907 -0.1414 -0.2541 -0.0232
23828W        W42682  12.327   9.274   2.224  0.0667 -0.2520 -0.1053
23829W        W42683   6.359   9.759  13.426 -0.0458 -0.2717 -0.0114
23830W        W42684  16.621   2.923  10.780  0.1946 -0.1428  0.1295
23831W        W42685  12.370  14.725  13.985  0.0538 -0.0456 -0.6550
23832W        W42686   7.589   1.648   3.677 -0.0578 -0.0283  0.2266
23833W        W42687  14.970   1.983  14.780  0.0025 -0.2410 -0.2611
23834W        W42688   6.882  17.425   1.426 -0.1658  0.0884  0.1649
23835W        W42689  12.702  17.164   1.286 -0.0082  0.2575  0.0325
23836W        W42690   3.178  11.490   2.995 -0.0707 -0.1926 -0.1886
23837W        W42691  10.069   7.136  13.078  0.1284 -0.3351  0.0024
23838W        W42692  15.491  13.008  12.092  0.1015  0.2005  0.1299
23839W        W42693  15.418  11.503  14.001 -0.1113 -0.0441  0.2918
23840W        W42694  12.205   3.112   4.137 -0.2096  0.1511  0.0683
23841W        W42695  17.788  10.891  12.179 -0.1799 -0.0103  0.3006
23842W        W42696   6.136   3.034  14.852 -0.2106  0.0842  0.0228
23843W        W42697   9.042  16.448  11.709  0.2370  0.0959  0.1936
23844W        W42698   7.304  16.146  12.527  0.1432  0.0699 -0.2677
23845W        W42699   0.960   9.241   0.195 -0.0644 -0.1100  0.0367
23846W        W42700  18.104   1.642   2.924 -0.0782 -0.2273  0.0238
23847W        W42701   9.108   6.292   3.502  0.1813  0.3148  0.0608
23848W        W42702   9.299  14.659  11.252  0.0960  0.0771 -0.0026
23849W        W42703   5.263   8.023  13.360 -0.2343 -0.0707 -0.2393
23850W        W42704  13.693  13.384   3.374  0.0095  0.0819  0.0633
23851W        W42705   9.792  18.286  12.508  0.0641 -0.0625 -0.0678
23852W        W42706  18.115   1.047  14.063  0.0126 -0.1767  0.1213
23853W        W42707   8.474   5.387   1.073 -0.2312 -0.0293  0.0135
23854W        W42708  13.796   6.342   0.176 -0.2156  0.2353 -0.0385
23855W        W42709  11.825   5.653   2.371 -0.1861  0.2023 -0.2742
23856W        W42710   5.068   5.812   2.165  0.1655  0.1511  0.3516
23857W        W42711   3.142   2.460   2.422  0.2286  0.4591 -0.1483
23858W        W42712   9.185   8.633   4.346 -0.0768  0.2231  0.0010
23859W        W42713   6.204   4.727   1.427  0.0016 -0.1535 -0.2597
23860W        W42714  12.034  17.901  12.915  0.2109  0.0404  0.3581
23861W        W42715  10.681   2.649   1.356 -0.1037  0.1053 -0.0689
23862W        W42716   2.388   7.524  11.060 -0.3102 -0.0104 -0.1188
23863W        W42717   8.052   0.454  13.889  0.0634  0.2177  0.0644
23864W        W42718  11.833   0.655   2.049 -0.1003  0.2889 -0.2379
23865W        W42719  15.262  12.435   3.365  0.0108 -0.2086  0.1211
23866W        W42720  16.862   5.054  12.442  0.1033  0.0086 -0.0821
23867W        W42721  11.652   5.286   5.524 -0.1713 -0.0143 -0.0218
23868W        W42722   7.700   7.205  13.105 -0.1882 -0.3237  0.1687
23869W        W42723   8.894  14.654   0.089 -0.0882  0.0766 -0.1013
23870W        W42724  12.776  11.860  10.820  0.1642  0.2647 -0.0190
23871W        W42725   2.393  14.124  12.308  0.1513  0.2023  0.0730
23872W        W42726   9.001  16.801   1.993  0.1801 -0.0469  0.1570
23873W        W42727  15.433   9.062  12.450  0.0948  0.0398 -0.0055
23874W        W42728   5.910  15.076   1.347 -0.0172  0.1747 -0.0161
23875W        W42729  15.404   3.844   0.780  0.1223 -0.2013 -0.1446
23876W        W42730   3.200   6.497  12.737  0.1598 -0.2170  0.2197
23877W        W42731  14.598   9.350  13.777 -0.0239  0.0257 -0.0393
23878W        W42732  13.797   7.107   5.572  0.3784 -0.4409 -0.2938
23879W        W42733  18.019  13.442  13.829 -0.0777  0.1875 -0.2969
23880W        W42734   9.037   2.021  14.314  0.2178 -0.0251 -0.3035
23881W        W42735   6.905   9.302  12.404 -0.0448 -0.2632 -0.0491
23882W        W42736   0.481   2.955   3.400  0.0579  0.1314  0.0277
23883W        W42737  14.957  15.258   1.325 -0.0861  0.2636  0.1232
23884W        W42738  12.502   7.106   3.738 -0.0481  0.0960  0.2282
23885W        W42739  15.864  18.316  14.053  0.0070 -0.0300 -0.1010
23886W        W42740   2.488   8.068  14.473  0.1903 -0.0890 -0.1773
23887W        W42741  12.443  13.336   0.316 -0.0985 -0.0106 -0.2877
23888W        W42742  16.481  10.755  11.717 -0.2711 -0.1323  0.0871
23889W        W42743  17.970   8.449  11.400  0.0070  0.1235  0.1813
23890W        W42744   0.609   9.565   2.943  0.4141 -0.0035  0.2226
23891W        W42745   2.648   6.745  14.398  0.2101  0.0725  0.0080
23892W        W42746   6.499   4.037   3.022  0.1162  0.0938  0.1752
23893W        W42747  10.629  15.713   1.357  0.3035  0.4150 -0.2810
23894W        W42748   2.309  13.029  13.333 -0.3411  0.0641  0.1791
23895W        W42749   3.830   7.526   3.691  0.1890  0.3200  0.0678
23896W        W42750  11.924  15.296  12.675 -0.1772 -0.2521  0.0885
23897W        W42751  15.079   9.653   1.917 -0.0707  0.0084 -0.0016
23898W        W42752  13.569   1.078  12.751 -0.0549  0.0299 -0.1708
23899W        W42753  11.101   3.139   3.492  0.0207 -0.2338  0.0072
23900W        W42754  11.697  18.235   2.365 -0.0795 -0.1537 -0.2700
23901W        W42755  16.265   0.125  14.634  0.1342  0.1743 -0.8043
23902W        W42756   2.626   2.138   2.535 -0.0098 -0.0455 -0.1698
23903W        W42757   1.526   8.142  14.179  0.0500  0.0037 -0.0213
23904W        W42758  13.002  11.221  11.486  0.1130  0.2340 -0.0399
23905W        W42759   3.438   7.774   0.180  0.1468  0.0068 -0.3597
23906W        W42760  16.380  10.874   0.605 -0.0284 -0.0350 -0.0703
23907W        W42761  14.176   9.309  13.306  0.0365  0.0017  0.0637
23908W        W42762  15.073   7.052   2.986  0.1620  0.2868 -0.0239
23909W        W42763   0.646   1.959   3.400  0.1432  0.4402 -0.3153
23910W        W42764  10.695  17.794  14.215 -0.1210  0.1504 -0.1117
23911W        W42765  12.382  17.440  11.257  0.1369 -0.4123  0.0314
23912W        W42766   1.828   1.469  13.300  0.2874 -0.0388 -0.2197
23913W        W42767   9.028   8.473  13.473  0.0609  0.1317  0.0211
23914W        W42768  15.928   7.903   2.956 -0.1287  0.0828 -0.2618
23915W        W42769  10.417   5.410  11.844  0.0266 -0.1710  0.0083
23916W        W42770  10.664   3.791  14.544 -0.3727 -0.3228  0.1404
23917W        W42771  18.222   2.585   2.906  0.2569  0.2617 -0.0818
23918W        W42772   2.622  10.446  13.691  0.1963 -0.2620  0.1722
23919W        W42773  11.807   3.045   0.672  0.1537  0.0499 -0.0762
23920W        W42774  16.760   2.476   4.117 -0.0134  0.3461  0.0686
23921W        W42775   7.098   3.094  13.551 -0.0075 -0.0297  0.0385
23922W        W42776   3.509   0.122  12.149 -0.0208 -0.0412  0.2741
23923W        W42777   6.187   1.792  11.541  0.0792 -0.0854 -0.0866
23924W        W42778  14.652  15.274   0.402  0.0607 -0.0460 -0.3135
23925W        W42779  15.818   4.960  12.441 -0.0202  0.2239 -0.4612
23926W        W42780   9.501  18.016   1.900 -0.4343  0.1429  0.0565
23927W        W42781   8.619   0.375  12.273  0.0093  0.0274  0.0320
23928W        W42782   8.019  10.678   3.981 -0.0934 -0.0434 -0.0163
23929W        W42783  10.440  15.986  15.046 -0.0346  0.0258  0.1152
23930W        W42784  13.056   4.676   2.617 -0.1859  0.3582 -0.1338
23931W        W42785   6.745   6.231   3.657  0.1121 -0.0624 -0.0371
23932W        W42786   2.282  18.506   4.312 -0.2577 -0.1199  0.6970
23933W        W42787  14.334   7.760   3.023  0.2384 -0.0082 -0.2446
23934W        W42788   0.034   5.496   0.393 -0.0927 -0.3007 -0.2238
23935W        W42789  13.049   9.989  11.168 -0.0132 -0.0178 -0.1393
23936W        W42790  13.739   9.160   1.587  0.1295  0.0324  0.1552
23937W        W42791  11.044  18.361   1.257 -0.2290  0.0021 -0.0617
23938W        W42792   6.258  17.818  12.964  0.1217 -0.1154  0.2581
23939W        W42793   6.315  12.874   3.777  0.1458 -0.0706 -0.1242
23940W        W42794   2.663   1.446  13.685  0.0697  0.0005 -0.0685
23941W        W42795  10.888  17.734  12.442 -0.3461 -0.0306  0.2790
23942W        W42796  17.640   0.195   3.431 -0.1418  0.1729  0.0150
23943W        W42797   1.769  11.360   0.489 -0.1485 -0.0466 -0.0688
23944W        W42798   8.259   9.145  14.766 -0.1599  0.1089 -0.1385
23945W        W42799   4.482   5.144  13.912  0.0112  0.4399  0.1012
23946W        W42800  16.382  16.452   0.570 -0.3023 -0.1694 -0.0581
23947W        W42801   6.477  17.567  10.474 -0.4257 -0.0325 -0.0866
23948W        W42802  11.571   7.615   1.959  0.1422  0.0112  0.1469
23949W        W42803  14.131  18.522  11.921 -0.0373  0.0937  0.0915
23950W        W42804  16.319   4.762  12.989 -0.1271 -0.2002 -0.1602
23951W        W42805   6.327  17.531   0.114 -0.1096  0.0398 -0.1178
23952W        W42806   6.976  11.190   2.720 -0.1491 -0.0229 -0.0587
23953W        W42807   4.015   4.011   3.870 -0.2070 -0.1061 -0.1791
23954W        W42808  14.301   9.720   3.179  0.1299  0.1173 -0.2394
23955W        W42809  10.019  15.144   3.080 -0.1493 -0.3113  0.3936
23956W        W42810   3.970   3.544   4.561  0.0356 -0.3528 -0.3695
23957W        W42811   4.765   6.543  13.090 -0.0735  0.0604 -0.1817
23958W        W42812   9.604   6.936   0.078 -0.0507 -0.0414  0.1704
23959W        W42813   6.602   1.841   4.592 -0.1630 -0.0881  0.0280
23960W        W42814  12.017  10.369   4.636 -0.1997  0.0677 -0.0173
23961W        W42815   4.435   1.000   3.269 -0.0833  0.0103 -0.0794
23962W        W42816  10.058  10.491  13.092  0.4317 -0.2275  0.0511
23963W        W42817  14.262  12.070  14.718 -0.0319  0.0915  0.2939
23964W        W42818  15.029  11.419   1.846  0.0716 -0.0077 -0.3686
23965W        W42819   8.464  14.657   3.974 -0.0763 -0.2312 -0.0460
23966W        W42820  18.334   2.448   1.098  0.0565  0.2980  0.0617
23967W        W42821   5.526  11.904   2.794 -0.4366 -0.1389 -0.1795
23968W        W42822   6.917   3.852   4.292 -0.1048  0.0832  0.1053
23969W        W42823   3.874  10.297   1.696  0.0393 -0.0042 -0.2583
23970W        W42824   0.419   7.163   3.904  0.1130 -0.1575 -0.2956
23971W        W42825   7.211   6.106  11.038  0.0469 -0.6038  0.0934
23972W        W42826  10.301  13.916  11.528  0.1104 -0.0247  0.2106
23973W        W42827  18.431  11.602   3.302  0.2269  0.0315  0.2328
23974W        W42828   4.997   9.045  11.369  0.0198 -0.4001  0.0195
23975W        W42829  12.382   9.807  11.729  0.2088  0.1480  0.1572
23976W        W42830  10.471  18.636   1.612 -0.0844 -0.3490  0.1295
23977W        W42831  13.419   0.794  11.539  0.2396 -0.1832 -0.1254
23978W        W42832   7.095  16.330  13.350  0.0345 -0.3545 -0.2040
23979W        W42833  13.969  12.757  10.983  0.1507  0.1689  0.1765
23980W        W42834   9.619  10.783  13.632  0.1743  0.0087 -0.3409
23981W        W42835  11.114   4.683   2.176  0.0318  0.0258 -0.3751
23982W        W42836  15.305   6.449   3.853 -0.0261 -0.0240 -0.2194
23983W        W42837   1.867  14.851  11.390 -0.1100 -0.2226  0.0323
23984W        W42838  15.749   7.310   0.164 -0.1712 -0.0766  0.0918
23985W        W42839  12.103   7.724   0.212  0.0164  0.0935  0.0980
23986W        W42840  18.012  10.840   1.640 -0.1401 -0.0612 -0.0154
23987W        W42841   1.474  10.449   0.708  0.3030  0.0221 -0.0456
23988W        W42842  11.027   0.282   1.132  0.2873 -0.1397 -0.0884
23989W        W42843   0.550  10.107   1.617 -0.0732  0.2460  0.2705
23990W        W42844  12.819   7.849   5.377 -0.0742  0.0726  0.0708
23991W        W42845  11.354   6.532  13.453  0.3365 -0.4241 -0.0707
23992W        W42846  11.580  15.183   4.366 -0.0680  0.1192 -0.1340
23993W        W42847   0.750   6.323  12.073 -0.0290 -0.0438 -0.0392
23994W        W42848  17.609   6.527   0.482 -0.1560  0.0666  0.1321
23995W        W42849   3.305  13.217   3.780  0.1247  0.2414  0.0613
23996W        W42850  16.421   4.649  13.523  0.3547 -0.0198 -0.1315
23997W        W42851   2.941   9.466   4.145 -0.2878  0.0029 -0.2020
23998W        W42852  18.695  12.311  11.030 -0.1105 -0.2961 -0.2529
23999W        W42853  17.204  12.658   1.078  0.2579  0.2278  0.2460
24000W        W42854   2.870   5.454   3.695  0.1803 -0.3784 -0.0702
24001W        W42855  17.866   6.051  11.579  0.0096 -0.0652  0.1411
24002W        W42856  18.276  13.913  12.464 -0.6177  0.2710 -0.1402
24003W        W42857  13.721  10.813   4.500 -0.0970 -0.0487 -0.2642
24004W        W42858  10.634  15.141  14.989  0.0552 -0.2253  0.0431
24005W        W42859   0.913  17.305   3.776 -0.1781 -0.0440 -0.0602
24006W        W42860   8.977  18.521   2.981 -0.3517 -0.1293 -0.2758
24007W        W42861   6.952   0.540   3.635  0.1431  0.0089  0.0870
24008W        W42862  10.154  15.681   1.806  0.1228  0.0638 -0.6963
24009W        W42863  18.354   6.218   1.351  0.0038  0.2896  0.2918
24010W        W42864   6.871  10.047   3.550  0.1439 -0.1108  0.2316
24011W        W42865  11.029   9.357   0.519  0.3038  0.2188 -0.1375
24012W        W42866   6.782   3.597  14.367 -0.0473 -0.1933  0.1565
24013W        W42867   8.773  10.712  13.523  0.0985  0.1947 -0.1531
24014W        W42868  12.799   8.103  15.030  0.0675 -0.4339  0.0109
24015W        W42869   8.729  12.269   2.234  0.0305 -0.1248 -0.2876
24016W        W42870  17.729   0.810   1.733 -0.1120 -0.1756 -0.2047
24017W        W42871   2.231   8.738  13.985  0.1673 -0.3521  0.2401
24018W        W42872  13.196   3.307   0.890 -0.2142  0.0898  0.0683
24019W        W42873   2.841   6.122  14.935 -0.1203 -0.1229  0.0074
24020W        W42874  13.314   0.510   3.669 -0.2842 -0.1157 -0.0393
24021W        W42875   8.933  11.051   3.497 -0.2454 -0.1670  0.2031
24022W        W42876  18.682  10.658  13.520  0.0718  0.0332 -0.3332
24023W        W42877  13.575   1.969   3.508  0.2327  0.1443  0.0246
24024W        W42878  10.765   6.020  14.269 -0.2803  0.1741  0.1121
24025W        W42879  12.383   7.435  12.826 -0.1079  0.1396 -0.0919
24026W        W42880  17.157  13.085   0.751 -0.0829 -0.2912 -0.0087
24027W        W42881   6.597   6.300   1.300  0.0510  0.1719  0.3756
24028W        W42882  18.164   0.357   0.604 -0.3161  0.4968  0.0666
24029W        W42883   0.281  17.499   3.858 -0.1166 -0.0547 -0.1486
24030W        W42884   0.640   4.941  12.637 -0.0283  0.0277 -0.1312
24031W        W42885   6.444  12.549  10.986  0.0938 -0.2679  0.3870
24032W        W42886   5.711   2.442   2.598  0.0649 -0.1665  0.0458
24033W        W42887   5.576   8.309  12.530  0.0350  0.0513  0.1653
24034W        W42888   6.708   8.827   0.364  0.2124 -0.0089 -0.1085
24035W        W42889   5.182  15.642   2.718  0.0913  0.1180  0.1631
24036W        W42890  18.439   9.215  10.885  0.1406  0.1981  0.0324
24037W        W42891  17.718  17.643   1.570 -0.1377 -0.1310 -0.2927
24038W        W42892  10.123  12.257   2.664  0.4478 -0.1588  0.3015
24039W        W42893   6.896  11.727  10.392  0.2290  0.1158 -0.0138
24040W        W42894  10.873   3.063  11.799 -0.2149  0.0295  0.1668
24041W        W42895  15.948  13.413  13.797 -0.0977  0.2661  0.2137
24042W        W42896   7.408  13.388   2.592 -0.1373  0.1862  0.1968
24043W        W42897   4.554   8.754   0.242  0.2035  0.1024  0.2253
24044W        W42898   6.629   4.891  14.652 -0.1209  0.1952 -0.1299
24045W        W42899   0.459   3.382   0.922 -0.1482  0.2720 -0.0531
24046W        W42900   4.412   9.538   9.356  0.0949 -0.2867  0.1635
24047W        W42901   0.417  12.484   1.221  0.4368  0.1928 -0.2357
24048W        W42902   0.113  10.857   1.742  0.2253 -0.1306  0.0124
24049W        W42903  17.436  14.595   4.221 -0.0326 -0.4025 -0.4268
24050W        W42904   2.135  14.068   1.256  0.0513 -0.0055  0.0646
24051W        W42905  11.355   9.746   1.585  0.0424 -0.1872 -0.0420
24052W        W42906  16.918   9.981  13.923 -0.2461 -0.1354 -0.1376
24053W        W42907   0.496   5.665  11.913  0.2097  0.2447  0.3629
24054W        W42908  11.179   4.747  12.786 -0.2238 -0.1678 -0.0025
24055W        W42909  16.031   9.781   2.841  0.0019 -0.2263  0.1533
24056W        W42910   7.783   8.232  11.175 -0.2272  0.1061 -0.0846
24057W        W42911   2.568   3.675   0.086  0.3699  0.1502  0.0068
24058W        W42912   1.581  10.332  14.863  0.1935 -0.0655 -0.0169
24059W        W42913  18.710  14.442   1.683 -0.2046 -0.0104  0.0200
24060W        W42914   3.612   1.688  11.253 -0.0259 -0.0037 -0.0506
24061W        W42915  16.604  14.500   3.988  0.0036  0.1714  0.2232
24062W        W42916   0.914  15.608  12.611 -0.1096  0.2068  0.1838
24063W        W42917   5.229  15.221  14.245 -0.0549  0.1387  0.0982
24064W        W42918   2.394  11.764   4.084 -0.0366  0.3037 -0.1039
24065W        W42919   0.675  10.500  10.441 -0.1989  0.0802  0.0498
24066W        W42920   8.637  12.212  12.038 -0.0590 -0.1308 -0.2237
24067W        W42921   0.897  13.281   4.370  0.0320  0.0600 -0.0641
24068W        W42922   4.246  16.646   3.203  0.1272  0.0980 -0.4281
24069W        W42923   4.010   0.114   1.320 -0.1469 -0.3596  0.1745
24070W        W42924   0.297  18.527   1.862 -0.1263  0.0446 -0.2734
24071W        W42925   6.862   4.455  12.959  0.2488 -0.2246 -0.0396
24072W        W42926  13.068  18.587   0.648 -0.0733 -0.0677 -0.0576
24073W        W42927   1.693   5.178   2.665  0.0856 -0.0156  0.2043
24074W        W42928  17.399  10.919   0.642  0.1602 -0.2659  0.1260
24075W        W42929  11.433   4.803   3.029  0.0828  0.0778 -0.1725
24076W        W42930  12.266  10.915   2.313  0.0615 -0.1383  0.0545
24077W        W42931  18.521  12.309  10.516 -0.2979 -0.1151 -0.0039
24078W        W42932  17.027  11.321  12.730 -0.0634 -0.2001  0.0118
24079W        W42933  12.130  12.285   0.303  0.0198  0.1952  0.0352
24080W        W42934  16.864  16.137  14.431 -0.0019 -0.1105 -0.1874
24081W        W42935  13.903  13.274  13.977  0.0597  0.0269  0.0206
24082W        W42936   0.721   8.111   4.303  0.0492  0.1404 -0.2050
24083W        W42937  10.262  16.985   1.090 -0.1108 -0.1382  0.1866
24084W        W42938  13.763   8.532  14.357 -0.0939 -0.4810  0.2162
24085W        W42939  14.508  18.030  12.968  0.0664  0.1112 -0.1501
24086W        W42940  10.331   8.434   1.928  0.2059 -0.2667 -0.2541
24087W        W42941   7.179   9.454   0.926  0.0946 -0.1445 -0.0516
24088W        W42942   3.990  15.256  13.224  0.0285 -0.1441 -0.0692
24089W        W42943   3.968  11.830   2.398  0.1217  0.1303  0.0631
24090W        W42944  16.540  17.362   0.624  0.0819  0.0537 -0.1952
24091W        W42945  14.025   6.394  14.051 -0.1158 -0.0886 -0.0773
24092W        W42946   5.353   5.484  11.958  0.2694 -0.1053 -0.2926
24093W        W42947   2.868   5.810   4.018 -0.2451 -0.0057  0.2705
24094W        W42948   6.921   8.999   0.806  0.2111  0.2530 -0.1959
24095W        W42949   0.920   3.489   9.700 -0.0468 -0.2363  0.0535
24096W        W42950   6.878  13.013  11.811 -0.0014  0.0858 -0.1939
24097W        W42951   4.817  12.519  11.986 -0.1269  0.0073  0.0028
24098W        W42952   4.162   2.972   3.278  0.0865  0.0596 -0.2635
24099W        W42953   3.932  13.190  11.660  0.0675  0.2964 -0.2462
24100W        W42954   4.172   2.432  13.764  0.2733 -0.1454 -0.2526
24101W        W42955   7.014   3.250   3.864  0.1554 -0.0209 -0.1074
24102W        W42956  11.464  18.552  12.491  0.0903  0.1948 -0.4308
24103W        W42957  11.411   0.934   4.217  0.0047  0.0633 -0.0891
24104W        W42958  17.229  13.841  10.927  0.1988  0.0459 -0.0007
24105W        W42959  10.564  18.235   1.340  0.1677 -0.0220 -0.0422
24106W        W42960   9.262   7.057   3.096  0.3343  0.3248  0.1610
24107W        W42961   2.314  10.460  11.111 -0.1126  0.3922  0.0522
24108W        W42962   8.129  12.822  12.458 -0.1942 -0.0502  0.2124
24109W        W42963  11.313  11.360  12.476 -0.0004  0.0595 -0.0026
24110W        W42964  12.189  14.365  10.715  0.0218  0.1961 -0.1703
24111W        W42965   8.855  13.729   2.430 -0.0328 -0.2111 -0.0049
24112W        W42966  14.830  18.176  11.032  0.1372 -0.0596  0.0893
24113W        W42967  17.354  13.302   1.642  0.2666  0.0381 -0.1514
24114W        W42968   2.253   3.890  12.313  0.1106 -0.1361  0.2152
24115W        W42969  17.403   8.992   1.713 -0.0401  0.2034 -0.0467
24116W        W42970  16.448   9.692  14.912  0.2367  0.0761  0.2465
24117W        W42971  16.442   7.430   2.197 -0.0710 -0.3743  0.1091
24118W        W42972   9.982   8.343   3.062 -0.0907 -0.0896  0.0384
24119W        W42973   3.202   2.835   3.198 -0.3080  0.1814 -0.0422
24120W        W42974  18.596   9.531  13.927  0.0366 -0.1137  0.1039
24121W        W42975  17.264   3.200   2.915 -0.2447 -0.1204  0.0591
24122W        W42976  17.562   2.885  12.628 -0.0725  0.1595  0.0787
24123W        W42977   8.956   0.767  13.052  0.3092 -0.0929  0.0455
24124W        W42978   0.309   4.253  12.713  0.1243 -0.2109  0.1018
24125W        W42979   9.451  14.449   3.352  0.1605 -0.2086 -0.1533
24126W        W42980   0.725  18.216   2.769 -0.2462 -0.1566 -0.0976
24127W        W42981   8.013   5.786   3.192 -0.1267  0.3337  0.0701
24128W        W42982  15.772  16.845   1.768 -0.1681  0.1229 -0.1034
24129W        W42983   6.721  17.140  10.413 -0.4699  0.2534  0.0717
24130W        W42984   3.670   1.734  11.897 -0.1680 -0.3591  0.1572
24131W        W42985   0.352   6.927  11.957 -0.1200  0.2720  0.2693
24132W        W42986   4.385  14.672  12.144  0.5054  0.0056 -0.1140
24133W        W42987   4.932  12.549  13.485  0.1014 -0.4387  0.3038
24134W        W42988  16.392  17.045  11.383  0.2610  0.1228  0.1207
24135W        W42989   9.264   5.835  13.887  0.1696  0.1422 -0.0464
24136W        W42990  13.957  18.286   3.941 -0.1372 -0.0015 -0.0152
24137W        W42991   2.698  15.277  12.714  0.1906 -0.0690 -0.0491
24138W        W42992   2.999  11.986  14.109  0.0040  0.0120 -0.1178
24139W        W42993   1.191   0.163   4.123 -0.2198  0.0206  0.1364
24140W        W42994   8.185  18.348  14.899 -0.0055 -0.3570 -0.4379
24141W        W42995   8.335  18.779  11.570 -0.1618  0.0467 -0.1570
24142W        W42996   5.667  16.893   1.987 -0.1530 -0.0856 -0.0175
24143W        W42997  12.233  12.795   2.369 -0.0627  0.2329 -0.2988
24144W        W42998   2.467   2.572   0.762 -0.1127 -0.3652  0.0487
24145W        W42999  16.673  16.020   0.483  0.0036 -0.3182 -0.0660
24146W        W43000   1.191   4.844   2.388 -0.0790 -0.0371  0.0698
24147W        W43001   7.425  13.252  15.044 -0.5314 -0.2855 -0.0046
24148W        W43002   5.937  11.427  15.108  0.0237 -0.2527 -0.2097
24149W        W43003   0.949   8.688  13.722  0.0623 -0.1259 -0.3108
24150W        W43004  10.715  13.330  13.084  0.4075  0.2587 -0.0531
24151W        W43005  14.657   5.070  14.031 -0.2459  0.0126 -0.1286
24152W        W43006  12.482   4.860   2.712  0.2159  0.1520  0.2057
24153W        W43007   0.851   3.398   0.197 -0.0529  0.1642  0.1915
24154W        W43008   2.648   1.566   0.624 -0.2388 -0.0601 -0.2075
24155W        W43009  13.490   5.926   2.061  0.1768 -0.2907  0.0065
24156W        W43010  11.929  13.679   0.800  0.0678 -0.0043  0.1376
24157W        W43011  15.277   7.613   0.093 -0.0286 -0.0836 -0.1948
24158W        W43012  16.697   3.096   0.549 -0.2100  0.1579 -0.3786
24159W        W43013   0.338  11.426   3.508  0.1417  0.5505  0.2005
24160W        W43014   9.951  14.092  13.870  0.3115  0.3682  0.1279
24161W        W43015  17.100  18.600   0.505 -0.3412 -0.1795 -0.3461
24162W        W43016   2.618  11.506   0.015 -0.2548  0.3314 -0.1149
24163W        W43017  11.442  15.052  11.780  0.1394  0.3569  0.0760
24164W        W43018  15.865  13.834   1.572  0.3758 -0.3774 -0.1190
24165W        W43019  11.995   7.352   3.713 -0.2415  0.0885 -0.1341
24166W        W43020   2.339  17.121   0.677 -0.2223 -0.0864 -0.1114
24167W        W43021  12.439  11.684   2.619  0.1596  0.3338  0.1841
24168W        W43022  17.551  15.889   2.137  0.0713  0.4182 -0.0455
24169W        W43023   9.435  13.826  12.674 -0.2698  0.1937 -0.0519
24170W        W43024   3.548   8.206  13.963  0.0632 -0.1240  0.0956
24171W        W43025   2.706  10.631   1.491 -0.3987  0.1357  0.1641
24172W        W43026  17.548   1.684  13.593  0.1742  0.1714  0.1843
24173W        W43027   3.401   1.328  12.601  0.1264 -0.0143 -0.0348
24174W        W43028  18.472   3.291   1.811  0.1032 -0.1296  0.2045
24175W        W43029  14.730   4.154   3.854 -0.1812  0.1562  0.1438
24176W        W43030   9.948  15.992   1.290  0.0331  0.1653  0.2072
24177W        W43031   4.013  16.021   0.457 -0.0472  0.0806 -0.0013
24178W        W43032   7.178   4.488  14.134 -0.1835 -0.0834  0.1158
24179W        W43033   1.215  12.669  13.533  0.1814  0.0140  0.2897
24180W        W43034   5.735   7.496  12.803 -0.5170 -0.0908  0.3844
24181W        W43035  11.113   4.169   4.545  0.1768  0.3137  0.1975
24182W        W43036   1.975   8.239  10.422 -0.2538  0.0470  0.1979
24183W        W43037  11.441   6.403   9.802 -0.1752  0.0476  0.0841
24184W        W43038  12.761   7.229   4.135  0.0373 -0.0499  0.1005
24185W        W43039   0.547   9.245   1.064  0.4205  0.0807 -0.1182
24186W        W43040   2.130   6.663   0.687  0.2077 -0.0169  0.1400
24187W        W43041   7.574  13.548  10.128 -0.0181 -0.0022  0.2766
24188W        W43042   9.892  13.810   2.476 -0.0668 -0.1508  0.1383
24189W        W43043  11.227  11.716   4.127  0.2552  0.1784  0.4631
24190W        W43044  12.333   9.675   0.854  0.2376  0.2832  0.0773
24191W        W43045  15.115  11.605   3.871  0.1182  0.0919 -0.0947
24192W        W43046  15.994   8.414   2.787  0.1707 -0.1822  0.1229
24193W        W43047  11.186  18.797   1.970  0.1541  0.0672  0.1613
24194W        W43048  17.554  10.536  11.878  0.2194 -0.0056  0.0544
24195W        W43049  16.417   4.934  12.539 -0.1150  0.0021 -0.0303
24196W        W43050  11.147   0.095   4.054 -0.1367 -0.1821 -0.1860
24197W        W43051  11.156  13.481   1.127  0.0696  0.0030 -0.5264
24198W        W43052   9.317   6.738  14.216  0.0267  0.1952  0.1161
24199W        W43053  13.079  10.558  13.689 -0.1488  0.0608 -0.1107
24200W        W43054   7.786  16.367   4.543  0.0118  0.1131  0.2249
24201W        W43055  12.484  15.228  10.960  0.2590 -0.1868 -0.1253
24202W        W43056   4.875   4.650  13.243  0.0112  0.1987 -0.0060
24203W        W43057  17.427   2.524  10.356 -0.1546 -0.1397 -0.1506
24204W        W43058  18.413   9.508   1.265  0.0644 -0.0342  0.0321
24205W        W43059  17.980   3.791  10.292 -0.3110  0.0691 -0.1030
24206W        W43060  12.987   5.074  14.722  0.0305  0.3216 -0.0220
24207W        W43061   9.096  11.980   2.655 -0.1799  0.4277 -0.1492
24208W        W43062   4.863  13.544   3.218  0.0782 -0.0853 -0.1634
24209W        W43063   3.758  15.234   4.908 -0.3687 -0.0320 -0.0350
24210W        W43064   2.877  11.227   1.495  0.3896 -0.1967 -0.2177
24211W        W43065  15.841   5.759  10.928 -0.1861  0.0462 -0.0915
24212W        W43066   1.680  15.571   0.435 -0.2179  0.0756  0.1527
24213W        W43067   4.495   5.658   2.234  0.0500 -0.1752  0.0786
24214W        W43068  17.353  16.346   0.981  0.1690 -0.4047  0.1188
24215W        W43069   3.730  15.816  10.710  0.1068  0.0752  0.0958
24216W        W43070  10.664   6.556   2.037  0.1560  0.2938 -0.0059
24217W        W43071  17.635  17.716   3.632  0.3649  0.3497 -0.0930
24218W        W43072  18.120   4.982   0.386  0.1906 -0.0753 -0.2035
24219W        W43073   7.294  10.689   2.917  0.0254  0.2231  0.1608
24220W        W43074   6.764  16.241  10.952 -0.0277  0.1159 -0.0912
24221W        W43075   0.573   0.361  13.152 -0.0358 -0.0173 -0.1320
24222W        W43076   3.523   0.243  10.607  0.4107 -0.0042  0.1581
24223W        W43077   8.151  11.143  14.217  0.0724 -0.0687  0.0116
24224W        W43078  13.385   4.846   3.900 -0.0535  0.0217  0.0928
24225W        W43079   5.030  16.407  10.622  0.3178 -0.1632 -0.0699
24226W        W43080   2.591  17.473  11.101  0.2051 -0.3085  0.3890
24227W        W43081   6.770   4.498   2.992 -0.1905 -0.3842 -0.2629
24228W        W43082  12.485  16.467   3.911 -0.0871 -0.1231  0.0842
24229W        W43083   8.066   5.808   1.260  0.1232 -0.1771  0.1756
24230W        W43084   1.735  14.488   1.144 -0.3105 -0.1971  0.1464
24231W        W43085   8.884  15.916  14.055 -0.1595  0.0180 -0.4014
24232W        W43086  12.781  13.012   1.267  0.1691 -0.0107 -0.0382
24233W        W43087   5.207   3.515  10.281  0.1763  0.2585 -0.0072
24234W        W43088  17.160  12.777  12.260  0.0731  0.2670  0.1405
24235W        W43089   9.477   7.622  11.829  0.3813  0.2784 -0.2317
24236W        W43090  16.345   0.076   0.849  0.1372  0.0283 -0.4331
24237W        W43091  12.039   0.512  12.429 -0.1514 -0.2057 -0.0929
24238W        W43092   7.590   1.003   0.734  0.0747  0.1698  0.1461
24239W        W43093  12.047  14.322  14.040 -0.2441 -0.1373  0.0526
24240W        W43094  16.613   7.352  13.514  0.2539 -0.2762  0.3751
24241W        W43095   0.180  18.110   2.725 -0.2358  0.0346 -0.0179
24242W        W43096   4.782  10.492  14.636  0.2161  0.0362  0.0162
24243W        W43097   0.506  15.798  10.784  0.1674 -0.1543 -0.0411
24244W        W43098   7.959   0.446   3.135  0.1242  0.0972 -0.0053
24245W        W43099   8.673  10.094  14.868  0.3551 -0.1257 -0.1430
24246W        W43100  10.571   9.401  12.523  0.0898 -0.0513 -0.0825
24247W        W43101  13.949   6.201  11.797 -0.1493 -0.2731  0.1291
24248W        W43102   5.005   6.722   4.863  0.4469 -0.1097  0.1244
24249W        W43103   4.266  17.973  11.128  0.2133  0.2328  0.2192
24250W        W43104   5.808  16.896   4.230 -0.2023 -0.4220 -0.1263
24251W        W43105   1.409   2.724   3.844 -0.0781  0.1594 -0.1828
24252W        W43106  14.282   6.643  11.805  0.1072 -0.2782  0.0900
24253W        W43107   7.361  16.090   4.039 -0.0786  0.1700 -0.1284
24254W        W43108   1.428  10.227   1.356 -0.1901  0.0342 -0.1444
24255W        W43109   1.207  18.758  11.823 -0.2406 -0.0445  0.1851
24256W        W43110   0.954   1.346   1.178  0.0737  0.0707 -0.1653
24257W        W43111  16.678   4.302  13.201  0.1005  0.1016 -0.1171
24258W        W43112  11.388  12.575   3.583  0.0635 -0.0752  0.3037
24259W        W43113  12.162   3.947   5.531 -0.1313  0.2328 -0.1203
24260W        W43114   2.468   7.583  12.423 -0.0779  0.1418  0.2987
24261W        W43115   5.029   6.997  13.266  0.0771 -0.1976  0.0966
24262W        W43116   4.726   0.349   2.459 -0.3352 -0.1196  0.1182
24263W        W43117  14.688   0.753  11.786  0.3574  0.2970 -0.0121
24264W        W43118  16.055   1.238  11.693  0.0833  0.0217  0.1963
24265W        W43119  17.365   3.111   1.208 -0.1098 -0.0812 -0.0962
24266W        W43120  17.772   2.642  12.187 -0.0577 -0.0163  0.1134
24267W        W43121  12.459  16.452  14.452  0.0417 -0.2612 -0.0944
24268W        W43122  11.861  13.040  13.757  0.2142  0.1941 -0.1534
24269W        W43123  10.555   8.145  10.952  0.0761  0.0064 -0.0898
24270W        W43124  17.238   8.150   2.049 -0.0404  0.1021  0.1548
24271W        W43125  13.006  11.081   2.863 -0.0657  0.1947  0.3555
24272W        W43126   5.643   8.001  14.340  0.2572  0.0530  0.0504
24273W        W43127   1.920  17.987   0.859  0.2924 -0.1402 -0.0767
24274W        W43128   1.687  18.444   3.507 -0.2063 -0.0593 -0.0593
24275W        W43129   9.158   3.037  12.323 -0.0845  0.2569 -0.0168
24276W        W43130   3.043  12.381  11.191  0.0364  0.1621 -0.0115
24277W        W43131  15.890   0.516  14.712  0.2074 -0.1855  0.0676
24278W        W43132  14.210  18.424   2.368 -0.2557  0.0190  0.1034
24279W        W43133   2.184  12.505  13.319  0.2443 -0.0555 -0.0148
24280W        W43134   8.067  12.334  13.151 -0.1326  0.2262 -0.2673
24281W        W43135   5.020  17.978   1.140 -0.1475  0.1507 -0.3283
24282W        W43136  11.351   1.792  12.546 -0.1156 -0.2046 -0.1504
24283W        W43137  13.881  11.357  11.683 -0.0736 -0.1741 -0.0913
24284W        W43138   8.312  10.871   1.681 -0.0223  0.1727 -0.2234
24285W        W43139  10.380   0.211  12.926  0.0125  0.1369  0.2546
24286W        W43140   4.996  10.511  15.084 -0.0349  0.0403  0.4386
24287W        W43141  18.191   5.673  11.719 -0.1567 -0.1229 -0.1593
24288W        W43142  15.687   8.875  12.886 -0.2239  0.0518  0.2440
24289W        W43143  17.172  16.770  11.752  0.0200 -0.3867 -0.0326
24290W        W43144   1.062   5.611   1.266  0.0777 -0.0314 -0.0816
24291W        W43145   7.049  13.370  14.211  0.0028  0.1396 -0.2026
24292W        W43146  11.908  18.819   3.582 -0.1614 -0.1911 -0.1964
24293W        W43147   5.249  16.692   0.489  0.0337 -0.0729  0.1064
24294W        W43148   1.140   1.983   2.027 -0.0608 -0.0784 -0.0848
24295W        W43149  13.113   8.722   4.044  0.2689 -0.2063 -0.0810
24296W        W43150   4.001  14.035  14.683 -0.1174 -0.3391 -0.0292
24297W        W43151   3.187  13.858   0.797 -0.0577  0.1743 -0.1640
24298W        W43152  18.840   1.733  13.214  0.5717 -0.1518  0.1212
24299W        W43153   3.798  15.362  11.017  0.2902 -0.5688 -0.1378
24300W        W43154  13.546   0.796  14.877 -0.0593  0.0466 -0.1496
24301W        W43155   5.145   4.343   3.111  0.0122 -0.2712  0.1248
24302W        W43156   3.413  16.287  10.764  0.0399 -0.1267 -0.1509
24303W        W43157  11.542  10.383   4.329  0.0501 -0.1443  0.2259
24304W        W43158   7.964  14.503   1.909  0.0034  0.1065  0.2206
24305W        W43159   2.709   7.171  14.673  0.1146 -0.1582  0.1523
24306W        W43160   3.765   9.804  14.669  0.1192 -0.1595  0.0169
24307W        W43161  16.506   9.678  12.542 -0.0531  0.4745 -0.0312
24308W        W43162  12.799   5.174  10.989  0.0574 -0.3241 -0.2201
24309W        W43163   8.194   4.004  11.851 -0.2490 -0.1741 -0.2912
24310W        W43164   7.621   5.184   1.097  0.0223  0.1969 -0.1203
24311W        W43165  10.742  12.821  12.348 -0.0778 -0.2457 -0.3433
24312W        W43166   3.005   8.075  11.468 -0.0373 -0.1963 -0.0848
24313W        W43167   5.404  10.790  15.101 -0.0640 -0.2785  0.0914
24314W        W43168  17.728   0.331  13.453 -0.1122  0.1319 -0.0574
24315W        W43169   1.191   7.793   3.488  0.0516  0.4416  0.2556
24316W        W43170   0.438  17.831  13.709 -0.0927 -0.1945 -0.0688
24317W        W43171   5.189  14.271  14.811  0.0810  0.1515  0.1672
24318W        W43172   6.298   8.616  15.062 -0.1210 -0.0570 -0.0703
24319W        W43173   7.978  12.451   0.079 -0.0829 -0.1099  0.0618
24320W        W43174   4.809  10.958   3.112  0.3498 -0.4123 -0.2897
24321W        W43175  17.410   3.518   4.240  0.1346 -0.1132  0.0334
24322W        W43176   6.476  14.590  13.197  0.0365  0.6055  0.3389
24323W        W43177   0.401   2.958  13.996 -0.0054 -0.2038 -0.0837
24324W        W43178  14.598   2.803  11.070 -0.1642 -0.0766  0.0790
24325W        W43179   6.854   4.890   3.640 -0.1533 -0.3581 -0.2552
24326W        W43180  13.821   6.070   2.551  0.0953 -0.0142  0.3460
24327W        W43181   2.577   5.096   3.707 -0.0671  0.1101 -0.1099
24328W        W43182   6.129   1.623   3.616  0.0207 -0.1527  0.0900
24329W        W43183   9.712   7.342   0.419  0.0220  0.0198  0.4014
24330W        W43184   5.348  11.457   1.907 -0.1017  0.0146  0.2847
24331W        W43185  10.552  14.341   2.223 -0.1865 -0.0177 -0.2469
24332W        W43186   9.177  15.541   1.302  0.3747 -0.2439  0.1698
24333W        W43187   7.108   3.642   2.558  0.0109  0.1238  0.0143
24334W        W43188  18.847  17.643  13.905 -0.4407  0.0637 -0.0528
24335W        W43189  12.378   8.436  10.696  0.0105  0.1466  0.2223
24336W        W43190   8.505   0.633  13.681  0.1573 -0.0830 -0.0796
24337W        W43191  17.697  15.676   3.900  0.0682  0.2185  0.0165
24338W        W43192  13.405   2.140  13.458 -0.1843  0.3368  0.0230
24339W        W43193  13.030   5.599  14.465  0.1494  0.0548  0.0849
24340W        W43194  13.027  14.228   2.134 -0.0392 -0.0005  0.4054
24341W        W43195   0.035  13.925   2.548 -0.1544  0.0023  0.0091
24342W        W43196  11.715  10.045   1.119 -0.3002  0.1681  0.1404
24343W        W43197   2.898   1.986   3.690 -0.0919 -0.2391  0.2077
24344W        W43198  18.748   9.809  11.459 -0.0550 -0.0209  0.3184
24345W        W43199   6.030   2.259   4.359 -0.0118 -0.0397 -0.3297
24346W        W43200   4.644   5.643  13.744 -0.0668  0.0868 -0.0060
24347W        W43201   1.761   6.992  11.762  0.2464 -0.0761  0.0442
24348W        W43202   8.492  15.733  13.252  0.0969  0.0242  0.0432
24349W        W43203  17.114   8.189  15.012  0.0275  0.3327 -0.0403
24350W        W43204   1.500  15.113   0.363 -0.0701  0.4322  0.2114
24351W        W43205  11.238  14.254  11.392 -0.2484 -0.0709 -0.1843
24352W        W43206   9.129   9.029  13.873 -0.0305  0.0181  0.0910
24353W        W43207  15.616   8.466  12.573  0.1891 -0.2303  0.0741
24354W        W43208   7.651  18.585   3.174 -0.1079 -0.0196 -0.0662
24355W        W43209  11.111   9.881  13.743 -0.0196  0.1077  0.0907
24356W        W43210   7.587   9.633  11.234 -0.0100  0.3413 -0.0459
24357W        W43211  13.986   4.120   0.122 -0.0221 -0.3094 -0.0941
24358W        W43212  17.868   8.745  10.775  0.1547 -0.2565  0.2513
24359W        W43213  18.092  15.132   1.290  0.0870 -0.3037  0.0036
24360W        W43214  13.685  13.599   4.438  0.1525  0.0811 -0.0271
24361W        W43215   4.964  11.194   3.764 -0.0667 -0.0337 -0.1083
24362W        W43216  16.748   3.833  11.232 -0.0629 -0.3140 -0.1672
24363W        W43217  14.147   6.601   1.235 -0.0910 -0.2038  0.0302
24364W        W43218  15.374   7.619   2.323  0.0145 -0.0322  0.1387
24365W        W43219  10.946   2.420   1.721 -0.1746 -0.1409 -0.0560
24366W        W43220   7.551   3.848  12.107  0.0098 -0.1634  0.3528
24367W        W43221  10.104   1.345   2.077 -0.1052 -0.0196 -0.0842
24368W        W43222   4.950   7.878  12.877 -0.0490 -0.2425  0.0883
24369W        W43223   5.960   3.335  12.099 -0.1186  0.3671 -0.0168
24370W        W43224  13.498  10.581  14.428 -0.3282 -0.2087 -0.0793
24371W        W43225  11.953   6.722   3.620  0.5639  0.3579 -0.0365
24372W        W43226   5.080  16.405   4.223 -0.1632  0.3203  0.1152
24373W        W43227   2.036  10.701  10.044 -0.0636  0.1369 -0.1107
24374W        W43228   2.392   8.473  12.100 -0.2159 -0.4696 -0.3305
24375W        W43229   7.907  17.574  14.309 -0.4279  0.1513 -0.0574
24376W        W43230  14.921  18.081  12.143 -0.1848 -0.3524 -0.2037
24377W        W43231   4.951  14.800  14.089 -0.3560  0.0475  0.2848
24378W        W43232  12.387   7.060   1.865  0.0887  0.1870  0.0005
24379W        W43233   3.791  16.253  11.643 -0.0422  0.4099  0.1479
24380W        W43234  17.184  10.155  14.794 -0.1149 -0.1418 -0.0435
24381W        W43235   5.953   7.877  13.927 -0.2300  0.0874 -0.2132
24382W        W43236   0.326   6.585  14.476 -0.1134  0.2776 -0.1957
24383W        W43237  12.133  14.873   0.301 -0.2893  0.0737 -0.1660
24384W        W43238  18.323  10.679  14.495 -0.2125  0.2344  0.0463
24385W        W43239  11.584  14.900   2.800 -0.0443  0.0744  0.0300
24386W        W43240  18.525   4.029  11.061 -0.0015 -0.0036 -0.5319
24387W        W43241  12.918   2.576   0.123  0.2035 -0.0858  0.0895
24388W        W43242  15.239   7.830  13.560  0.0671  0.1261  0.0617
24389W        W43243  10.046  12.167  11.594  0.0984 -0.3805 -0.2638
24390W        W43244  12.670   5.959   1.263 -0.1502  0.0210  0.2255
24391W        W43245   8.745   9.031   3.659 -0.1579 -0.0407 -0.0883
24392W        W43246  13.530   7.015   3.744  0.0077  0.0158  0.2114
24393W        W43247   0.414  17.010   5.188  0.0338  0.4006 -0.0757
24394W        W43248  17.263  13.702   2.467 -0.1294  0.1463  0.1579
24395W        W43249  17.252   7.697  12.527  0.0667 -0.1217 -0.2127
24396W        W43250  18.100  15.826   1.531  0.1522  0.0288 -0.2143
24397W        W43251   9.875   6.644   1.199  0.4064  0.0091  0.1420
24398W        W43252   1.590  11.351   9.638 -0.4247  0.0736 -0.1809
24399W        W43253  10.196   6.796   0.111 -0.0820  0.0612  0.2780
24400W        W43254  13.972  10.653  14.114 -0.0528  0.1237 -0.1383
24401W        W43255  18.520  12.904   1.406  0.2331  0.1260  0.0120
24402W        W43256   6.516   7.899  14.544 -0.0663 -0.0392  0.1473
24403W        W43257   7.968  15.622   3.035  0.2112  0.0980  0.0415
24404W        W43258  16.158  10.399  12.981 -0.1786 -0.2552  0.2736
24405W        W43259   2.085   7.790  11.414 -0.2564  0.1633 -0.0504
24406W        W43260   7.768   4.674   1.388 -0.0749 -0.0377 -0.1820
24407W        W43261  10.429  10.131   3.971  0.1091 -0.0307  0.0878
24408W        W43262  13.430  12.254  11.789 -0.1444 -0.1240  0.0514
24409W        W43263   4.944  13.100   0.471  0.1407  0.0455 -0.2477
24410W        W43264   4.700   1.148  14.738 -0.0028  0.1946  0.4291
24411W        W43265   4.290  14.429  10.431 -0.2427  0.1756 -0.1631
24412W        W43266   5.278  14.050  11.436 -0.1183 -0.1660 -0.0209
24413W        W43267   1.023   5.074   3.810  0.0200  0.1447  0.0160
24414W        W43268   5.865   4.269   0.798 -0.3459 -0.1393 -0.1313
24415W        W43269   5.074  10.167  14.312 -0.0383 -0.1662  0.0023
24416W        W43270   8.342  18.364   2.444  0.0369  0.0797  0.1281
24417W        W43271  18.078  18.754  13.465  0.0920  0.3776  0.0313
24418W        W43272  10.807   9.270  14.705 -0.2582  0.1152 -0.2014
24419W        W43273   3.117  15.148  14.032 -0.3951  0.2695 -0.4326
24420W        W43274   0.299  10.167   4.169  0.0650 -0.0082  0.0786
24421W        W43275   3.189   8.875  14.627  0.0420  0.0816  0.0434
24422W        W43276  17.185  18.425  13.412 -0.1590  0.2893 -0.0879
24423W        W43277  14.871  10.312  13.805  0.2519 -0.1493  0.3126
24424W        W43278   6.607  14.729  14.469 -0.0696  0.1337  0.1119
24425W        W43279   8.714  10.001  12.967 -0.1044 -0.3178 -0.1347
24426W        W43280   0.764  17.693   1.648 -0.0790 -0.0219  0.4922
24427W        W43281   6.072   6.565  13.300 -0.0486  0.1947 -0.1134
24428W        W43282   5.771  13.132  14.095 -0.0244  0.0534 -0.0713
24429W        W43283  12.252  11.113   0.813  0.1058  0.0049  0.3618
24430W        W43284   1.814   5.915  13.995 -0.1835 -0.0603  0.2093
24431W        W43285   9.939  10.220   3.894 -0.1514  0.0616  0.0361
24432W        W43286   2.151   7.111  10.960 -0.3952  0.0892 -0.1041
24433W        W43287  11.860   2.606  11.021  0.0827 -0.1596 -0.2228
24434W        W43288   3.144  17.544   2.612 -0.0193 -0.0216 -0.0393
24435W        W43289   4.432   2.202   1.983  0.1585  0.0765  0.0530
24436W        W43290   0.164  12.176   0.696  0.0322 -0.0246  0.1655
24437W        W43291  12.062  17.062  13.797 -0.3817 -0.3070  0.3279
24438W        W43292   9.948  11.096  12.768  0.1101 -0.3529 -0.3746
24439W        W43293  14.095  10.063  11.039  0.2089 -0.3223 -0.1054
24440W        W43294   7.076   1.887   0.863 -0.2451  0.1239 -0.3371
24441W        W43295   9.910  12.454  11.193  0.1096 -0.3378 -0.2115
24442W        W43296   0.766   0.246   3.022 -0.1716 -0.1687 -0.0501
24443W        W43297   3.284   9.933   0.776 -0.0636  0.3250  0.0104
24444W        W43298  17.510   5.858  14.450 -0.0221 -0.4215  0.2565
24445W        W43299  18.630   8.743   2.582 -0.0807  0.0464  0.2540
24446W        W43300   6.995   2.314   0.431 -0.0361  0.2681 -0.3455
24447W        W43301  18.238   5.816   0.641  0.2482  0.0239 -0.0141
24448W        W43302   1.053  13.760   4.282  0.0167  0.0224 -0.0168
24449W        W43303  13.615   7.845   1.103  0.0528  0.2432  0.0999
24450W        W43304   8.090   7.367   3.585 -0.0301  0.2977 -0.2529
24451W        W43305  16.812   9.536  13.459 -0.2273 -0.0890 -0.2698
24452W        W43306  14.917   5.394   2.864 -0.2557  0.2491 -0.2324
24453W        W43307   9.173   9.878  14.702  0.0981 -0.1086 -0.0324
24454W        W43308   6.591   8.907   1.655 -0.0338  0.3524 -0.0684
24455W        W43309   7.454  14.822   2.171  0.4082  0.1418 -0.4523
24456W        W43310  16.373   4.972  13.884  0.2531  0.2731  0.0160
24457W        W43311  15.396  11.055  12.653  0.0491  0.0892  0.1124
24458W        W43312  17.580  17.625  11.641  0.1453 -0.1795  0.0103
24459W        W43313   1.870   8.411   1.022  0.1296  0.0123 -0.2788
24460W        W43314   7.258   7.282   3.502  0.2258 -0.2168 -0.0111
24461W        W43315  18.707   9.474  13.448  0.1900  0.0860 -0.3000
24462W        W43316  13.408  11.963   3.185  0.0079  0.0703  0.1042
24463W        W43317  12.240   7.475  14.123 -0.1750  0.0862  0.6781
24464W        W43318   6.563  14.140   2.106  0.0127 -0.2698  0.4033
24465W        W43319   9.990  11.461  13.609  0.1442  0.1704 -0.2082
24466W        W43320  14.740  15.922  12.070  0.0566 -0.0319 -0.1343
24467W        W43321   9.836  13.117   3.021  0.1799 -0.0619  0.1243
24468W        W43322   3.158  11.909  13.582  0.0163  0.1221 -0.0570
24469W        W43323   4.831  10.639  12.435  0.0820 -0.0274 -0.0294
24470W        W43324  15.675  16.175   4.722  0.0013  0.0307 -0.0392
24471W        W43325  13.669   6.734   1.454 -0.0168  0.2231 -0.0548
24472W        W43326  13.840   8.247  12.518 -0.0542  0.0984  0.0177
24473W        W43327  18.331   5.328  10.776  0.0534 -0.0915  0.0396
24474W        W43328   3.103   3.379  13.880  0.1694 -0.1097  0.1069
24475W        W43329   7.666   5.918  14.247  0.1704 -0.0051 -0.2487
24476W        W43330   0.775  16.573  14.579  0.1154 -0.1383  0.1950
24477W        W43331   7.090  16.104   2.080  0.2464  0.2118 -0.0924
24478W        W43332   0.723  14.625   1.533  0.1371 -0.2869  0.1561
24479W        W43333   8.102   8.324  11.569  0.0373 -0.2553 -0.4394
24480W        W43334  15.842   2.750  11.040  0.1880  0.2257  0.0133
24481W        W43335  16.432   0.882  13.975  0.2649  0.0773  0.0350
24482W        W43336   7.710  12.653  13.379 -0.0223  0.0672  0.4232
24483W        W43337   9.522  11.055   0.380  0.2223 -0.2073 -0.0227
24484W        W43338  17.994  13.261   4.946  0.1892  0.3551  0.0364
24485W        W43339   9.619  11.998   2.644  0.2553 -0.1889  0.0820
24486W        W43340  15.458  12.954  13.243 -0.0227 -0.0356 -0.0491
24487W        W43341   6.864  13.322   4.366  0.1482  0.0236  0.0047
24488W        W43342   9.039   0.640  12.367  0.0576 -0.3960 -0.0831
24489W        W43343   8.894   2.994  10.204  0.2078 -0.0798 -0.1016
24490W        W43344   3.994  14.744   1.882  0.2294 -0.0988 -0.0518
24491W        W43345  10.358   0.920  11.485  0.2022  0.0934 -0.2220
24492W        W43346  14.968  17.958  13.005  0.2493 -0.2937 -0.1203
24493W        W43347   5.737   1.547   2.297  0.1156  0.3316  0.1748
24494W        W43348  17.867  16.490   3.135 -0.0305  0.2501 -0.2098
24495W        W43349  14.960  15.093   0.053 -0.0461 -0.2249 -0.2941
24496W        W43350   1.843  15.686   1.820 -0.1488 -0.1241 -0.0964
24497W        W43351  13.085   9.525  11.645 -0.1349  0.0130 -0.2442
24498W        W43352   3.603   1.873  13.121  0.0350  0.0327 -0.0454
24499W        W43353   6.156   9.538   1.072  0.0116  0.2721 -0.1936
24500W        W43354  14.932   3.271   2.273  0.0627  0.2955 -0.1453
24501W        W43355  17.568   7.550  14.626 -0.0513  0.0773 -0.2254
24502W        W43356   2.017   5.894   0.715  0.1208 -0.0813  0.1763
24503W        W43357   6.209  15.700  11.613  0.0298  0.1525  0.2140
24504W        W43358   5.670   8.754   4.849  0.0767 -0.1871  0.2052
24505W        W43359  12.480   1.972  11.618  0.1592  0.1302  0.0935
24506W        W43360   8.606  13.414   3.636  0.2960 -0.3012  0.0584
24507W        W43361   7.301   0.509   4.341 -0.0732  0.1211 -0.1104
24508W        W43362   5.606   7.437  14.978 -0.2242  0.0874  0.3320
24509W        W43363  16.337   5.628   3.826 -0.2862 -0.1931  0.1330
24510W        W43364  18.696  10.364  14.386 -0.0800 -0.1795 -0.2387
24511W        W43365  18.193   3.436  13.462 -0.3417  0.0963  0.2888
24512W        W43366  13.123   7.711  14.927 -0.1310 -0.0152 -0.2698
24513W        W43367  15.835   4.008  11.448  0.0210 -0.0416 -0.0950
24514W        W43368   2.452  11.719   0.831 -0.0882 -0.3005  0.0127
24515W        W43369   3.130  10.444  14.835  0.0083 -0.0653  0.0076
24516W        W43370  14.502   3.792   4.148 -0.0701  0.0616 -0.4343
24517W        W43371  15.435   7.650   0.995 -0.1705  0.2865 -0.1695
24518W        W43372  18.828  17.117  14.014  0.1226 -0.3896  0.0755
24519W        W43373   8.619   5.822  14.319  0.0544 -0.0599 -0.1133
24520W        W43374   3.046   0.602   2.318 -0.1223 -0.0185 -0.0865
24521W        W43375  13.391   2.834  14.047  0.2082  0.0186 -0.1150
24522W        W43376   9.255  12.573  11.976 -0.2358 -0.1884 -0.0298
24523W        W43377   6.964   2.619   3.801 -0.3255 -0.2922 -0.0163
24524W        W43378  16.074  17.043  12.545  0.1628  0.0728  0.1489
24525W        W43379   4.858   7.522   5.241  0.0906  0.2201  0.0302
24526W        W43380   2.905   7.103   2.996 -0.3237  0.1739 -0.0015
24527W        W43381  16.689  12.036   0.213  0.1131  0.0913  0.0679
24528W        W43382  12.703  12.046   1.759 -0.2195 -0.2655  0.3758
24529W        W43383   8.421  11.435  12.727 -0.3089  0.2311  0.0715
24530W        W43384  18.156   5.392   0.108 -0.0397 -0.0179  0.3221
24531W        W43385   0.486   4.821  10.689  0.0191  0.0656  0.1219
24532W        W43386   1.040   9.685  14.347  0.1035 -0.1413  0.3432
24533W        W43387  13.819  11.441   5.008 -0.0981  0.0671  0.0605
24534W        W43388   8.073   1.791  11.933  0.0736 -0.1406  0.0979
24535W        W43389   5.325  14.500  11.653  0.3697  0.0934 -0.1957
24536W        W43390   8.191  13.037   2.793 -0.4060  0.2041  0.0785
24537W        W43391   3.116   8.850  11.021 -0.1612 -0.0960 -0.2461
24538W        W43392  16.314   5.582  14.987  0.0504 -0.0565 -0.1741
24539W        W43393  12.503   4.091  11.866 -0.0665  0.4147  0.2225
24540W        W43394   5.170  13.565  14.471 -0.0014  0.1695 -0.0301
24541W        W43395  15.399   2.083   3.419 -0.0191  0.1475  0.1661
24542W        W43396   0.732   4.932  11.480 -0.2626  0.0767  0.3900
24543W        W43397  11.766  18.051   0.503  0.0041 -0.0132 -0.4706
24544W        W43398  11.311  13.042   2.339 -0.1466 -0.0312 -0.0851
24545W        W43399   0.276  10.681   0.362 -0.0363 -0.2223 -0.1765
24546W        W43400   8.694   8.413   4.945 -0.1765  0.0922 -0.1174
24547W        W43401   4.519   5.572  11.679 -0.1434 -0.2944 -0.1570
24548W        W43402   0.436   0.460  14.633  0.0263 -0.0483  0.0190
24549W        W43403   6.782  10.540  13.796 -0.0512 -0.0088 -0.0334
24550W        W43404  15.995   3.905   0.672 -0.0180 -0.1098 -0.0048
24551W        W43405   2.150  13.031  13.786 -0.1655 -0.3952 -0.0744
24552W        W43406  14.036   7.092   1.504 -0.0796 -0.2171  0.1826
24553W        W43407   7.160   8.027   3.141 -0.1001  0.2007  0.1535
24554W        W43408  12.675   0.865   3.593  0.0627  0.1278  0.1332
24555W        W43409   5.518   1.844  14.357 -0.2455  0.1269 -0.2190
24556W        W43410   9.519  12.260   1.787 -0.1289 -0.1579 -0.1660
24557W        W43411  18.210  14.372   2.560  0.2091 -0.1951  0.0314
24558W        W43412  18.425   7.589   3.932  0.1121  0.4427  0.1210
24559W        W43413   5.276  15.290   0.173 -0.1059  0.0132  0.1226
24560W        W43414  12.293  12.896   1.366 -0.0975  0.2092 -0.0903
24561W        W43415   6.865   7.473   0.257  0.3082 -0.2226 -0.1920
24562W        W43416   7.073   3.237   0.047 -0.1178 -0.0032  0.2577
24563W        W43417  10.648   7.587   0.331 -0.1349 -0.3654  0.1052
24564W        W43418  12.228   5.292   2.628  0.3481 -0.2963 -0.1133
24565W        W43419  11.250   5.049   3.461  0.0044 -0.1823  0.3292
24566W        W43420  15.996   6.171  14.447  0.2840  0.0900 -0.1976
24567W        W43421   4.365   0.694  12.196  0.2704 -0.3226 -0.0503
24568W        W43422   6.602  15.947   1.436 -0.1815  0.2005  0.2401
24569W        W43423   1.088   6.351  14.794 -0.0458  0.0268  0.3936
24570W        W43424   1.985  17.497   0.478 -0.0525  0.0731 -0.2159
24571W        W43425   9.899  17.327   4.202  0.1990  0.3972  0.0575
24572W        W43426  14.578  16.800  12.311 -0.0296 -0.1384 -0.0232
24573W        W43427  11.059   2.944   0.938 -0.0114  0.0979 -0.0772
24574W        W43428  11.860  11.160   4.996 -0.2836  0.1056 -0.1310
24575W        W43429   2.979  16.490   1.425  0.1368 -0.0331  0.1645
24576W        W43430  16.204   1.366   3.287  0.1511  0.0976 -0.3163
24577W        W43431   9.520   1.296   4.233  0.1707 -0.2064  0.1638
24578W        W43432   9.921   7.696   0.670 -0.1760 -0.0741  0.3143
24579W        W43433  14.218   4.625  13.108 -0.1290 -0.2993 -0.3725
24580W        W43434   0.860  10.148  11.410  0.1282 -0.0234 -0.1244
24581W        W43435  16.263   7.863  13.603 -0.0796  0.1677 -0.0112
24582W        W43436   8.135  17.318  13.011  0.1287 -0.1825  0.0390
24583W        W43437  11.241  10.452  12.410  0.1470  0.1219  0.1276
24584W        W43438  12.922   5.180   3.977  0.0651 -0.0887 -0.2318
24585W        W43439  18.784  18.542  11.316  0.3328  0.2434  0.1589
24586W        W43440  15.150   0.887  10.358 -0.0609 -0.4025 -0.1121
24587W        W43441   6.317   7.504   3.072 -0.1936 -0.1255  0.3714
24588W        W43442  15.944  14.772  10.834  0.2772 -0.1803 -0.1582
24589W        W43443   4.541  17.866   0.782  0.1331  0.0760  0.0954
24590W        W43444   2.275   7.790  13.331 -0.0945 -0.0880 -0.0818
24591W        W43445  18.081  17.286   0.952 -0.3589  0.0966 -0.1981
24592W        W43446  15.434  12.124  12.853  0.0267  0.2724  0.0177
24593W        W43447   5.499   9.010  13.404  0.0973 -0.1175 -0.4398
24594W        W43448   5.338   0.170   2.040 -0.0965  0.3213  0.1085
24595W        W43449   1.639  11.587  12.428  0.0116  0.0255 -0.2270
24596W        W43450  12.956   6.229  11.332 -0.3808 -0.0142  0.1302
24597W        W43451   5.925   5.102   0.218 -0.1418 -0.0375  0.1759
24598W        W43452   3.502  13.727   2.083 -0.1178 -0.1746 -0.2634
24599W        W43453   0.248  11.448   4.256  0.0002 -0.0031  0.2477
24600W        W43454  16.053  12.955  14.693  0.1131 -0.1413  0.4125
24601W        W43455   0.918  17.160   3.315  0.0392 -0.1582 -0.0369
24602W        W43456  15.808   9.682  11.076 -0.0325  0.0201  0.1620
24603W        W43457   6.111   8.152  14.334 -0.0021  0.1369  0.1415
24604W        W43458   7.812   5.509  14.020 -0.1347 -0.0949  0.0427
24605W        W43459  17.676  18.355  13.418  0.0993 -0.4614 -0.1592
24606W        W43460  15.062   5.410   1.693 -0.2254  0.4461 -0.3611
24607W        W43461  12.804   5.373   3.510 -0.1569  0.2312 -0.1298
24608W        W43462  10.160  14.070  12.554  0.1476 -0.2117  0.0550
24609W        W43463   7.372   8.176  14.302  0.0171  0.0819 -0.0834
24610W        W43464  18.521  16.183  12.937 -0.1991  0.3226 -0.1079
24611W        W43465   1.380   3.539  14.124 -0.2018  0.0072 -0.0542
24612W        W43466  13.865  11.735   4.541  0.0516  0.1721  0.1010
24613W        W43467  14.301   9.272  12.224 -0.1802 -0.1152 -0.2170
24614W        W43468  18.380  12.252   1.966  0.0981  0.0931 -0.1078
24615W        W43469  18.063   2.118   2.986 -0.1117 -0.0995 -0.0321
24616W        W43470   9.378   1.699  13.328  0.3678  0.3679  0.4851
24617W        W43471  10.027  18.335   3.389  0.2917 -0.2132 -0.0980
24618W        W43472   3.092   1.361   0.533  0.1607 -0.0208 -0.0398
24619W        W43473  12.678   7.035  12.614  0.2701  0.1177 -0.2443
24620W        W43474   5.282   7.093   4.383 -0.4614  0.0132  0.0841
24621W        W43475   5.812   6.524   4.025 -0.1860  0.0063 -0.0975
24622W        W43476   6.687  18.081  14.123  0.2643  0.0386 -0.1940
24623W        W43477  12.138   3.220   2.036  0.3089  0.0980  0.1701
24624W        W43478   5.837   0.122   0.171 -0.1395 -0.0354  0.1327
24625W        W43479   2.460  15.855  14.619  0.0882  0.4393  0.0226
24626W        W43480   1.467   1.566   1.795  0.0386  0.2372  0.0719
24627W        W43481  10.611   3.170   3.550  0.0061 -0.2022  0.0726
24628W        W43482   4.318   3.396  11.908  0.0641 -0.2379  0.0131
24629W        W43483   9.979  14.884   0.566 -0.1116  0.2041  0.0850
24630W        W43484  16.793   0.264   1.013  0.2165  0.2885  0.1321
24631W        W43485  13.026   1.805   4.017 -0.1370 -0.1729  0.0016
24632W        W43486  16.922   5.066  11.959  0.0332 -0.0072 -0.0737
24633W        W43487   4.749   0.674   0.824 -0.1525 -0.1678 -0.2331
24634W        W43488   4.596  13.235  11.557 -0.0071 -0.3814 -0.0030
24635W        W43489  18.136   3.056   3.528  0.0628  0.1396 -0.1484
24636W        W43490   4.414  11.257  14.601 -0.0162 -0.2173 -0.1480
24637W        W43491   1.200   8.517  12.587  0.2578 -0.0025  0.2526
24638W        W43492   0.077   0.086  11.662 -0.0880  0.4323 -0.2540
24639W        W43493  14.861   0.140   3.582 -0.1561 -0.1981 -0.1757
24640W        W43494   3.193  13.543  14.704 -0.2373  0.4942 -0.0322
24641W        W43495  14.114   1.641  12.887  0.0045  0.0902 -0.1888
24642W        W43496   8.823  10.654  11.778 -0.1538  0.0097  0.0536
24643W        W43497   1.062   6.579   2.978  0.2593  0.1149  0.2220
24644W        W43498   7.889   8.568  12.610  0.0654 -0.1823  0.0594
24645W        W43499  17.067   1.482  14.939  0.0807  0.0843 -0.0794
24646W        W43500  16.639   8.741   0.493 -0.0236  0.1290 -0.0071
24647W        W43501  15.798   1.509   0.850  0.3177  0.0786 -0.2104
24648W        W43502   1.599   4.625  12.705 -0.0164 -0.0666 -0.3752
24649W        W43503  11.047   5.159  14.478 -0.1115  0.1463  0.2036
24650W        W43504   9.156   2.599  12.671 -0.0345  0.1665  0.2421
24651W        W43505   1.441   0.538   1.331 -0.0644 -0.1403 -0.3559
24652W        W43506   7.476   0.272   3.905  0.0235  0.1798  0.1174
24653W        W43507   7.171  18.193  15.079 -0.4419  0.4926 -0.1163
24654W        W43508   2.515   8.140   3.279  0.4616 -0.0620 -0.2765
24655W        W43509  11.220  10.424   0.536 -0.3194 -0.3146  0.3175
24656W        W43510  11.488   6.168   0.790 -0.0497 -0.0310 -0.0884
24657W        W43511   1.893   8.150  15.091 -0.0804 -0.1245 -0.3446
24658W        W43512  14.022   4.995  12.465 -0.0864 -0.2518  0.1644
24659W        W43513  11.479   5.297   4.536  0.0779  0.3390  0.1078
24660W        W43514  15.709   6.610  11.888 -0.1066  0.1085  0.1708
24661W        W43515   5.405   7.057  14.716 -0.2587 -0.0546  0.0827
24662W        W43516  12.482   8.074   0.324 -0.3371  0.1587  0.1031
24663W        W43517   3.624   6.151  14.698  0.0971  0.1497 -0.0943
24664W        W43518   8.381  12.039  10.038  0.1340  0.1902  0.0791
24665W        W43519   2.594   7.496   3.023 -0.2593  0.1055 -0.1044
24666W        W43520   5.471  15.105  11.055  0.0606 -0.0650 -0.2780
24667W        W43521   0.449   5.769   2.350 -0.0762 -0.1449  0.0995
24668W        W43522   6.457  11.509  12.687  0.3072 -0.0449  0.2975
24669W        W43523   8.546   7.149  12.863  0.0697  0.2560  0.0432
24670W        W43524   6.757   1.313  11.189 -0.2616  0.1165  0.2727
24671W        W43525  16.703   9.690   4.246 -0.1193  0.0403 -0.1570
24672W        W43526  10.779  14.401   1.551  0.1921  0.0875  0.0333
24673W        W43527   1.891  17.193   2.033  0.0664  0.2159 -0.0102
24674W        W43528   8.815  13.416  13.179 -0.0617  0.3132 -0.0224
24675W        W43529   9.526   8.552   2.926  0.2923  0.1186  0.4019
24676W        W43530  13.495  12.250   5.208  0.0468  0.0077 -0.2087
24677W        W43531   7.497  15.620   4.178  0.1899 -0.0993 -0.0163
24678W        W43532   9.814   5.479   0.673  0.2473  0.1155 -0.0523
24679W        W43533  10.533   2.014  14.409 -0.0539 -0.0697  0.1215
24680W        W43534  11.296  14.959  14.074  0.0194 -0.0874 -0.0713
24681W        W43535  14.747   0.213   1.587  0.0122 -0.1621 -0.2089
24682W        W43536  14.609  16.946   0.434 -0.0861 -0.0405  0.0784
24683W        W43537  13.772   4.371  13.225 -0.1150 -0.2467  0.1712
24684W        W43538  15.795  12.181  13.510  0.1383 -0.2656 -0.2337
24685W        W43539  17.567  11.017   3.555  0.2399 -0.0228 -0.0543
24686W        W43540   5.831  14.740   1.769  0.0019 -0.1558  0.0669
24687W        W43541  17.669   9.379   9.659 -0.1107  0.2443 -0.0132
24688W        W43542  16.223   9.385  14.136 -0.1110 -0.1473 -0.0380
24689W        W43543  14.408   3.220  11.992 -0.0909 -0.3044  0.3224
24690W        W43544   1.460   4.458  11.168 -0.0707 -0.1608  0.0568
24691W        W43545   6.244   6.947  12.164 -0.1979  0.2094  0.0854
24692W        W43546  13.779   9.169   3.968 -0.1106  0.1496 -0.4538
24693W        W43547   5.024   5.510  12.674 -0.0328 -0.0199  0.1987
24694W        W43548   7.097  18.188  12.129 -0.0316 -0.1715 -0.3588
24695W        W43549   2.393  10.734   1.938  0.0449  0.1490  0.0758
24696W        W43550   8.969   9.831  13.860  0.0957  0.0017 -0.1974
24697W        W43551  15.648  12.550   3.685 -0.0897  0.1715  0.1696
24698W        W43552   8.187   1.779   1.501  0.0543 -0.1097  0.2867
24699W        W43553   3.902   5.434  13.637  0.2300  0.0259 -0.0657
24700W        W43554  17.129   9.626  14.255 -0.0676  0.1459 -0.1242
24701W        W43555  10.418  13.765  13.948  0.4734 -0.2147 -0.0789
24702W        W43556  11.604  13.396  13.390  0.0469 -0.0123 -0.0157
24703W        W43557   7.631   1.978  12.011  0.1169  0.1226 -0.2029
24704W        W43558   3.337   1.063  14.137 -0.0068  0.3075  0.1241
24705W        W43559  16.446   9.708  11.693 -0.2098  0.2060 -0.2618
24706W        W43560   6.438  16.886  15.020 -0.1313 -0.1917 -0.0937
24707W        W43561   2.109   1.849  14.880  0.3310  0.1533 -0.1100
24708W        W43562  15.130  14.660  11.457 -0.0761  0.2653  0.2559
24709W        W43563   7.542  17.020   2.506  0.0149 -0.0870  0.0519
24710W        W43564   8.670   3.719  15.081 -0.3099  0.3355  0.1479
24711W        W43565  15.125  12.579  13.182 -0.1017  0.1951 -0.0248
24712W        W43566  15.411   7.555  10.650  0.3409  0.1559  0.0439
24713W        W43567   4.194  17.398   1.485  0.0245  0.0955 -0.1255
24714W        W43568   5.141   0.546   2.659 -0.2552  0.1084  0.0402
24715W        W43569   2.391   4.825   3.217  0.1838  0.2916  0.3981
24716W        W43570  18.337  12.443  12.727 -0.0274  0.1898  0.2199
24717W        W43571   8.384   2.138  12.818 -0.1055  0.3617  0.2698
24718W        W43572  12.480  16.653   0.624  0.1290  0.2252  0.3053
24719W        W43573  15.804  14.016   2.542  0.1640 -0.0851  0.2745
24720W        W43574  11.993  11.858   1.370  0.3114  0.3040 -0.0665
24721W        W43575   0.325   0.669   3.563  0.0888  0.0854 -0.0404
24722W        W43576  13.858   3.850  12.556  0.0575  0.0027  0.1406
24723W        W43577   1.629   6.086   0.456 -0.1761  0.1147  0.0248
24724W        W43578  11.868   0.097   0.613  0.1595  0.0516  0.1843
24725W        W43579   7.082   3.640   4.918  0.0915  0.0973 -0.0768
24726W        W43580  12.301  11.417   2.144  0.0544  0.2126 -0.1065
24727W        W43581  16.004   1.457   0.366  0.2048 -0.0839  0.1303
24728W        W43582   7.564   3.248  13.484 -0.0201 -0.0063  0.2169
24729W        W43583  14.518  17.174   3.745 -0.0957 -0.1993 -0.0259
24730W        W43584  13.276   6.214   3.099  0.0543  0.1553 -0.0164
24731W        W43585   9.849  14.395  14.895 -0.0185  0.1214 -0.0973
24732W        W43586   7.787   3.311   4.549  0.1221 -0.0414 -0.0958
24733W        W43587   6.500   0.149   4.074 -0.1214  0.2283  0.0097
24734W        W43588  12.996  15.018   2.448  0.1876  0.3591  0.1811
24735W        W43589  14.339   6.068  14.869 -0.3980  0.0005  0.1481
24736W        W43590   8.249  14.877  12.188 -0.3947  0.1089 -0.1332
24737W        W43591  16.654   6.110  10.547  0.0271 -0.2216 -0.0932
24738W        W43592  18.806  10.798   1.148 -0.0498  0.0171  0.1760
24739W        W43593   8.288   1.875   5.154 -0.2780 -0.1346  0.0908
24740W        W43594  14.408  17.425  10.732  0.0389 -0.0290 -0.3569
24741W        W43595  11.100   6.732  12.239 -0.3637  0.2555 -0.0994
24742W        W43596   6.327  18.544   3.904 -0.3195  0.2201  0.0908
24743W        W43597  14.066   0.214  15.061 -0.0113  0.2695 -0.0220
24744W        W43598   9.803  13.682   1.390 -0.0130  0.0076  0.2172
24745W        W43599   2.031  10.403   2.036 -0.0714 -0.1275  0.1185
24746W        W43600  12.390   7.566   2.071 -0.4565  0.0760  0.1020
24747W        W43601   1.804   5.084  11.313 -0.1496 -0.2908 -0.0719
24748W        W43602  10.987   3.692  11.734  0.0037  0.3105  0.1604
24749W        W43603  10.036  11.102   2.547  0.1542  0.3562  0.0175
24750W        W43604  17.289  13.292  14.828  0.3621  0.1960  0.1081
24751W        W43605  18.168   6.894  11.013 -0.0917 -0.2660 -0.0807
24752W        W43606   6.136   2.984  13.155  0.2260  0.4318 -0.1438
24753W        W43607   5.327   5.534  14.699  0.0549  0.3309  0.1290
24754W        W43608   2.323  17.134   4.233 -0.0019 -0.0502 -0.0245
24755W        W43609   2.386   6.438  12.304  0.1958 -0.0088 -0.4577
24756W        W43610   6.223  13.044   2.747  0.0013 -0.0032 -0.1960
24757W        W43611   9.228  11.603  13.486 -0.2691 -0.5146 -0.1027
24758W        W43612   0.359  11.052   9.604  0.0398  0.2134 -0.0086
24759W        W43613  15.333  11.023  13.135 -0.0351 -0.1774  0.0868
24760W        W43614  12.423  16.217  13.616  0.0938  0.0458 -0.1037
24761W        W43615  11.096  15.717  12.486 -0.1233  0.0238  0.1788
24762W        W43616   0.233  16.004  11.110  0.0485  0.0759  0.1304
24763W        W43617  15.333   0.397  10.564 -0.2540 -0.0837  0.0894
24764W        W43618  18.213  16.188  14.253  0.1503  0.0046 -0.1477
24765W        W43619  15.333  12.688  11.159  0.0309  0.3742  0.2113
24766W        W43620  17.546   3.000  10.748 -0.1516 -0.2506 -0.1488
24767W        W43621  17.868  10.745  10.715  0.0766  0.2419  0.0046
24768W        W43622  16.693  15.661  15.110  0.1557 -0.0430 -0.1434
24769W        W43623  18.588  12.992   2.347 -0.1561 -0.1205  0.2185
24770W        W43624   3.194   5.694  10.348  0.0982  0.2025  0.0659
24771W        W43625   4.270  12.790  10.789  0.0831 -0.0863 -0.0366
24772W        W43626   4.824   7.687   1.300 -0.0808  0.0544  0.0067
24773W        W43627  16.981  17.764  12.405 -0.3599  0.0149 -0.1916
24774W        W43628  17.044  16.603  14.787 -0.0751  0.3196 -0.1820
24775W        W43629   6.344  18.566   2.989 -0.0987 -0.0732  0.0553
24776W        W43630  17.742   1.094   1.250  0.0108 -0.0139 -0.0177
24777W        W43631   1.333  17.215  12.286  0.1334 -0.0197  0.1403
24778W        W43632  13.268   6.779  11.478 -0.1514  0.3070 -0.0057
24779W        W43633  16.026  17.938   4.470 -0.1863  0.1504 -0.0408
24780W        W43634   4.738  17.492   2.238 -0.0937 -0.0743  0.1616
24781W        W43635   7.152  10.515   0.863  0.0634  0.2673  0.0448
24782W        W43636   1.822   4.982   1.952 -0.3172 -0.1686 -0.0284
24783W        W43637   8.440   6.441  14.100 -0.0988  0.0983 -0.2681
24784W        W43638  11.418   9.285   3.824 -0.0100 -0.0283 -0.2117
24785W        W43639  13.068   0.488   5.280  0.0230  0.1271 -0.0998
24786W        W43640   9.995  14.000   0.882  0.1322 -0.1760  0.1930
24787W        W43641  15.649  11.178  10.919 -0.1514  0.2834 -0.0420
24788W        W43642   8.118   5.224   2.373  0.1170  0.2602 -0.3978
24789W        W43643  12.767  15.063  12.094  0.0019  0.0496 -0.2628
24790W        W43644   1.328  13.459  11.567  0.2290 -0.0183  0.2315
24791W        W43645   6.665  15.308   4.024  0.0914  0.2877 -0.1502
24792W        W43646   4.568  14.855  15.084 -0.4202  0.1511  0.2159
24793W        W43647   2.422  10.790  13.240  0.1987 -0.1633  0.0333
24794W        W43648   8.815  18.177  12.626  0.1144 -0.0426 -0.0316
24795W        W43649   2.924  10.323  14.234  0.1251 -0.0635 -0.1190
24796W        W43650  13.435  18.166   1.689  0.0165 -0.2198  0.1069
24797W        W43651  18.249  13.970   3.328  0.0574  0.2575 -0.0037
24798W        W43652  12.892   2.121   1.703 -0.0708  0.1630  0.1992
24799W        W43653  12.454  16.805   2.672  0.0306 -0.1168  0.0946
24800W        W43654  18.540   5.267   4.630 -0.0922 -0.1712  0.1208
24801W        W43655   9.168   4.353   0.455 -0.1235 -0.1868  0.1759
24802W        W43656  14.121  11.740   3.676 -0.1956 -0.0728 -0.4645
24803W        W43657  15.497   7.312   3.145 -0.1674 -0.1224 -0.0930
24804W        W43658  17.225   3.601   1.296 -0.0483  0.0941  0.3124
24805W        W43659   7.460   6.276  13.990 -0.1379 -0.0645 -0.1085
24806W        W43660   4.563   5.518  12.991 -0.2172 -0.0102  0.3247
24807W        W43661  15.975   3.565   5.169  0.0415  0.1261  0.1921
24808W        W43662   7.143   8.565   0.571 -0.2087 -0.2748 -0.0066
24809W        W43663   3.196   7.978   4.410 -0.1005 -0.0107 -0.0837
24810W        W43664   2.674   8.641   2.951 -0.2111  0.2643  0.1981
24811W        W43665   4.164   8.309   9.784 -0.3819 -0.3546 -0.3686
24812W        W43666  15.077   0.662  12.135  0.1046 -0.2534 -0.2138
24813W        W43667  13.255   1.152  14.573 -0.0013  0.2503  0.2824
24814W        W43668   4.618  16.615  14.254  0.2905  0.0052 -0.0244
24815W        W43669  13.856  16.917   0.089  0.2369 -0.2957  0.2959
24816W        W43670   6.849   1.248  13.814 -0.2891  0.0993  0.1205
24817W        W43671  10.031   9.151  14.415  0.1031  0.1245 -0.1550
24818W        W43672  14.982  13.734  10.705  0.1289 -0.0758 -0.0164
24819W        W43673   1.715  16.216   1.690 -0.0762  0.0861 -0.1746
24820W        W43674   7.123  17.124   3.036 -0.0219  0.0838  0.1950
24821W        W43675  11.690  18.498   0.763 -0.1991 -0.2532  0.3149
24822W        W43676  15.898  13.253  11.822 -0.0464 -0.1936 -0.0244
24823W        W43677  11.884  18.179   3.816 -0.2077 -0.0799 -0.2121
24824W        W43678  11.718   3.635  11.942 -0.0776 -0.2861 -0.1586
24825W        W43679   0.194   8.816   1.891  0.1356 -0.0734 -0.0556
24826W        W43680   0.382   0.554   5.131 -0.0334  0.0042 -0.0521
24827W        W43681   8.598   7.436  14.173 -0.0374 -0.2870 -0.1983
24828W        W43682   3.798   0.473   3.081  0.1978  0.0401  0.1739
24829W        W43683  14.367  10.857  11.002  0.2924  0.0885  0.0300
24830W        W43684   2.586  10.966   0.035 -0.0183 -0.1370 -0.0638
24831W        W43685   5.636   2.115   0.436  0.1150 -0.0883  0.0396
24832W        W43686  12.729  18.695  11.413 -0.0328  0.0028 -0.0395
24833W        W43687   8.771  12.330   2.774 -0.0584 -0.1444 -0.1114
24834W        W43688   2.760   2.925   0.469 -0.1765  0.2221 -0.1189
24835W        W43689  10.306  14.740   2.216  0.2023  0.2058 -0.0638
24836W        W43690  14.543  15.350  14.460  0.0317  0.1783 -0.0395
24837W        W43691   5.783  18.823  14.068 -0.2691  0.4086 -0.4206
24838W        W43692   9.158  18.755   3.440 -0.2137  0.3613  0.1421
24839W        W43693   8.357  10.206  11.312  0.0348 -0.2534 -0.1319
24840W        W43694   3.937   7.927  11.719 -0.3886 -0.1198  0.3075
24841W        W43695  14.871  14.485   3.569  0.0381 -0.0533  0.0380
24842W        W43696  12.317   8.093  14.843  0.0574 -0.2836 -0.0447
24843W        W43697  12.333   5.699  14.118  0.2204 -0.1314 -0.3672
24844W        W43698  16.354   0.446  11.453  0.0175  0.2039 -0.0081
24845W        W43699  16.893  13.689   2.146  0.0817  0.4371 -0.2494
24846W        W43700   3.989   4.652   3.419 -0.2031  0.2641  0.2337
24847W        W43701  18.497   3.119  10.680 -0.2862 -0.0819  0.0432
24848W        W43702  15.958  15.942  12.699 -0.0020  0.0107 -0.0934
24849W        W43703  12.277   0.260   0.425  0.0926 -0.2499 -0.1133
24850W        W43704  12.880   0.893  12.336  0.2594  0.0048 -0.1594
24851W        W43705  16.033   5.637   1.140  0.0996 -0.0656 -0.0344
24852W        W43706   2.477   0.751  12.406 -0.3142  0.3055 -0.0525
24853W        W43707  17.221   2.533  15.107 -0.0461  0.1081 -0.0855
24854W        W43708   7.522   4.121  11.497  0.1531  0.1931  0.0533
24855W        W43709   7.165   9.215   2.360  0.1260 -0.1355 -0.0956
24856W        W43710   2.559  13.730   0.213  0.0864  0.1847 -0.3522
24857W        W43711   2.674   3.861  12.725 -0.0630 -0.0635  0.0234
24858W        W43712   9.949  17.916  10.924  0.3556  0.1602 -0.2160
24859W        W43713  15.727   3.429  11.097 -0.2857  0.0946 -0.2643
24860W        W43714   1.686  12.345  10.719  0.2986  0.0169 -0.0060
24861W        W43715  13.323  14.976  14.283 -0.1604 -0.2376 -0.0715
24862W        W43716  17.837  13.062  13.548  0.2725  0.0700  0.1520
24863W        W43717  17.518   2.262   3.553  0.1481  0.3172 -0.0164
24864W        W43718  11.738  15.905  11.887  0.3635  0.5638  0.1773
24865W        W43719  10.904  11.485   3.878  0.1277  0.0337  0.0722
24866W        W43720   8.727  11.698  10.124 -0.0621 -0.4527 -0.0525
24867W        W43721   5.706   0.848  12.446  0.0810 -0.3414  0.0807
24868W        W43722  14.675  14.488  11.357  0.1904  0.0679  0.0123
24869W        W43723  17.309   7.367   3.094  0.2059 -0.1569  0.3615
24870W        W43724  15.451  13.926  10.803  0.2378 -0.0161  0.1010
24871W        W43725   9.348   8.396   1.747 -0.0640  0.1766  0.2595
24872W        W43726  13.530  11.844  13.993  0.3340 -0.0763  0.3100
24873W        W43727   4.501   1.279  11.312 -0.3991  0.0445  0.3222
24874W        W43728  12.577   1.054   4.029  0.1852 -0.1610  0.0129
24875W        W43729  17.040   6.411  15.089  0.0313  0.1298  0.0195
24876W        W43730  13.844  13.367  12.880 -0.2056  0.0385  0.2032
24877W        W43731   6.811   7.502   1.863  0.0081 -0.0608  0.0876
24878W        W43732  16.540  16.888   4.822 -0.0072 -0.0201 -0.4787
24879W        W43733   6.426  13.076  12.595  0.1543  0.0678  0.0299
24880W        W43734  18.485   8.202   1.735 -0.2112  0.1607 -0.1439
24881W        W43735   8.539   5.266  13.708 -0.0086  0.1851  0.2362
24882W        W43736   0.731  18.029  11.285 -0.0278 -0.1199 -0.2039
24883W        W43737   0.611   0.029  11.844  0.0325  0.1099 -0.1589
24884W        W43738  15.726   2.673  14.148  0.2677  0.0769 -0.0742
24885W        W43739   2.210  13.461  13.609 -0.2203  0.0310  0.3062
24886W        W43740   5.317  12.020  10.795  0.3405  0.1162 -0.0518
24887W        W43741   4.758   1.525  13.754  0.2082 -0.0566  0.0216
24888W        W43742  15.889   4.230  12.026 -0.0958 -0.0994 -0.0005
24889W        W43743  14.678  15.337  12.778 -0.2469 -0.0214 -0.1538
24890W        W43744   0.542   9.078   3.163 -0.0748 -0.0375  0.3188
24891W        W43745  11.363   0.333  11.852 -0.0310 -0.0596 -0.2998
24892W        W43746  13.363  15.612  11.898  0.1204 -0.3176 -0.0766
24893W        W43747   2.436   3.034   3.629 -0.0907 -0.0885 -0.2279
24894W        W43748  17.875  17.991   1.213  0.1480 -0.0623  0.3666
24895W        W43749  12.700   6.470   3.183  0.0806 -0.0575 -0.1264
24896W        W43750   6.902  18.395   4.590 -0.0209  0.2406 -0.1694
24897W        W43751  10.141   4.987   2.931  0.0260  0.0724  0.2843
24898W        W43752   6.235  16.640   3.384 -0.0149 -0.0428  0.1637
24899W        W43753   2.673  11.294   0.588 -0.0571  0.2011  0.0800
24900W        W43754   1.115  18.593   1.361 -0.0534 -0.1186 -0.2211
24901W        W43755  16.189  10.979  13.076 -0.0506 -0.3914 -0.0935
24902W        W43756  16.905   3.608   3.165 -0.1125  0.0189 -0.0339
24903W        W43757   6.788  13.082   0.554  0.0041  0.1269 -0.1419
24904W        W43758  12.183  10.908   2.934  0.0529 -0.0008 -0.0932
24905W        W43759   5.577   7.610   1.381 -0.0486  0.2593  0.2495
24906W        W43760   1.987  13.187  14.993  0.1487 -0.3077 -0.2520
24907W        W43761   2.459  17.741   2.524  0.1142  0.0628  0.2489
24908W        W43762  11.857  17.339   2.409  0.0222  0.2460 -0.2578
24909W        W43763  17.079  16.324  11.537 -0.3390 -0.2999 -0.2358
24910W        W43764   9.686   4.457   0.505  0.0163 -0.0467  0.1787
24911W        W43765  11.967   5.883   0.587  0.0024 -0.1652 -0.0020
24912W        W43766   3.709   4.237  10.949  0.1750  0.2229 -0.1256
24913W        W43767   3.810  12.382   3.703 -0.0741 -0.0648 -0.2357
24914W        W43768  12.482  11.408   0.207  0.1630  0.1112 -0.0768
24915W        W43769  13.633  16.638   1.513  0.0496  0.0145 -0.0665
24916W        W43770   9.563   4.134   0.183 -0.1933  0.2415 -0.1222
24917W        W43771   3.967   8.652  10.498 -0.3705 -0.2621 -0.1738
24918W        W43772  13.484  10.385   4.666 -0.1020 -0.0151  0.1252
24919W        W43773  16.018   3.081  11.402 -0.1321 -0.0514  0.2124
24920W        W43774  14.782   0.053  12.341  0.1336 -0.0098  0.2998
24921W        W43775   7.361  16.886  13.278  0.0640 -0.1439  0.2590
24922W        W43776  17.635   7.813  13.405  0.1921  0.1958 -0.1661
24923W        W43777   7.131  15.721   0.857 -0.1463 -0.4635  0.1116
24924W        W43778   2.066   4.121  11.603  0.0330 -0.3614  0.2658
24925W        W43779  12.849  17.474   4.608 -0.2394 -0.0027 -0.1269
24926W        W43780   5.515   6.670   1.638 -0.1069  0.1157  0.1364
24927W        W43781   0.759  15.057  13.945  0.2551  0.1294 -0.1055
24928W        W43782  14.545   9.182  10.345  0.1315 -0.2338 -0.2338
24929W        W43783  16.697   3.329   2.154 -0.0274  0.1604 -0.0015
24930W        W43784  10.907   1.115   2.991 -0.1734 -0.5032  0.5494
24931W        W43785   3.032   3.365  14.517 -0.0157 -0.2006 -0.3846
24932W        W43786   9.959  18.104  14.735 -0.2334  0.2297 -0.0224
24933W        W43787  18.751  15.439  14.714 -0.0116 -0.0447 -0.0241
24934W        W43788   7.248   5.564   1.064  0.0960  0.3245  0.0156
24935W        W43789   4.786  12.999   3.260 -0.3436  0.0159 -0.2270
24936W        W43790   1.840  16.661  10.837 -0.0086 -0.1688 -0.0902
24937W        W43791  12.825  16.082   4.083  0.0170 -0.1309  0.1526
24938W        W43792  13.824   6.683  12.596  0.2352 -0.3299 -0.0103
24939W        W43793  16.360   7.823   1.314  0.1152 -0.0146  0.0407
24940W        W43794   1.827  14.809   1.637  0.0260  0.3342 -0.1034
24941W        W43795  15.178  15.198   0.486  0.3214  0.0618  0.1967
24942W        W43796   3.362   0.102   0.369  0.1244  0.1556  0.0150
24943W        W43797   9.949   5.458   5.525  0.0877  0.0913  0.1456
24944W        W43798   1.589   6.336  10.860 -0.0660  0.1625 -0.2481
24945W        W43799  17.513  10.209   2.170 -0.1681  0.1939 -0.1050
24946W        W43800  11.297  11.647   3.577 -0.0682  0.3512  0.1320
24947W        W43801  18.839  13.083   2.760  0.0219 -0.4300  0.2609
24948W        W43802  15.274   1.629  14.044  0.1055  0.0687  0.1584
24949W        W43803  16.714   9.510  12.077  0.0454  0.0260  0.5772
24950W        W43804   5.398  11.357  12.692 -0.1622 -0.3531  0.0039
24951W        W43805   9.817  10.569  14.593 -0.1181 -0.0275  0.2100
24952W        W43806   5.782   8.597   4.369 -0.0662  0.2565 -0.1875
24953W        W43807   2.054   1.694   0.695 -0.1458 -0.0321 -0.0987
24954W        W43808  15.178   9.950  14.809  0.3334 -0.4468 -0.1040
24955W        W43809  14.895  13.377  14.397 -0.1651 -0.2259 -0.0873
24956W        W43810  18.344  10.800  15.026 -0.1476  0.0395  0.1424
24957W        W43811  12.459   8.689  14.171 -0.2331 -0.1836  0.0169
24958W        W43812  16.422   6.288   3.024 -0.0135  0.1412  0.1068
24959W        W43813  12.365   9.793   2.154  0.3085 -0.1881 -0.0661
24960W        W43814   1.661  12.806  12.207  0.0632 -0.0645 -0.0993
24961W        W43815  17.503  17.696   2.787  0.0821 -0.3499 -0.0436
24962W        W43816  11.445  12.792   9.397 -0.0394 -0.1648  0.1650
24963W        W43817  15.804   1.466   2.458  0.0938  0.0141  0.0527
24964W        W43818   2.278  12.492  11.798 -0.2062  0.2457 -0.0293
24965W        W43819   5.335  17.365   3.816 -0.1570  0.3040  0.1092
24966W        W43820  10.678  14.717  11.553 -0.0025 -0.0122  0.1665
24967W        W43821   3.131   5.067   1.448 -0.0392  0.1261  0.0278
24968W        W43822  13.577   3.925   6.165  0.3039  0.1208 -0.4383
24969W        W43823   4.863  12.400   4.460 -0.0193  0.1137 -0.3643
24970W        W43824   9.608   5.808   1.747 -0.1118  0.1598 -0.3712
24971W        W43825  18.702   9.877   0.952  0.0039 -0.1406 -0.0082
24972W        W43826  14.288   3.091   2.944 -0.0605  0.2310 -0.2572
24973W        W43827   1.089   3.064  15.022 -0.1391  0.0456 -0.0415
24974W        W43828  16.999  11.987   4.325 -0.2389 -0.1977 -0.2667
24975W        W43829  11.095  12.060   0.896  0.0671  0.0063  0.0796
24976W        W43830   4.888   9.732  10.579 -0.1977 -0.1083  0.1484
24977W        W43831   5.416   7.963  10.989 -0.1632 -0.4125  0.0013
24978W        W43832   5.383   0.659  11.440 -0.0801  0.3809 -0.1627
24979W        W43833   0.647   9.344   3.607 -0.1630 -0.0592  0.0449
24980W        W43834  18.560  17.145   0.809  0.0274 -0.0674  0.0674
24981W        W43835   4.687  17.098  14.366 -0.2520 -0.1034 -0.1484
24982W        W43836   4.957  18.207   4.066  0.1424  0.0758 -0.0682
24983W        W43837  10.675   1.484  13.683 -0.3633  0.3354  0.1173
24984W        W43838  13.618  15.093  13.072  0.1183 -0.0051 -0.3340
24985W        W43839   8.378  13.184  13.054 -0.0519  0.0927  0.0696
24986W        W43840  10.705   6.571   0.239  0.2385  0.0526 -0.1197
24987W        W43841  12.338   5.436  10.147 -0.1867 -0.0878 -0.1885
24988W        W43842  14.794   9.300   0.038 -0.0513 -0.2322 -0.2957
24989W        W43843   1.039  18.585   2.993 -0.0581  0.3208  0.1208
24990W        W43844  12.920   8.347   0.325 -0.2056 -0.2093  0.1354
24991W        W43845   4.740  12.408  14.310 -0.0585 -0.0275  0.0848
24992W        W43846  17.767   3.964   3.300  0.1253  0.0583  0.3286
24993W        W43847   5.611  13.392   3.892 -0.4283  0.0414 -0.3164
24994W        W43848  13.602   9.322  10.429  0.1695  0.0990 -0.0333
24995W        W43849   6.259  18.634  11.874  0.0387  0.4220  0.0806
24996W        W43850   4.875  14.415   3.703  0.1618  0.1047 -0.0499
24997W        W43851   1.805   3.936   3.900 -0.1108  0.1080  0.0564
24998W        W43852  18.773  18.052  11.370  0.0946 -0.3904 -0.2309
24999W        W43853  16.248   7.567   0.847  0.3777  0.0928  0.1645
25000W        W43854  10.652  10.234   4.512 -0.1714  0.0443  0.1244
25001W        W43855   5.068  12.703   9.531 -0.2211 -0.1569 -0.2893
25002W        W43856   5.374  10.002   2.561 -0.1361  0.0538 -0.0691
25003W        W43857  18.678  18.605   0.443  0.1236  0.1158 -0.2161
25004W        W43858   3.020  12.086   1.285 -0.2705  0.0104 -0.2039
25005W        W43859   9.809   5.619  10.731 -0.4219  0.4111  0.1879
25006W        W43860  15.492   5.561   3.942  0.0990  0.1186 -0.0282
25007W        W43861  17.997   0.061  14.327 -0.3211 -0.1499 -0.1531
25008W        W43862  15.344   4.590  11.797  0.2879  0.1010  0.0963
25009W        W43863   1.113   8.003   2.322 -0.2977  0.2011  0.0986
25010W        W43864  15.038  17.823   1.447  0.0202  0.0189 -0.1787
25011W        W43865   4.001  12.300  13.491  0.1889  0.1657  0.1917
25012W        W43866  13.918  16.251   4.351 -0.0432  0.0667 -0.0334
25013W        W43867   3.405   6.169   2.190  0.2683  0.0733  0.0148
25014W        W43868   3.389  13.474   0.085  0.3207  0.1570  0.0408
25015W        W43869   1.335   9.502  10.702 -0.1014 -0.4455  0.0379
25016W        W43870   0.056   6.521   0.725 -0.1886  0.0358 -0.2521
25017W        W43871   4.990  13.395  10.864  0.1576 -0.1452 -0.0404
25018W        W43872   0.416  10.641   2.328  0.1632  0.0349 -0.0712
25019W        W43873  17.803  10.797   2.334  0.0767 -0.3102  0.2204
25020W        W43874  11.993  18.133   1.966  0.3195  0.1240 -0.1122
25021W        W43875   4.841  13.638   1.487  0.0217  0.1262  0.0308
25022W        W43876   4.030  18.519  14.717 -0.2784 -0.0629  0.0015
25023W        W43877   7.782  16.884   0.739 -0.0833 -0.1758  0.0142
25024W        W43878  15.155   9.593   4.765  0.3208  0.3466  0.0343
25025W        W43879  13.613   0.273   4.020 -0.0236  0.0034  0.0234
25026W        W43880   2.691   0.637  13.891  0.3392  0.0937 -0.3531
25027W        W43881   1.918  15.231  14.219 -0.0402 -0.3112 -0.2138
25028W        W43882   1.792   6.365  11.402 -0.2625 -0.2284  0.0379
25029W        W43883  14.191  13.982   0.762  0.1429  0.1516  0.1481
25030W        W43884  16.139   4.276   1.536  0.2289  0.0537 -0.0142
25031W        W43885  10.569  13.742  11.160 -0.1788  0.1109 -0.4985
25032W        W43886   2.445   3.161   0.158  0.1756 -0.1288  0.0304
25033W        W43887  14.288   3.886   3.560 -0.0495  0.2409 -0.1592
25034W        W43888   3.337  13.700   2.624 -0.4731 -0.0704 -0.1831
25035W        W43889  15.672   2.672   0.180  0.2142  0.1929  0.2130
25036W        W43890  14.591  13.157   4.017 -0.1967  0.0052  0.0800
25037W        W43891  10.067   0.528  12.253  0.1733  0.0678  0.1396
25038W        W43892   4.152   5.299  12.840 -0.4215 -0.0029  0.1003
25039W        W43893  14.358   1.437  13.745  0.1150 -0.0214  0.0254
25040W        W43894   3.154  12.899   2.474 -0.2663 -0.1745 -0.0108
25041W        W43895  11.033   1.931  13.030  0.1480  0.0163  0.0498
25042W        W43896   8.743   4.429   3.037 -0.2708  0.3589 -0.0292
25043W        W43897   4.934  13.333   0.950 -0.1249 -0.1366 -0.0908
25044W        W43898   3.976  10.076  12.427 -0.0059 -0.0452  0.1397
25045W        W43899   6.658  12.531   3.992  0.1714 -0.2472  0.1232
25046W        W43900   6.240   3.463  11.599 -0.0798  0.1398 -0.0145
25047W        W43901  10.989   6.202   2.917 -0.1420 -0.0117  0.1033
25048W        W43902   9.841  11.608   1.373 -0.0560 -0.0783  0.1044
25049W        W43903   9.071   7.484  14.488  0.1347 -0.0603  0.0013
25050W        W43904   4.963   8.733   9.121  0.1769 -0.2563  0.0846
25051W        W43905  11.517   3.721   4.526  0.0359 -0.3440 -0.2854
25052W        W43906  10.101  14.290  13.063 -0.0986  0.0287  0.0395
25053W        W43907   2.150  14.440   4.133  0.1409 -0.2201 -0.2547
25054W        W43908  18.693   0.198   1.551 -0.0276  0.1735  0.5163
25055W        W43909   7.198  12.567   0.540  0.1987 -0.0733 -0.0407
25056W        W43910  17.927  10.387   1.290  0.0799 -0.0415 -0.1132
25057W        W43911   5.563  14.418  13.736  0.1099  0.1837 -0.0682
25058W        W43912   5.374   4.298   1.604 -0.1927 -0.0569 -0.0079
25059W        W43913   1.750   8.663  14.131  0.1587 -0.0953 -0.0544
25060W        W43914   4.712  14.201  13.413 -0.0697  0.0891  0.0813
25061W        W43915  12.905  15.246   4.469 -0.3096  0.3274 -0.3568
25062W        W43916   1.689   8.120  12.335  0.0310  0.0270 -0.3328
25063W        W43917   0.821   8.670  10.436 -0.0985  0.0170 -0.4483
25064W        W43918   2.969  16.127  14.895  0.5354 -0.1299 -0.0602
25065W        W43919   3.022   2.911   2.329 -0.1025  0.1906 -0.0776
25066W        W43920   2.295  18.277  14.708  0.4494 -0.2471 -0.4882
25067W        W43921   4.909  15.199  14.908  0.3040 -0.3891 -0.3429
25068W        W43922   6.586  12.576  10.432 -0.0124  0.2886 -0.0847
25069W        W43923  12.045  14.118   2.963 -0.1359 -0.0123 -0.1859
25070W        W43924   5.723   4.989  12.766 -0.0363  0.0429 -0.2121
25071W        W43925  11.244   9.796   5.594 -0.1234 -0.0422  0.1029
25072W        W43926   7.973   0.930   4.613 -0.0234  0.2590  0.2369
25073W        W43927  12.791   2.889   0.828  0.0790 -0.0440 -0.2369
25074W        W43928   3.977  17.897   2.135 -0.2290 -0.2906 -0.2498
25075W        W43929  12.154   8.642   2.882 -0.2139 -0.1409 -0.0765
25076W        W43930   2.118   5.804   1.564  0.0690 -0.1314  0.1186
25077W        W43931  10.411   2.565   2.354 -0.0470  0.2424  0.3331
25078W        W43932   2.298   0.557   2.957 -0.0456 -0.4570 -0.0182
25079W        W43933  17.865   7.735  13.884 -0.0283  0.5342 -0.1356
25080W        W43934   4.746  12.614  13.017  0.1631 -0.3465 -0.1089
25081W        W43935  11.376   4.632   0.962  0.0209  0.0428 -0.1839
25082W        W43936   0.089   9.875   3.591 -0.1822  0.1112 -0.2815
25083W        W43937   9.908   6.836  11.355  0.0128 -0.1711 -0.0555
25084W        W43938  14.931   9.720  10.946  0.2833 -0.0142  0.2533
25085W        W43939  12.093  11.676   4.097  0.0842  0.1235 -0.1433
25086W        W43940   7.101   3.764   3.847 -0.0777  0.0580 -0.0639
25087W        W43941  10.916   0.378  11.633 -0.0861 -0.0738 -0.1209
25088W        W43942  11.527   5.114  12.847  0.1892  0.1588  0.3431
25089W        W43943   2.910   1.844  13.635  0.1582 -0.1721 -0.0403
25090W        W43944  12.663   4.743   5.109  0.1738 -0.2506  0.1490
25091W        W43945  11.706   0.995   1.022 -0.1431  0.2272  0.1621
25092W        W43946  18.757  17.714  12.359 -0.0999 -0.1153  0.1885
25093W        W43947   5.988   4.653  13.087  0.3878  0.1495 -0.0833
25094W        W43948   3.977   8.716   1.915 -0.1241 -0.0070  0.0311
25095W        W43949  16.148   7.863   1.991  0.1599 -0.2742  0.3784
25096W        W43950  11.054   1.308  10.855  0.0594  0.1958 -0.1416
25097W        W43951   3.674  18.632   3.526  0.1626 -0.1925  0.3813
25098W        W43952  13.030  11.083  13.932  0.3457  0.0659  0.2797
25099W        W43953   2.341  12.614   1.490  0.3570  0.1791  0.0259
25100W        W43954  13.300  14.128  10.902 -0.1512 -0.1266 -0.0441
25101W        W43955  16.953   9.713  14.709  0.0235 -0.2309  0.0817
25102W        W43956   5.302  16.140  11.870  0.1953 -0.3398 -0.0043
25103W        W43957   8.235   1.741   4.332  0.0451 -0.0933 -0.0589
25104W        W43958  13.313   8.412   4.408 -0.3550  0.2316  0.1297
25105W        W43959   4.422  12.756   1.626  0.1425 -0.0251  0.0383
25106W        W43960   1.173   0.495  12.627 -0.0081 -0.4687  0.0530
25107W        W43961  12.215  17.386   0.405 -0.0310 -0.1036  0.0729
25108W        W43962   2.440   7.723   3.596 -0.0640  0.1843 -0.1292
25109W        W43963   4.666  11.766   0.030 -0.1032 -0.2051 -0.1932
25110W        W43964  17.790  18.850  11.128 -0.1438 -0.0072 -0.2637
25111W        W43965   0.347  12.128  13.449 -0.0459 -0.1898  0.2509
25112W        W43966   2.769   8.770   3.948  0.1881  0.0171  0.0230
25113W        W43967   8.394   8.585  12.692  0.0712 -0.1484 -0.2505
25114W        W43968  12.389   9.438  13.297 -0.2189 -0.0157  0.1052
25115W        W43969  18.188  12.957   3.439 -0.0679 -0.1246  0.2814
25116W        W43970   1.701   2.328   3.562  0.1289 -0.1542  0.0134
25117W        W43971  17.849   2.691   1.470  0.1652 -0.2439 -0.0080
25118W        W43972  16.001   6.988   0.434 -0.1018  0.2478 -0.2524
25119W        W43973   1.555  17.335   0.322 -0.0293  0.1165 -0.2850
25120W        W43974  14.060   5.916  13.390  0.0773  0.4252  0.1221
25121W        W43975  10.037   3.359  13.227 -0.0657  0.0742  0.1249
25122W        W43976  13.652   7.888  10.794 -0.0701  0.5829 -0.0359
25123W        W43977  17.878  12.897   2.962 -0.0858  0.1524 -0.3496
25124W        W43978  15.699  18.683   1.265 -0.0957  0.0964 -0.0553
25125W        W43979  15.469   8.488   2.695 -0.1887 -0.1766 -0.1712
25126W        W43980  13.418  17.137  10.728  0.2369  0.0339 -0.0519
25127W        W43981   5.181  12.989  10.750  0.4735  0.0225 -0.0756
25128W        W43982   6.697   6.951  11.688 -0.2161 -0.3403 -0.1604
25129W        W43983   6.591   9.175  14.379  0.3452 -0.0432 -0.3400
25130W        W43984  18.822  13.493   9.437  0.3105  0.0327  0.1452
25131W        W43985  11.956  17.673   0.768 -0.1961  0.1804  0.3225
25132W        W43986  14.859   8.707   5.288 -0.0548 -0.1236  0.2931
25133W        W43987   7.639  10.583   5.152  0.3280 -0.1559 -0.0713
25134W        W43988   4.947  17.342   4.199 -0.2238  0.2039 -0.0252
25135W        W43989   3.328   0.086  15.015 -0.0836  0.0211 -0.0534
25136W        W43990   2.208  17.569  11.509  0.1565 -0.1170 -0.2117
25137W        W43991   9.888  11.501   1.968 -0.1063 -0.1122 -0.2435
25138W        W43992  13.309   0.831   4.393 -0.1698  0.0612  0.3701
25139W        W43993  13.461  11.196  14.887  0.1399 -0.1003  0.2956
25140W        W43994  14.074  11.603  13.989  0.1409  0.0973 -0.1878
25141W        W43995   7.918   5.315  15.063 -0.1358 -0.3213 -0.2809
25142W        W43996  12.989  14.834  11.686  0.0955 -0.1151 -0.0904
25143W        W43997  12.215  11.478  11.240  0.0471 -0.0214 -0.2056
25144W        W43998   6.574   8.203   5.027 -0.1845  0.1110  0.1848
25145W        W43999   4.611   6.317   2.623 -0.0497 -0.2016 -0.0312
25146W        W44000  16.610   6.094   2.518  0.1489  0.0517  0.0634
25147W        W44001   1.470   3.474  11.294  0.1028 -0.0155 -0.2548
25148W        W44002   9.846  15.912  13.246 -0.1308 -0.2843  0.0571
25149W        W44003   5.952   6.759   2.312  0.1107 -0.0472 -0.0059
25150W        W44004  17.463   2.445  14.469 -0.2631 -0.1027 -0.0860
25151W        W44005   4.650   9.593   1.389 -0.2741  0.2944 -0.1640
25152W        W44006  16.754   4.104   0.928  0.0607  0.2189 -0.1056
25153W        W44007  12.003   7.800   3.930 -0.1261  0.1314 -0.3583
25154W        W44008   2.695  15.335  13.547 -0.0232 -0.1561 -0.0978
25155W        W44009   3.763   2.225  14.507 -0.0286 -0.1451 -0.0685
25156W        W44010  14.011  10.886  12.644  0.1418 -0.1007 -0.2507
25157W        W44011  11.181   8.326   1.844  0.0659 -0.0884  0.0277
25158W        W44012   2.905  13.012  13.986  0.2004  0.0168  0.0806
25159W        W44013  14.573  16.437   1.307  0.3010  0.0090 -0.1826
25160W        W44014   0.409   6.199  14.119  0.1794 -0.4091  0.3078
25161W        W44015  10.068   3.692  11.664  0.2141  0.2152 -0.2979
25162W        W44016   9.337  11.764  12.991 -0.3307 -0.2205  0.1195
25163W        W44017   3.672  10.758  14.816 -0.0397 -0.1168 -0.0742
25164W        W44018   6.081   9.515   9.959  0.0875 -0.0541 -0.2948
25165W        W44019  17.902  17.301   1.960  0.1227  0.0253 -0.0668
25166W        W44020  15.269   2.176  13.233 -0.2154 -0.2705 -0.1330
25167W        W44021  17.821   0.155  15.074 -0.0562 -0.0371 -0.0799
25168W        W44022  16.381   4.169  13.579 -0.0120 -0.0473  0.2564
25169W        W44023   0.569   3.870  11.430 -0.0351  0.1199  0.4127
25170W        W44024  17.054   7.341  13.795  0.0666 -0.0826 -0.2023
25171W        W44025  17.396   9.451   0.921  0.0822  0.0801  0.0272
25172W        W44026   9.526  15.239  12.042  0.1224 -0.2204  0.2578
25173W        W44027   8.136  16.226  13.356  0.0026  0.1840 -0.3437
25174W        W44028   6.978   7.915   2.431 -0.1391 -0.0107  0.1779
25175W        W44029  10.367   8.451  12.781 -0.2157  0.1909  0.2012
25176W        W44030  10.481  16.784  14.554 -0.0500  0.0203 -0.0913
25177W        W44031   0.194  14.660  14.847 -0.0697  0.0525 -0.0464
25178W        W44032   3.376   8.211   0.422 -0.3594 -0.3213 -0.3878
25179W        W44033  17.560  11.994   0.309  0.1668 -0.0433  0.1015
25180W        W44034  17.079  15.109  11.142  0.4508  0.1737 -0.1702
25181W        W44035  17.372  16.764   1.432 -0.1382  0.0964 -0.0640
25182W        W44036  10.965  17.738   3.986  0.1818 -0.0651 -0.1774
25183W        W44037   0.403  16.186  14.113 -0.0347 -0.2267  0.1064
25184W        W44038  11.789   1.242  14.342 -0.0541 -0.0977  0.0614
25185W        W44039  14.264  14.781  14.929  0.2113  0.0945 -0.0883
25186W        W44040  18.765   9.228   0.193 -0.0522  0.1015  0.0019
25187W        W44041   9.604   2.878   2.185  0.2125  0.0182  0.1210
25188W        W44042  10.909   4.507   3.656  0.2960 -0.2670 -0.2912
25189W        W44043  16.112  12.741   4.376 -0.3755 -0.0231  0.4084
25190W        W44044   8.617  16.720  10.855 -0.0120 -0.0837  0.1618
25191W        W44045  10.205   2.727   0.123 -0.2153  0.0164  0.0901
25192W        W44046  12.495   6.603  11.907 -0.2375 -0.0415  0.2172
25193W        W44047   8.634   5.106  13.174 -0.0290  0.0212  0.2755
25194W        W44048   2.546   9.929  11.234 -0.3001  0.3798  0.0850
25195W        W44049   4.562   9.291  13.087  0.4104  0.1495 -0.0908
25196W        W44050  16.365   5.940   0.208 -0.0999 -0.1292  0.1491
25197W        W44051   8.589   5.889  11.706 -0.0555 -0.0619  0.0769
25198W        W44052   2.105  18.429  13.190 -0.2155 -0.0231 -0.0770
25199W        W44053  10.368  13.621  14.969  0.0779 -0.2482  0.3151
25200W        W44054   8.154   5.222   4.009  0.1871  0.1764  0.3037
25201W        W44055  11.184  16.108   2.916  0.2181  0.2705 -0.0952
25202W        W44056  10.387  11.767  11.315  0.0724 -0.3673  0.3459
25203W        W44057   7.423  10.902  11.040  0.2903  0.0813 -0.1361
25204W        W44058  14.658   8.799   0.348  0.0434 -0.2364  0.2705
25205W        W44059   6.050  14.199   1.889 -0.0606  0.2171  0.2843
25206W        W44060  18.637   4.182  13.951 -0.0453  0.0164 -0.2815
25207W        W44061  11.791   9.273  13.373 -0.3708  0.0542  0.2277
25208W        W44062   5.091  10.675  13.029  0.0971 -0.1305  0.1265
25209W        W44063   0.540   3.062  15.037 -0.1816  0.0117  0.5856
25210W        W44064   1.288  16.423   1.507  0.0557 -0.1870 -0.0870
25211W        W44065  11.486   5.872  11.234 -0.3392 -0.2515 -0.1830
25212W        W44066   6.187  15.529   1.950 -0.1373  0.0802 -0.0099
25213W        W44067   1.982   9.540  12.859 -0.0042 -0.0855  0.0537
25214W        W44068  11.615  16.151  13.245  0.0459  0.1871 -0.0938
25215W        W44069  11.373   2.707  14.821 -0.0627  0.0771 -0.3242
25216W        W44070   3.419   2.512   2.869 -0.1771  0.1211  0.0566
25217W        W44071   0.519  14.556   3.882  0.0848 -0.0251 -0.4002
25218W        W44072  12.344   8.171  14.371 -0.2236 -0.1369  0.2255
25219W        W44073  14.059   7.134   4.022 -0.1197  0.2337  0.1226
25220W        W44074  15.404   5.318   2.999  0.0169  0.1343 -0.0391
25221W        W44075   7.782   9.646  10.762  0.0112 -0.2606  0.2837
25222W        W44076   1.432  14.592  13.036 -0.3498 -0.2283 -0.0254
25223W        W44077   5.967   3.485   5.077 -0.2379 -0.0939 -0.2306
25224W        W44078   7.959   0.524   0.851  0.1830  0.2135 -0.1780
25225W        W44079  16.129   9.394  11.388 -0.0713 -0.2151 -0.0241
25226W        W44080   5.513  17.927  14.444  0.1989  0.2486 -0.1170
25227W        W44081  13.857   0.208   3.127 -0.1423  0.3938  0.2969
25228W        W44082   3.237  17.760   1.385  0.1225  0.0247 -0.0349
25229W        W44083  12.913   8.881  10.840  0.0309 -0.3474 -0.2959
25230W        W44084   3.646   0.783  13.293 -0.3365 -0.0246  0.2496
25231W        W44085  13.909   8.301   3.543 -0.0931 -0.0071 -0.4077
25232W        W44086   1.086  14.587  10.727 -0.0435 -0.3133  0.0961
25233W        W44087   7.411  15.303   1.077 -0.0355 -0.0188  0.0702
25234W        W44088  18.374  12.126  14.149  0.2253  0.1097  0.0221
25235W        W44089  10.650  18.325  14.210 -0.1053 -0.0588 -0.0318
25236W        W44090  17.276  18.280   1.067  0.2023 -0.1714 -0.1397
25237W        W44091   1.095  14.974   0.069 -0.3566  0.4231 -0.0580
25238W        W44092   1.083   9.298   3.965 -0.2957 -0.1154  0.0722
25239W        W44093   6.973   8.206  11.857  0.2090  0.1511  0.0041
25240W        W44094  18.449   1.773  13.572  0.0033  0.1131  0.0369
25241W        W44095   8.454  10.236   9.642 -0.1849 -0.3560 -0.3987
25242W        W44096   0.288   6.340  13.602  0.0571  0.0787 -0.1269
25243W        W44097   2.268  16.321   1.707  0.1187 -0.0305  0.0359
25244W        W44098  14.252   6.140   1.699  0.1873 -0.0073  0.1247
25245W        W44099   0.036   6.198  14.428 -0.1135  0.1613  0.5185
25246W        W44100  16.130   5.197   3.565 -0.0581 -0.0442 -0.0806
25247W        W44101  14.363   9.982  14.022 -0.2223  0.0943  0.0067
25248W        W44102   2.160   9.915  12.472  0.2470 -0.0420 -0.1925
25249W        W44103   7.620   7.547   3.757 -0.1346 -0.0533 -0.0470
25250W        W44104  17.653  10.559   3.023 -0.0070  0.1828 -0.2914
25251W        W44105   0.830  15.486  15.122 -0.2109 -0.1181  0.0356
25252W        W44106   0.162   3.771   3.268 -0.0398  0.0405 -0.1365
25253W        W44107  10.537  13.034  10.868  0.0827  0.0142  0.1415
25254W        W44108  11.772   4.878   4.525  0.1568  0.1045 -0.2732
25255W        W44109   1.453  11.139   1.669  0.0098  0.3027 -0.0230
25256W        W44110   4.384   6.912   3.262 -0.1375 -0.1711 -0.1360
25257W        W44111   8.703  15.770   3.593  0.3012  0.2713  0.2407
25258W        W44112   4.390  16.757   1.449  0.1132  0.1994  0.0699
25259W        W44113   1.375   7.180   2.667  0.0173 -0.2042  0.4569
25260W        W44114  12.693  10.511  15.069  0.2333 -0.1427  0.3370
25261W        W44115   1.622  18.393  11.579  0.0977  0.2821  0.3124
25262W        W44116  15.379   3.079  10.901 -0.0512  0.0700 -0.0317
25263W        W44117  10.891  12.257  11.691  0.0467 -0.0512 -0.0641
25264W        W44118  15.693  12.308  11.898 -0.0926 -0.3036 -0.2966
25265W        W44119   7.475  15.796   3.102 -0.2119 -0.2437  0.1829
25266W        W44120  12.460  15.651   5.397 -0.1559  0.1371 -0.0211
25267W        W44121   4.248   1.328  14.678  0.1288  0.3614 -0.0234
25268W        W44122   7.400  15.057  12.704  0.3556  0.1303 -0.1510
25269W        W44123   1.803   4.455   3.844 -0.1159 -0.1303 -0.0202
25270W        W44124  15.310  13.019  15.117  0.1745  0.0033  0.0801
25271W        W44125  12.607  16.758   4.526  0.0984 -0.1294  0.1722
25272W        W44126  11.829   6.414  13.484  0.0960  0.0780  0.0372
25273W        W44127  17.800   7.713   2.693 -0.0619  0.0408  0.1230
25274W        W44128  18.115  12.329  14.596  0.0744  0.0168 -0.0564
25275W        W44129   0.621  16.358  12.684 -0.1054  0.0098  0.0047
25276W        W44130   4.150  11.960  13.815  0.0704 -0.0611 -0.1855
25277W        W44131  12.651   8.042  11.393  0.2345  0.0011 -0.0124
25278W        W44132   5.300  12.223   2.334 -0.2099  0.0457  0.0450
25279W        W44133  16.263   9.108   0.591 -0.1094  0.3636  0.0974
25280W        W44134   6.234  13.914  13.694 -0.2232  0.1104 -0.0303
25281W        W44135  16.673  17.903   2.056 -0.1391 -0.0691  0.0471
25282W        W44136   3.419   6.136   1.252  0.3174  0.2931 -0.6436
25283W        W44137   7.238   4.866   3.157  0.0468 -0.0509  0.0383
25284W        W44138   3.811   2.348   3.189 -0.1271  0.3127 -0.1964
25285W        W44139  18.772  13.276  13.638 -0.1750 -0.1025 -0.3075
25286W        W44140  12.680   5.078   0.747 -0.1580 -0.0273  0.0556
25287W        W44141   5.295  10.016  11.397  0.2156 -0.2752 -0.0039
25288W        W44142  17.543  17.284   1.212 -0.3313  0.1340  0.0559
25289W        W44143  16.838   3.960  12.280  0.0026  0.0941  0.0803
25290W        W44144   6.597   6.561  13.042  0.1161  0.2821  0.1571
25291W        W44145  18.276   1.933   4.420 -0.0367  0.1833  0.2554
25292W        W44146   3.050   4.218  12.607 -0.2936  0.2045 -0.3612
25293W        W44147   8.044   2.847  11.207 -0.0834  0.0223 -0.0180
25294W        W44148   3.932   0.547  11.637  0.0146 -0.3150 -0.0007
25295W        W44149   6.012   8.062  12.683  0.1006  0.0212  0.0434
25296W        W44150   0.645   1.655   1.396  0.2863  0.0969  0.1535
25297W        W44151   0.035  14.885   0.425  0.1901 -0.1271  0.1407
25298W        W44152   3.857  12.244   0.847 -0.1563  0.3932 -0.1857
25299W        W44153   4.950   1.203   4.131  0.0912  0.1248 -0.0787
25300W        W44154   4.143  16.753   0.036 -0.0858  0.1512  0.0618
25301W        W44155  10.661  11.690  12.171 -0.1315 -0.1468  0.3558
25302W        W44156   4.523  13.045   0.784 -0.0998  0.2858  0.0814
25303W        W44157  18.059  14.620   0.118 -0.1933 -0.0601 -0.2151
25304W        W44158  13.925   2.805  14.177  0.1999  0.2342  0.3208
25305W        W44159   1.770  16.671   0.176  0.0716 -0.4493  0.5621
25306W        W44160   7.647  14.654   0.905  0.0605  0.0471  0.2182
25307W        W44161   6.680   4.249   0.408 -0.1676  0.0952 -0.1303
25308W        W44162  11.740  10.802  11.772  0.1082  0.2876  0.1960
25309W        W44163   3.332  17.999  13.932  0.0937 -0.2846 -0.1142
25310W        W44164  12.696   8.970   3.993 -0.0408  0.1224 -0.1261
25311W        W44165   8.766   8.169  12.032  0.0662 -0.0118 -0.1483
25312W        W44166  14.523  14.448  14.585 -0.1238  0.1174  0.2874
25313W        W44167   9.413  14.314  14.214 -0.2472  0.3244 -0.0175
25314W        W44168  14.568   2.305  14.532 -0.0584 -0.1166 -0.0622
25315W        W44169   1.169  12.287  14.286 -0.1328 -0.2833  0.0962
25316W        W44170   0.469  16.764  10.598 -0.2246 -0.1748 -0.0703
25317W        W44171   1.854   0.533  11.173  0.0169 -0.0531  0.1630
25318W        W44172   7.238   8.730  13.814 -0.1024 -0.0413 -0.0179
25319W        W44173   4.437   4.337  12.394  0.0171  0.2269  0.0197
25320W        W44174   5.796  18.574  13.306  0.0312 -0.3497  0.0858
25321W        W44175   9.212  12.517  13.804 -0.2105 -0.0560  0.3512
25322W        W44176   7.916   0.937  10.936 -0.0936  0.3696 -0.1209
25323W        W44177  16.399  18.011  11.806 -0.0810 -0.1076  0.2589
25324W        W44178   2.786  10.858  14.696  0.0289  0.4617 -0.0411
25325W        W44179  17.899   6.507  13.274  0.1599 -0.2194 -0.2354
25326W        W44180   7.102   1.358   3.383  0.0075 -0.1936 -0.3344
25327W        W44181  16.346  13.557   1.286  0.1115 -0.3594  0.0742
25328W        W44182   4.361  15.813   2.358  0.0446 -0.3213  0.0964
25329W        W44183   4.982   2.950   1.679  0.2705 -0.1491 -0.2592
25330W        W44184   7.362   7.194   4.485  0.1557  0.0529 -0.1591
25331W        W44185   8.982   5.727  12.523 -0.2337 -0.0030  0.0072
25332W        W44186  17.060  13.503   3.763  0.0284 -0.2329 -0.0448
25333W        W44187  12.348  14.510  13.102  0.0478 -0.0159 -0.2034
25334W        W44188  13.558  12.282   2.757  0.0729  0.0683 -0.1861
25335W        W44189  11.969  16.471   2.758 -0.1629 -0.0963 -0.1182
25336W        W44190   9.331  16.721   2.797 -0.2310  0.3355  0.3986
25337W        W44191   6.456   6.347   0.403 -0.0532  0.2493 -0.1814
25338W        W44192  15.251   6.945  10.841 -0.1140 -0.2567 -0.2304
25339W        W44193  11.387  11.093  10.849 -0.0524 -0.0546  0.0484
25340W        W44194  17.099   5.997   3.384 -0.0527 -0.1289  0.0303
25341W        W44195   0.263   7.305  12.850  0.2054  0.0656 -0.0664
25342W        W44196   2.861  11.641   1.059  0.0868  0.0384  0.0402
25343W        W44197  12.712  17.979  15.059  0.1912  0.0750  0.0954
25344W        W44198   1.620  18.076   4.353  0.0917  0.1607  0.0408
25345W        W44199   1.970   6.296   2.693  0.4697 -0.0533  0.1764
25346W        W44200  10.234   5.533  10.935 -0.0972 -0.2659  0.0070
25347W        W44201  12.378   7.951   1.674 -0.0200 -0.0256  0.0553
25348W        W44202   7.576   6.084   1.248 -0.1045 -0.1012 -0.0279
25349W        W44203  15.163   5.785   3.161  0.2002  0.0292 -0.0629
25350W        W44204   3.150  13.708  13.446 -0.1621 -0.1284  0.0896
25351W        W44205   0.030  17.056   1.134  0.2284  0.0080 -0.0463
25352W        W44206  18.107  14.734   1.734  0.2218  0.0354 -0.0682
25353W        W44207   3.109   8.710   0.375  0.0977  0.0510  0.2562
25354W        W44208  16.361   7.188   2.839  0.0169 -0.0037  0.2022
25355W        W44209   7.520  11.010  12.897 -0.0450 -0.3815  0.1403
25356W        W44210   3.142   4.085  11.839 -0.0628  0.1411 -0.1128
25357W        W44211  11.295  12.370   9.668 -0.3211  0.0655 -0.3065
25358W        W44212  15.776   2.229   1.594 -0.0767 -0.0164  0.6365
25359W        W44213   0.384   3.847   5.780  0.0688 -0.1344  0.0430
25360W        W44214   7.127   6.662   4.296  0.0814 -0.2635 -0.0417
25361W        W44215   1.600   3.150  15.085  0.0584 -0.0253 -0.1504
25362W        W44216   3.451   8.582   1.694  0.1228  0.2988  0.0284
25363W        W44217  14.881   3.398   4.115 -0.0934  0.0668 -0.0049
25364W        W44218   1.884  18.252   3.928 -0.3258 -0.0258  0.2968
25365W        W44219   2.053  17.766  13.633  0.4349 -0.0237  0.0222
25366W        W44220   9.258  13.862   4.232 -0.1505 -0.1507 -0.1858
25367W        W44221  15.132   6.127  11.298  0.0712  0.0609 -0.1976
25368W        W44222   0.301   8.655   0.663  0.1072  0.3688  0.1667
25369W        W44223  14.999  17.155   2.601  0.1955  0.1231  0.1562
25370W        W44224   5.794  17.653  14.805 -0.2519 -0.3465 -0.0946
25371W        W44225  14.631  17.842  14.036 -0.0312  0.0186  0.2660
25372W        W44226  15.398   1.357  12.991  0.0994 -0.0404 -0.0104
25373W        W44227   1.906   3.600  11.586 -0.3698  0.2170 -0.3038
25374W        W44228  15.606  18.164  13.512 -0.0300  0.2612  0.0582
25375W        W44229   7.937   8.575  13.747  0.1952 -0.0810  0.4842
25376W        W44230  18.086  11.736   2.836  0.1548  0.1498 -0.2759
25377W        W44231   3.086   5.886   0.359  0.5600  0.2037  0.2584
25378W        W44232   2.511   7.608  14.623  0.2538 -0.2380 -0.5069
25379W        W44233  11.314   6.922   0.777 -0.3323  0.3164  0.0395
25380W        W44234   6.958  17.998  11.547  0.0434 -0.4859  0.2529
25381W        W44235   0.816   2.594   5.553  0.2913  0.1133 -0.0715
25382W        W44236   6.031  16.561  13.121  0.0302  0.2658 -0.1851
25383W        W44237   1.246   6.863   9.651 -0.0299 -0.2283  0.2436
25384W        W44238  15.993  13.226  13.309 -0.0708 -0.2033 -0.2085
25385W        W44239   3.897  11.420  13.097  0.2890  0.0695 -0.1889
25386W        W44240   5.488  16.599   2.711  0.2683 -0.1245 -0.1002
25387W        W44241  13.998   1.622   3.622 -0.2672 -0.1770 -0.2806
25388W        W44242  15.280  11.197   2.460 -0.2273  0.2969 -0.3280
25389W        W44243   2.894   4.825   4.500  0.4519  0.0205  0.1811
25390W        W44244   5.952  15.283  13.463  0.0872  0.0543  0.1717
25391W        W44245   9.191  10.109  14.261  0.2819  0.5002  0.2550
25392W        W44246  11.610  17.278   4.157  0.0726 -0.1015 -0.2659
25393W        W44247  18.718  11.477  12.313  0.4015 -0.1394 -0.4541
25394W        W44248  12.198   0.168   1.609 -0.1511 -0.2254  0.2908
25395W        W44249  10.029   6.578   2.585 -0.0409  0.1988 -0.0488
25396W        W44250  14.107   7.492   1.790  0.0239  0.0101  0.1766
25397W        W44251   1.150   7.393   1.450 -0.3076 -0.0335  0.3458
25398W        W44252  16.614   6.906   3.773 -0.1665 -0.0928  0.0359
25399W        W44253   3.772   1.827   0.370 -0.1331 -0.1420 -0.0308
25400W        W44254  12.578  10.037  14.751  0.0102  0.3638  0.0917
25401W        W44255   8.392  14.681   3.145  0.3180 -0.0160 -0.0841
25402W        W44256  14.517  16.871  11.518 -0.0656  0.1049  0.0872
25403W        W44257   9.969   1.813  14.502  0.2946 -0.1852 -0.0088
25404W        W44258  17.416  14.755  15.073  0.0035 -0.0034 -0.0108
25405W        W44259   7.175   9.636   0.432  0.4103 -0.2509  0.1888
25406W        W44260  11.601   2.020  11.043  0.2062 -0.0521  0.1237
25407W        W44261   7.198   5.895  11.967 -0.2150  0.0369 -0.1069
25408W        W44262   3.488   0.262   1.368  0.0563  0.3141 -0.1623
25409W        W44263   7.333  17.485  14.278 -0.1862  0.0156 -0.0511
25410W        W44264  10.667   4.099   4.309  0.0413 -0.1529 -0.0827
25411W        W44265   3.736   2.313   3.785 -0.1251  0.1013 -0.0429
25412W        W44266  15.294   5.709  14.332  0.1454 -0.2000 -0.1334
25413W        W44267   0.663  13.991  11.781 -0.1025  0.2284 -0.1470
25414W        W44268  12.026  18.814  13.167  0.1077 -0.2647  0.0668
25415W        W44269   3.706   3.824   3.299 -0.0650  0.2351  0.1826
25416W        W44270  12.414  12.386  11.251  0.1311  0.1170  0.0322
25417W        W44271  16.671  12.266  14.449 -0.3731  0.1454 -0.0128
25418W        W44272   1.509  13.932  10.389 -0.3347 -0.0971 -0.0249
25419W        W44273   6.795   5.701  12.880 -0.1534  0.0262 -0.0342
25420W        W44274   2.708   8.855  13.783 -0.1364  0.0606 -0.0168
25421W        W44275   8.083  15.507  12.968 -0.0198 -0.2117 -0.1559
25422W        W44276  13.423   9.074   2.566 -0.1456  0.2615 -0.0800
25423W        W44277  11.656   8.789  13.417 -0.0171  0.2132 -0.2048
25424W        W44278   8.626  13.681   0.478  0.1635 -0.1315 -0.1524
25425W        W44279  10.240   9.941   4.462  0.1199 -0.2380  0.0152
25426W        W44280  18.811   6.555   2.867 -0.1796  0.1852  0.3709
25427W        W44281   6.802  16.198   3.261 -0.2582  0.3500 -0.2051
25428W        W44282   4.822  10.006   3.563 -0.2159  0.0123  0.0114
25429W        W44283   9.456   0.472   5.197 -0.2892  0.0721  0.1730
25430W        W44284   8.034   4.821   1.797  0.0185  0.1527  0.1442
25431W        W44285   7.355   0.789   3.874 -0.0101 -0.0544  0.0474
25432W        W44286  11.212   8.347  11.622  0.0214  0.2042 -0.3013
25433W        W44287   8.355  16.133  11.288 -0.0481  0.1731  0.0512
25434W        W44288   1.775  16.491   2.133  0.0808  0.2212 -0.0336
25435W        W44289  13.014   2.360  13.253 -0.1111  0.0236  0.0399
25436W        W44290   8.279   1.634   3.008 -0.1045  0.1422 -0.2430
25437W        W44291   3.554  13.031  14.713 -0.0929 -0.0558  0.4224
25438W        W44292   1.057   1.129   3.888 -0.0826  0.0221 -0.1839
25439W        W44293  18.819  17.800  12.830 -0.0373  0.0951 -0.1516
25440W        W44294   5.871  15.607   3.222 -0.1731 -0.4060 -0.1626
25441W        W44295  16.423  17.157   3.777 -0.1195  0.0607 -0.0278
25442W        W44296  11.637   5.986  10.005 -0.0140 -0.2834  0.0008
25443W        W44297  17.828   9.527  12.914  0.1973 -0.0337 -0.1470
25444W        W44298   2.669   2.016   0.398 -0.0786  0.2408  0.3108
25445W        W44299   9.984   1.622   1.658 -0.2771  0.1152 -0.1146
25446W        W44300  11.049   6.606  14.272  0.0473 -0.0386 -0.0948
25447W        W44301  11.959  12.612  14.861  0.1732 -0.0683  0.1842
25448W        W44302  16.098  12.897  10.551  0.0041  0.2069  0.1061
25449W        W44303   4.160  10.619  15.021  0.0039  0.3624  0.2875
25450W        W44304   9.671  14.186   1.183  0.2212  0.0916 -0.0126
25451W        W44305  11.980  12.332  11.706  0.0852 -0.1286 -0.1015
25452W        W44306  11.050   0.045  14.806  0.2385  0.2763  0.1624
25453W        W44307  17.752  16.544   2.601  0.2420  0.0369 -0.1995
25454W        W44308  13.540   0.856   1.520  0.0987 -0.0994 -0.0430
25455W        W44309  10.919   7.211  11.006  0.0206 -0.1937  0.0349
25456W        W44310  16.663   8.296   0.226 -0.2058  0.1313  0.2090
25457W        W44311   1.986  11.391   2.765 -0.3508 -0.0681  0.0005
25458W        W44312   0.405  14.690  13.264 -0.2719 -0.2896 -0.0703
25459W        W44313   6.438   7.601   3.551 -0.0328  0.1067 -0.4306
25460W        W44314  12.406  13.105  14.195 -0.4184 -0.1882  0.2017
25461W        W44315  15.356   0.878  13.062  0.0684 -0.1859  0.1346
25462W        W44316   5.354   6.220  14.649  0.3115  0.4091 -0.0079
25463W        W44317  16.062   8.481   1.883  0.0303 -0.0425 -0.0001
25464W        W44318  17.489  16.493   0.499 -0.1018 -0.0231 -0.0677
25465W        W44319  13.920   1.967   0.871  0.0506  0.0763 -0.2503
25466W        W44320   9.609   1.908   2.569  0.1453  0.1109  0.0660
25467W        W44321  10.684   5.307   0.798 -0.1753  0.0690  0.3861
25468W        W44322  14.375   9.006  15.027 -0.1339  0.1511 -0.0951
25469W        W44323  13.400   6.200  12.758  0.0514 -0.0136 -0.1173
25470W        W44324   9.792   6.443  11.066  0.1788 -0.0089 -0.0218
25471W        W44325  16.910  11.614   0.845 -0.1247 -0.2166 -0.3171
25472W        W44326   4.462   5.138   0.501 -0.2895  0.1214 -0.0088
25473W        W44327  13.556   0.187   1.333  0.1700  0.1860 -0.0124
25474W        W44328  11.310  10.821   4.053  0.0940 -0.0600 -0.1916
25475W        W44329   0.623   7.496  11.198  0.1523  0.2507  0.0338
25476W        W44330  15.142   6.247  12.610 -0.0663  0.1319 -0.0290
25477W        W44331   0.863   7.773  13.458 -0.0932 -0.0599 -0.0220
25478W        W44332   6.595   1.363   2.930 -0.0563 -0.1046  0.0742
25479W        W44333  13.075   4.323   3.008  0.1214  0.1104  0.0187
25480W        W44334  17.912  17.043   4.307 -0.0557 -0.1710 -0.1560
25481W        W44335   6.436  12.052  12.677 -0.1385 -0.2302 -0.1270
25482W        W44336   2.186   0.147  11.799 -0.2771  0.3750  0.3799
25483W        W44337   1.477  14.017   1.830 -0.1936  0.1017 -0.0528
25484W        W44338  17.352  15.129   0.590  0.2170 -0.2030  0.4426
25485W        W44339   3.511  14.032  13.103  0.1227  0.5373 -0.1500
25486W        W44340  15.338   7.337   1.908 -0.0494 -0.0568 -0.2525
25487W        W44341   6.784   8.905   3.589 -0.0166 -0.0377 -0.3583
25488W        W44342   4.475   5.528   0.213  0.0378 -0.1029  0.0385
25489W        W44343   0.142   0.826   0.889 -0.4173 -0.0411  0.0367
25490W        W44344  11.661  12.880   0.742 -0.1431 -0.1916 -0.2711
25491W        W44345   9.223   1.634  10.183 -0.1150 -0.2657  0.5256
25492W        W44346   4.464   8.518  13.932  0.2988  0.1874 -0.0683
25493W        W44347  16.619   9.432  10.684  0.2225 -0.1906  0.2509
25494W        W44348  17.512   1.218   2.044  0.1062 -0.0597  0.0410
25495W        W44349  12.164   1.022   1.928 -0.0140 -0.2265 -0.0488
25496W        W44350  10.615   5.835  10.688 -0.2892 -0.4463  0.3012
25497W        W44351  12.899   2.751  12.282  0.0841  0.1473  0.0377
25498W        W44352   6.437  17.392  13.042  0.1590  0.0781 -0.1574
25499W        W44353   7.042   0.730  12.222  0.0466 -0.1590  0.2298
25500W        W44354  10.684  11.075   4.266 -0.0920 -0.0328 -0.0195
25501W        W44355   5.900  13.734   4.176  0.0820 -0.1315  0.1025
25502W        W44356  13.689  13.670   0.141  0.2853  0.0533 -0.0213
25503W        W44357   7.602  18.820   0.216 -0.0082  0.0886  0.0931
25504W        W44358  16.596   5.730   2.920  0.0200  0.2613 -0.2048
25505W        W44359  12.579   0.066  12.633 -0.1923  0.3907  0.1651
25506W        W44360   1.352   0.339  13.295  0.2187 -0.0611 -0.4254
25507W        W44361   3.311   1.664  12.255 -0.0905 -0.0678  0.1763
25508W        W44362   7.990   5.311  11.753 -0.1491  0.0243  0.0729
25509W        W44363  12.779  14.938   0.568 -0.0087  0.1980  0.0631
25510W        W44364  17.678  18.743   0.581  0.0919 -0.2634 -0.0220
25511W        W44365   0.660  15.023   1.768 -0.2458 -0.0836 -0.0784
25512W        W44366   0.201   4.316  14.680 -0.2720  0.1119  0.0328
25513W        W44367   4.104   7.474  12.073  0.2662 -0.1291 -0.1112
25514W        W44368   3.839  13.510   2.615  0.0024  0.0918 -0.1264
25515W        W44369   7.291   1.353  13.633 -0.3737 -0.1512  0.2418
25516W        W44370   3.420   7.039   1.937 -0.1197 -0.0070 -0.0142
25517W        W44371   2.040   4.156  13.817  0.2709 -0.0199 -0.0012
25518W        W44372  13.259   3.794  13.123  0.0372  0.1145  0.0827
25519W        W44373  11.143  11.630   1.232 -0.0368  0.6329 -0.2600
25520W        W44374  17.270   4.548   3.225 -0.1608  0.0166  0.0969
25521W        W44375   3.126  18.676  13.660 -0.3992  0.1685 -0.0842
25522W        W44376   2.882   9.876   1.804  0.1836  0.3586  0.0848
25523W        W44377  13.472   1.747   2.714 -0.3534 -0.0465  0.3761
25524W        W44378   4.187  13.173  11.189  0.3069  0.2507  0.0707
25525W        W44379  16.666   6.969   2.074  0.0478  0.2062  0.0909
25526W        W44380  16.385  13.266  10.171  0.1488  0.0780 -0.1853
25527W        W44381   2.873   7.579   2.589  0.1378 -0.0716 -0.0979
25528W        W44382   0.125  12.885  10.959 -0.0193  0.0248 -0.0015
25529W        W44383  15.329  18.534  13.703  0.0553  0.2307  0.0159
25530W        W44384  11.508  12.984  14.257 -0.0796  0.1236  0.1086
25531W        W44385   5.109   6.881   1.848  0.0993  0.0796  0.1407
25532W        W44386  13.488  14.213  13.255 -0.0343  0.0592 -0.0478
25533W        W44387   7.389   9.134   1.688  0.3185 -0.2121  0.2753
25534W        W44388   5.093  18.433   1.861  0.1652 -0.0085  0.0473
25535W        W44389  13.944   8.880   3.483 -0.3481 -0.0147 -0.0019
25536W        W44390  17.179   0.370  12.301  0.3319 -0.1017  0.2845
25537W        W44391   1.953  18.189  15.071  0.2327  0.0931 -0.2096
25538W        W44392   1.546   4.868  10.932 -0.2162 -0.2727  0.2102
25539W        W44393   5.305   4.171   2.074  0.2552  0.1127  0.2431
25540W        W44394  10.614   5.446  13.661 -0.0924  0.0181  0.0456
25541W        W44395  14.288   0.135   3.574 -0.1102  0.1578  0.1589
25542W        W44396  18.211   6.187   1.851 -0.4211 -0.1064  0.1695
25543W        W44397   1.397   9.979   3.126  0.2438 -0.0566 -0.3296
25544W        W44398   1.967   2.923  13.449 -0.0914  0.1187 -0.0263
25545W        W44399   5.638   4.511   3.102 -0.0535 -0.1170  0.0446
25546W        W44400  13.759  17.828   1.924 -0.0033 -0.1178 -0.1190
25547W        W44401   5.611  10.800   1.267 -0.3460  0.2680  0.0639
25548W        W44402  17.883  11.719  13.540  0.2138 -0.0058  0.1007
25549W        W44403   3.210  12.115   1.848 -0.2137 -0.1422 -0.2383
25550W        W44404   0.802   2.524  10.429  0.1629  0.0454  0.0019
25551W        W44405  11.984   6.901  14.921 -0.0258  0.4255  0.2818
25552W        W44406  15.646  17.888   2.210  0.2565  0.0713 -0.0055
25553W        W44407  15.782  15.118  11.323 -0.0960  0.3371  0.2939
25554W        W44408   8.670  10.423  14.462 -0.0591  0.1541  0.2192
25555W        W44409   6.325  16.431   2.471 -0.2402 -0.1990  0.2850
25556W        W44410   0.728  11.394   3.071  0.1411 -0.2667  0.1262
25557W        W44411   4.995   3.925  14.344 -0.3101  0.0055 -0.2342
25558W        W44412   1.772   8.884  11.629 -0.1264 -0.1774 -0.2242
25559W        W44413   6.719  11.552  13.153  0.0445  0.0742 -0.0665
25560W        W44414  10.176   4.551   2.608 -0.0944  0.5078 -0.1088
25561W        W44415  11.715  16.444  15.026  0.3143  0.1886 -0.1618
25562W        W44416   7.256   0.846  15.073  0.1067  0.0778  0.3205
25563W        W44417  10.828   4.669  13.621  0.1060  0.2620  0.0119
25564W        W44418   2.646   2.467  11.084 -0.1442  0.1759 -0.0969
25565W        W44419  16.393  14.804  10.018 -0.0051 -0.2371  0.1876
25566W        W44420   3.168   9.662   1.370  0.1930 -0.0415  0.0913
25567W        W44421   1.403  17.354   1.226 -0.0087  0.0547 -0.0606
25568W        W44422  10.010  10.775   3.829  0.2146  0.2973 -0.4596
25569W        W44423  17.081   5.586   3.107 -0.2398 -0.0989 -0.0735
25570W        W44424  15.896  17.802   1.719  0.3220  0.2199 -0.0563
25571W        W44425   1.515   3.061   1.673 -0.1773 -0.1894  0.0970
25572W        W44426  14.232   9.772  12.172  0.1040 -0.0975  0.1109
25573W        W44427  13.054   7.494   0.668 -0.2189  0.0184 -0.2472
25574W        W44428  13.616  14.171   0.007  0.0605  0.1380 -0.1260
25575W        W44429  14.343  17.343  14.215 -0.0183  0.1275 -0.0660
25576W        W44430   5.725   9.420  10.774 -0.0042  0.0043 -0.0605
25577W        W44431   8.333   8.294   0.244 -0.1720 -0.0551  0.1105
25578W        W44432   6.065  17.713  11.633 -0.0412  0.0497  0.3121
25579W        W44433  10.008   8.193  14.990 -0.2123  0.1076  0.0448
25580W        W44434   1.166   9.725   2.697  0.3076  0.2779 -0.1737
25581W        W44435   4.344   5.285   5.074  0.3662  0.3194 -0.4384
25582W        W44436   7.342  17.628   3.046  0.1486 -0.1313  0.0685
25583W        W44437   3.351   9.651  11.672  0.3299 -0.0205 -0.0023
25584W        W44438   4.610   1.692  14.595 -0.0898  0.2251  0.1814
25585W        W44439  10.786   9.728   2.479 -0.2876 -0.0120 -0.2247
25586W        W44440   2.145  17.311  12.002 -0.2882 -0.1705  0.1094
25587W        W44441  11.870   8.701   1.749 -0.0486 -0.2611  0.1181
25588W        W44442  16.494   1.773   0.613  0.1938 -0.4108  0.2826
25589W        W44443  11.479   0.515  13.732 -0.0304 -0.1558  0.5015
25590W        W44444   2.994   8.347   3.801 -0.0167 -0.1507 -0.0453
25591W        W44445   4.479  10.329   3.408  0.0637  0.0865  0.0344
25592W        W44446   1.192   6.069   1.487  0.3964 -0.0927  0.1523
25593W        W44447  14.779  12.805  11.337  0.0955 -0.0747 -0.2166
25594W        W44448  15.927   0.817  10.558  0.1323 -0.1515  0.1785
25595W        W44449   4.485   2.398  11.493 -0.0941  0.1901  0.0199
25596W        W44450   7.396   1.537  14.142 -0.0462  0.1413  0.2327
25597W        W44451  11.705  17.578   1.221  0.0682 -0.0777  0.0181
25598W        W44452   9.227   2.277  13.346 -0.0776  0.0193 -0.1573
25599W        W44453   6.229   9.420   1.956  0.4233  0.0791  0.2726
25600W        W44454  10.886   5.929   2.461 -0.0736 -0.1200 -0.0619
25601W        W44455   4.873  12.231  14.775  0.0576 -0.1294  0.0128
25602W        W44456  15.565   2.113  11.741  0.4766 -0.3446  0.3603
25603W        W44457   6.273   8.563   2.421  0.0097 -0.2459 -0.0438
25604W        W44458  18.516   2.027  12.045  0.2812  0.1306  0.2011
25605W        W44459   2.883  15.585  13.112 -0.0942 -0.0033  0.3420
25606W        W44460  16.207   6.077  14.869 -0.0711 -0.1640 -0.0694
25607W        W44461  17.426   9.676  14.637 -0.1821  0.4057  0.0847
25608W        W44462  14.570  18.671  14.215 -0.3209 -0.3083  0.2802
25609W        W44463   3.892  17.049  12.497  0.0417  0.2285 -0.4574
25610W        W44464   3.702   1.395  14.731 -0.0667 -0.1094 -0.2711
25611W        W44465   7.253   3.362  12.076  0.1079 -0.0689  0.1007
25612W        W44466   0.493  11.872   0.423  0.3930 -0.0907 -0.0192
25613W        W44467   3.740   3.771  14.506 -0.3301 -0.1818 -0.0120
25614W        W44468  16.970   2.562   2.305 -0.2633  0.2773 -0.1893
25615W        W44469   9.187   2.505  11.390  0.0605 -0.0340 -0.0319
25616W        W44470   7.982   5.401   0.873  0.0035  0.2857  0.1130
25617W        W44471   1.294   5.694  14.972  0.1857  0.0263  0.1149
25618W        W44472   2.341   5.492  13.948  0.3763  0.1244  0.0950
25619W        W44473   7.897  15.539  11.503 -0.3141  0.1862 -0.0385
25620W        W44474   0.357   8.745   4.279 -0.1188  0.1364 -0.1738
25621W        W44475  12.868   3.164  15.039  0.0559  0.0394  0.0742
25622W        W44476   0.278  14.384   2.893 -0.0430  0.2603 -0.3268
25623W        W44477   6.059   1.464   2.704  0.0383 -0.0903 -0.0706
25624W        W44478  14.588   6.412  10.555 -0.2588 -0.2107  0.2353
25625W        W44479  13.926   9.182  10.009 -0.2128 -0.1386 -0.1436
25626W        W44480  14.751   4.740   4.427  0.0545  0.1355  0.1772
25627W        W44481   5.966  11.309  14.328  0.0286 -0.2885 -0.3349
25628W        W44482   8.402  11.557   1.416 -0.0240 -0.1013 -0.1534
25629W        W44483   8.858  12.437   4.330 -0.0813 -0.1977  0.0629
25630W        W44484  11.356   6.784  11.759 -0.1397 -0.2101  0.0558
25631W        W44485  14.229  10.185   1.697  0.0615  0.0561  0.0690
25632W        W44486   7.585  14.222   4.250  0.0530  0.0410 -0.1151
25633W        W44487   4.978   0.511  13.984  0.4515  0.0475 -0.0696
25634W        W44488   4.358   6.376   1.028 -0.2298  0.0761 -0.1349
25635W        W44489  13.221   7.497  11.915  0.0047  0.1014 -0.0164
25636W        W44490  14.555  18.628   2.054 -0.0966  0.1142 -0.0252
25637W        W44491  17.935  12.743  12.468  0.0356  0.2967  0.0718
25638W        W44492  10.784  16.788   0.578  0.0672 -0.1437 -0.1085
25639W        W44493   0.107   0.764   4.727  0.3176 -0.0219  0.4092
25640W        W44494  15.543  13.465  11.482  0.0002  0.1699 -0.0374
25641W        W44495  16.774   9.381  12.995  0.1958 -0.2333  0.0030
25642W        W44496  12.420   3.337  15.044  0.1817  0.0062  0.1941
25643W        W44497  15.869   5.015   1.236 -0.1181  0.0341  0.0655
25644W        W44498   7.783   3.286   1.208  0.2513 -0.1200  0.1195
25645W        W44499  18.389   9.717  12.469  0.1746 -0.1565 -0.2459
25646W        W44500  15.986   6.160  11.724  0.0333  0.2538 -0.0704
25647W        W44501  13.569   0.550   1.028  0.0852 -0.2090 -0.2265
25648W        W44502   9.222   8.697  14.940 -0.0831 -0.1280  0.0197
25649W        W44503   4.730  15.656  10.920 -0.0321 -0.1826  0.1167
25650W        W44504   2.459   4.293  11.365  0.1712 -0.3216  0.0953
25651W        W44505  11.998  14.289  11.801 -0.2735  0.1000 -0.0794
25652W        W44506   3.896  17.655   3.731  0.1603  0.0465  0.0254
25653W        W44507   2.329   2.739  11.431  0.0555  0.0385  0.2019
25654W        W44508   2.016  14.401  11.795 -0.1401 -0.0831 -0.1047
25655W        W44509   6.634   9.996  13.041  0.1958 -0.2788 -0.0614
25656W        W44510  12.725  17.656   1.928  0.0988 -0.2792  0.1003
25657W        W44511  14.445  15.400   4.339  0.2304  0.0732 -0.1149
25658W        W44512   5.033   8.697  11.759 -0.3703  0.1835  0.1693
25659W        W44513   8.149   3.438  13.220 -0.2043 -0.0159 -0.2789
25660W        W44514   9.810   4.354   4.148 -0.0591  0.2906  0.0479
25661W        W44515  12.878  18.430  12.583  0.1630 -0.0353  0.2533
25662W        W44516   7.809   3.514   3.383 -0.1349  0.2150  0.1447
25663W        W44517  17.672   4.684  10.828 -0.1203  0.0928  0.3042
25664W        W44518   6.345  11.135   0.770  0.1240 -0.3181  0.0517
25665W        W44519   3.043   8.160  13.985  0.1581  0.2118  0.2690
25666W        W44520  15.649  11.447   1.059  0.1475 -0.0784  0.2883
25667W        W44521   3.619   1.432   0.638 -0.2843 -0.1188  0.2300
25668W        W44522   1.600   5.611  10.718 -0.0293  0.2160  0.3127
25669W        W44523  10.193   2.542  12.207  0.1114 -0.2767 -0.0606
25670W        W44524   2.952  11.931  13.100  0.1885 -0.0747 -0.0647
25671W        W44525   4.647   7.353  12.078 -0.0156 -0.3239  0.0083
25672W        W44526   1.201  15.902   2.744  0.0774 -0.2076 -0.0630
25673W        W44527   4.331   9.085   0.972 -0.1371  0.2294 -0.0354
25674W        W44528   2.482   9.057   0.801  0.1417  0.3971 -0.0396
25675W        W44529   6.417  13.109   4.520 -0.1756 -0.3378  0.2061
25676W        W44530  15.868   8.978   0.084  0.2182  0.2008  0.2212
25677W        W44531   6.636   9.237   3.965 -0.0068  0.3645 -0.1792
25678W        W44532  18.471   9.407   3.062 -0.0695  0.0631  0.2581
25679W        W44533   6.020   0.059   4.243  0.0704 -0.2597  0.2504
25680W        W44534   9.906   6.469  14.829  0.0459  0.2061 -0.1875
25681W        W44535   7.223   3.464   3.459 -0.0476  0.1203 -0.2627
25682W        W44536   2.140  10.626   1.534  0.2124  0.1000  0.3041
25683W        W44537  15.235   2.874  13.915 -0.0815  0.1412 -0.1171
25684W        W44538  17.266  13.516   1.000  0.1118  0.3486 -0.2435
25685W        W44539   8.231  13.049   4.406  0.3444  0.0882 -0.0010
25686W        W44540   5.917   2.325  13.138 -0.1611  0.2251  0.2082
25687W        W44541   7.235  12.924   2.681 -0.3934 -0.1054 -0.0573
25688W        W44542   0.910  10.370   1.460 -0.0038 -0.1724  0.0538
25689W        W44543   4.347  18.856   0.970 -0.1805  0.2320 -0.0463
25690W        W44544   2.809   5.368  11.380 -0.0297 -0.0957  0.1135
25691W        W44545  15.478   1.759   1.812 -0.2899  0.2657 -0.5096
25692W        W44546   5.109  13.969  12.441 -0.3088  0.0778 -0.1310
25693W        W44547   6.570   3.856  10.748 -0.1782 -0.1262 -0.1718
25694W        W44548  17.603  13.175  12.310 -0.1092  0.2607 -0.0441
25695W        W44549   4.133   5.457   0.892  0.1672  0.2335 -0.0562
25696W        W44550  17.038  17.509  13.364  0.1715 -0.2145  0.0067
25697W        W44551  13.037   1.312   3.297 -0.3148  0.2783 -0.0057
25698W        W44552  17.843  12.904  13.125  0.0906  0.1781 -0.0881
25699W        W44553   2.044   6.095   2.127 -0.0098  0.0193  0.1640
25700W        W44554  14.719   6.092   1.862 -0.1660  0.0728 -0.1562
25701W        W44555  11.410  18.622  13.782  0.1295  0.2444 -0.3475
25702W        W44556  17.583   3.639  12.071 -0.0012  0.0055 -0.0433
25703W        W44557   9.057  14.867   0.902 -0.0777  0.3826  0.0608
25704W        W44558  13.166   8.777   2.119 -0.3218 -0.0808 -0.1346
25705W        W44559   1.683   9.304   1.627 -0.4391  0.2038 -0.1524
25706W        W44560  12.966   0.933  14.995  0.2694 -0.0069 -0.2330
25707W        W44561   2.512   7.183   3.436 -0.1903 -0.0386  0.1177
25708W        W44562  17.147   9.043   0.862 -0.2269 -0.2982  0.2015
25709W        W44563  15.820  10.011   3.567 -0.0011 -0.0062 -0.0761
25710W        W44564  15.766  10.286  14.686  0.0244  0.0872 -0.0629
25711W        W44565   6.038   6.643   3.298 -0.1438  0.5444  0.1003
25712W        W44566   0.040  17.480   0.651 -0.2063  0.0295 -0.1509
25713W        W44567  13.397  18.109   1.142  0.1168  0.4010 -0.3136
25714W        W44568  15.239  13.054   2.608  0.1469  0.1349 -0.2790
25715W        W44569   9.540  16.678  11.427  0.0377 -0.1748  0.2825
25716W        W44570   6.467   5.130   0.014 -0.1246  0.0571 -0.0827
25717W        W44571  11.197   9.568   3.454  0.0066  0.0770  0.2076
25718W        W44572  17.404   9.749   3.132 -0.1823 -0.1836  0.2770
25719W        W44573   0.119   2.011  10.223  0.0524  0.4006  0.1733
25720W        W44574   6.058  12.493  10.492 -0.0133  0.2780 -0.0034
25721W        W44575   7.870   9.921   2.803 -0.0024  0.0418  0.1997
25722W        W44576  17.484   7.759   3.427 -0.0358 -0.3760  0.0835
25723W        W44577  12.180   3.225   1.373 -0.3355  0.2366  0.3250
25724W        W44578   0.985   9.689  14.852 -0.1263 -0.1272  0.0483
25725W        W44579  10.119  15.373  12.295 -0.1829 -0.0683  0.0759
25726W        W44580   6.818   5.808   0.995  0.1853 -0.1306 -0.1819
25727W        W44581  16.831   4.521  12.777 -0.0363 -0.1807  0.2364
25728W        W44582  12.671   3.141   2.146  0.1107  0.0355  0.0494
25729W        W44583   5.676   3.771  13.349 -0.2410 -0.3468  0.1061
25730W        W44584  13.220   5.107   2.485 -0.3514  0.1340 -0.0183
25731W        W44585   8.314   0.593   4.395  0.1623 -0.2605 -0.2983
25732W        W44586   0.035   5.500  14.095 -0.0911  0.0527  0.0296
25733W        W44587   6.792   5.212   4.698  0.0514  0.1040  0.0615
25734W        W44588   1.457  10.888  14.595 -0.1011 -0.0311 -0.0795
25735W        W44589  10.200  15.942  11.066  0.2408  0.1221 -0.0224
25736W        W44590   2.063  10.339  11.709  0.0808  0.3917  0.0917
25737W        W44591  11.672   8.856   4.152  0.2279 -0.1494  0.1814
25738W        W44592   5.125  18.297  12.633 -0.1453 -0.1820  0.0266
25739W        W44593   2.495  18.343  11.251  0.3831 -0.3507 -0.0463
25740W        W44594  16.057  16.922  13.814 -0.1962 -0.2451 -0.1213
25741W        W44595   7.526  11.312   2.082  0.1360 -0.1339 -0.2121
25742W        W44596  11.564   6.771   1.587 -0.0655 -0.1071  0.1474
25743W        W44597   9.163  17.513  11.273  0.3339 -0.1004 -0.3254
25744W        W44598  13.964  16.703  11.434 -0.0058 -0.2293  0.1358
25745W        W44599   0.478  14.848   0.623 -0.2597  0.0357 -0.0965
25746W        W44600   9.849  17.496  12.398 -0.1921  0.1315  0.0169
25747W        W44601  18.479   8.760  13.704 -0.1737  0.1408  0.0527
25748W        W44602   8.570  16.179  11.720 -0.0954 -0.0287 -0.0488
25749W        W44603  14.634   0.485  14.894  0.1298  0.3096  0.1576
25750W        W44604  10.539   7.701  14.090 -0.1275  0.1844 -0.2611
25751W        W44605   1.381  13.551   1.166  0.0830 -0.2563 -0.0156
25752W        W44606  17.503   4.682   4.091 -0.0608 -0.3854 -0.1887
25753W        W44607   6.923  16.943   1.618 -0.2844 -0.0174 -0.2344
25754W        W44608  13.096  13.140  14.717 -0.2354 -0.1403 -0.1413
25755W        W44609  16.064  16.282  13.718 -0.1181  0.2225  0.1210
25756W        W44610  11.217   9.743  13.076  0.2534  0.5290 -0.0724
25757W        W44611  14.305  15.338  13.174  0.1561  0.1518 -0.1239
25758W        W44612  13.526   1.518  12.108 -0.0098 -0.2127  0.0730
25759W        W44613  10.631   7.905  13.465 -0.1094 -0.1067 -0.1039
25760W        W44614   0.718   7.042  12.950  0.1456  0.3934 -0.1321
25761W        W44615   3.807  17.452   1.834 -0.0725  0.0131 -0.2349
25762W        W44616  18.466  12.159   9.538  0.0417 -0.3279  0.3015
25763W        W44617   8.158  16.489   4.209  0.1126 -0.1668 -0.0460
25764W        W44618   9.542  15.924   9.851 -0.1498 -0.1347 -0.3820
25765W        W44619  14.474   7.488   0.599 -0.1767 -0.1736  0.2448
25766W        W44620   7.347   8.078   1.382 -0.0196  0.1543 -0.1120
25767W        W44621  13.170  18.819  10.421  0.1698 -0.0744  0.1382
25768W        W44622  12.629   4.266   0.599  0.0215 -0.0839  0.1360
25769W        W44623  17.422   5.851   1.651 -0.2546 -0.1281 -0.0099
25770W        W44624   6.994  17.451  13.219  0.1241  0.1654  0.2270
25771W        W44625   4.467  17.012  13.911 -0.0189  0.1104 -0.1265
25772W        W44626  17.231  16.736   2.711 -0.1050 -0.0148  0.0191
25773W        W44627  11.613   4.292   3.742 -0.1551 -0.3065  0.0652
25774W        W44628   3.724  15.414   4.161  0.0768  0.0656 -0.0216
25775W        W44629   9.413  17.208   0.588 -0.1274  0.0023 -0.1417
25776W        W44630   0.371  12.218  11.777  0.0612  0.2081  0.4802
25777W        W44631   1.197   7.979   2.832 -0.1127 -0.0442 -0.1501
25778W        W44632  11.839  11.364  11.012 -0.1492  0.2333  0.1067
25779W        W44633   8.925  15.276   3.759 -0.0975 -0.1452 -0.0236
25780W        W44634   1.413   9.848   1.633 -0.2283 -0.0007  0.0880
25781W        W44635   7.283   5.278  10.370 -0.1284  0.1341 -0.0466
25782W        W44636  13.522  14.531   3.518  0.1302 -0.2123 -0.0961
25783W        W44637  14.412   4.544   2.210 -0.0936 -0.4334  0.1414
25784W        W44638  12.930   8.062   4.466  0.2736  0.1457  0.3693
25785W        W44639  15.870  17.261   3.762  0.0342  0.1265 -0.0854
25786W        W44640   1.600   0.392  12.401  0.0782  0.2564 -0.1135
25787W        W44641   7.105   5.070  12.863 -0.1194 -0.1102  0.1332
25788W        W44642   4.560  10.920   1.155 -0.1000  0.1534 -0.3809
25789W        W44643  11.333  10.841  14.569 -0.2871 -0.2688  0.2218
25790W        W44644  11.613   5.148   0.812 -0.2812  0.0638 -0.0636
25791W        W44645  15.554   7.330   1.398 -0.0660 -0.0945 -0.0331
25792W        W44646   6.945   7.629  13.720  0.1582  0.3077  0.0998
25793W        W44647  13.144  11.956   2.731  0.1222  0.4227 -0.0833
25794W        W44648   7.053  10.106   0.182 -0.0231 -0.1683 -0.0408
25795W        W44649  16.219  18.141   4.048 -0.2243  0.0240  0.0710
25796W        W44650  13.897  14.636   3.877 -0.0589 -0.0640 -0.1581
25797W        W44651  11.748  12.717  12.505 -0.2349 -0.2985 -0.3634
25798W        W44652  16.301   5.568  10.927  0.1520 -0.1008  0.0744
25799W        W44653  12.602  11.779   3.439 -0.1555 -0.1726 -0.1819
25800W        W44654   9.769   4.722   3.804  0.0454  0.2894  0.3191
25801W        W44655  18.450   1.434   4.335  0.0019  0.0115 -0.0564
25802W        W44656   9.476  12.150  12.094 -0.2851  0.2194 -0.0666
25803W        W44657   0.632  12.526   3.176 -0.3251 -0.3113 -0.0241
25804W        W44658  16.809   0.647  11.316 -0.0108 -0.1419 -0.0797
25805W        W44659   9.602  17.067  15.073 -0.0824 -0.0222 -0.2119
25806W        W44660  10.591   2.320   2.761  0.1032  0.1816  0.2398
25807W        W44661   3.859  12.898   2.212  0.1935  0.0415 -0.1417
25808W        W44662  12.570   3.282  12.347 -0.1530  0.3817  0.1841
25809W        W44663   0.502   6.237  11.094  0.4135 -0.2338  0.1134
25810W        W44664   7.029  14.013   1.993 -0.1186 -0.1175  0.1446
25811W        W44665  17.887   0.292  12.669  0.0675  0.1412  0.1849
25812W        W44666  18.522   3.138  12.816  0.0157  0.1227 -0.0723
25813W        W44667   8.329   1.641  13.596 -0.1469 -0.2879 -0.0552
25814W        W44668  10.344   7.750  14.889  0.0662 -0.0420 -0.2536
25815W        W44669   8.928  13.312  12.524  0.1357 -0.0382 -0.1414
25816W        W44670   6.761  17.394   2.329 -0.2550  0.0395 -0.0364
25817W        W44671   3.837   6.278   4.373  0.0347  0.3746 -0.0926
25818W        W44672  18.237   5.400  12.724 -0.2234  0.2618 -0.0533
25819W        W44673   5.840  18.264   2.976 -0.1155 -0.2758  0.2099
25820W        W44674   7.771  16.528  10.604 -0.0179 -0.0506  0.1485
25821W        W44675   4.462  13.409   2.357  0.0479 -0.2357  0.2161
25822W        W44676   4.906  16.076  14.269 -0.1915  0.0631 -0.0950
25823W        W44677   7.692  12.606   4.228  0.1291 -0.0541 -0.3146
25824W        W44678  16.573   6.003   5.506  0.1652  0.2660  0.1343
25825W        W44679   0.231  12.489  10.589 -0.0138  0.3116  0.0756
25826W        W44680   0.206  14.067  13.283  0.0167 -0.0761 -0.1297
25827W        W44681   5.927  13.417  11.944  0.2324 -0.1627  0.3961
25828W        W44682   3.650  14.628   0.973 -0.0285 -0.0390 -0.0159
25829W        W44683  13.789   3.182   1.514 -0.1960  0.0103  0.3016
25830W        W44684   5.336  15.885   3.959 -0.1905  0.2215  0.0352
25831W        W44685  15.200  17.150  12.151 -0.2281 -0.3077  0.1794
25832W        W44686   2.701  14.959  11.935  0.0657  0.2712 -0.1424
25833W        W44687   1.451  14.115  14.342 -0.0815 -0.0210 -0.0467
25834W        W44688   1.623   5.267  14.485  0.1219  0.1404  0.1283
25835W        W44689   0.229   0.162   1.992  0.0238  0.1392 -0.1287
25836W        W44690   2.215  16.358  10.878  0.1180 -0.1237  0.2469
25837W        W44691   0.518  12.021   2.112 -0.0264 -0.0626  0.3468
25838W        W44692  17.247  16.837  13.084  0.1787  0.0735 -0.3993
25839W        W44693   4.298  10.793  10.733  0.0103 -0.0855  0.1324
25840W        W44694   7.218   0.718   0.505  0.3270 -0.1089  0.1226
25841W        W44695  16.773   8.703   3.172  0.2733  0.0318 -0.0477
25842W        W44696   1.775   6.643  13.331  0.0743  0.3308 -0.0344
25843W        W44697   5.172   9.813  12.636  0.1920 -0.1787 -0.0403
25844W        W44698   4.850  14.878  12.225 -0.2514 -0.2055 -0.2051
25845W        W44699   4.760  10.918  14.309  0.0851  0.0212 -0.2365
25846W        W44700   7.499   1.188  10.861  0.2300 -0.0820  0.0736
25847W        W44701   5.098   9.382   1.648  0.1693 -0.2875  0.2734
25848W        W44702   9.038  13.082  10.572 -0.1034  0.0529 -0.2537
25849W        W44703   6.389   1.417   2.254  0.3013 -0.2702 -0.0688
25850W        W44704  16.113   9.928   9.989 -0.0692 -0.4042 -0.0519
25851W        W44705   0.376  16.605   3.006  0.0190 -0.1931  0.3796
25852W        W44706   8.050   3.544   0.877 -0.2832 -0.1799 -0.1696
25853W        W44707   2.231  12.743   2.205 -0.1853  0.0783  0.0909
25854W        W44708   7.351  16.644  14.859 -0.0691  0.0049  0.1007
25855W        W44709  16.841   2.719  11.204  0.0911  0.0516 -0.0224
25856W        W44710  18.640  13.378   0.779 -0.1190  0.0436 -0.0335
25857W        W44711  13.787  10.099  11.991 -0.2842 -0.2381  0.0369
25858W        W44712  12.876  12.851   2.955  0.0036 -0.0906 -0.0737
25859W        W44713  13.132  17.656   1.089 -0.0293 -0.0297  0.0968
25860W        W44714  14.997   4.789   2.870 -0.2053 -0.2226 -0.1449
25861W        W44715  11.751   2.508   0.668 -0.1934 -0.1028  0.2173
25862W        W44716   2.452   5.665   2.798 -0.2015  0.0416  0.1261
25863W        W44717  17.086   1.802   1.577 -0.0669  0.1367 -0.5073
25864W        W44718  16.117  13.346   1.906  0.2474  0.0263 -0.1814
25865W        W44719  18.643  13.343  14.146  0.2129  0.1387 -0.3569
25866W        W44720  15.541  13.921  11.325  0.1289 -0.3253 -0.1009
25867W        W44721   7.034  15.155  11.871 -0.0602 -0.1308 -0.2662
25868W        W44722   3.615  10.769   1.870 -0.0462  0.0002  0.1841
25869W        W44723   4.469  17.716   2.987  0.1352  0.0912  0.0664
25870W        W44724   3.185   7.208   2.599  0.0394 -0.0743  0.2297
25871W        W44725  16.502  18.507  14.210  0.1427 -0.2072  0.0264
25872W        W44726  13.093  12.450  12.059  0.0157  0.1039  0.4265
25873W        W44727   5.915   6.002  12.525  0.0336 -0.0935 -0.1664
25874W        W44728  14.791  17.822  14.600  0.0950  0.0802  0.2911
25875W        W44729  10.231   4.448  13.244  0.0250  0.0228 -0.1068
25876W        W44730   3.723   5.006   3.581  0.0756  0.2064 -0.0378
25877W        W44731   8.037   3.257  13.806 -0.1557 -0.0782  0.2215
25878W        W44732  16.246   1.223  14.387  0.0183 -0.5477  0.0290
25879W        W44733   9.325   9.613  15.087  0.0318  0.1111 -0.1226
25880W        W44734   1.658   4.253   1.413 -0.0682 -0.1434 -0.1208
25881W        W44735  15.276   1.678  13.529 -0.4081  0.3399  0.0798
25882W        W44736  17.821  14.210   1.093 -0.1006  0.1600 -0.0710
25883W        W44737  10.541   3.514   2.411  0.0548  0.0786 -0.2503
25884W        W44738  17.866  14.549   3.944  0.1852 -0.2862 -0.1208
25885W        W44739  13.451   9.734  11.369 -0.0489  0.2515  0.2041
25886W        W44740  14.484   4.354  14.705 -0.0716 -0.1396  0.0468
25887W        W44741  16.324  12.361   9.773 -0.0776  0.0633 -0.1608
25888W        W44742  16.448   9.246  13.664 -0.1774  0.0438  0.1467
25889W        W44743  10.169   0.427  13.277  0.0389 -0.1754  0.0964
25890W        W44744  16.600   2.583  10.374 -0.0093 -0.2299  0.0538
25891W        W44745  14.126   2.067   2.217 -0.0329  0.1463  0.0685
25892W        W44746  10.473   0.813  12.024  0.0462  0.0494  0.1910
25893W        W44747  13.429   4.132   4.736 -0.0541 -0.0572 -0.3312
25894W        W44748   4.198  16.224   4.594  0.0274 -0.0094  0.1501
25895W        W44749  17.641   6.085   2.490  0.0694 -0.2012  0.0810
25896W        W44750   8.504   5.440  11.747 -0.3561 -0.0752 -0.0154
25897W        W44751   3.722  17.805   0.254  0.1463 -0.2520 -0.2348
25898W        W44752  14.973   5.253  12.251 -0.4087  0.0906 -0.0746
25899W        W44753   1.972   5.636   1.147  0.0330  0.0174 -0.1531
25900W        W44754  12.525   6.013  12.790 -0.0151  0.0975 -0.0409
25901W        W44755  12.905   3.149  13.643  0.1414 -0.1508  0.1403
25902W        W44756  12.788  11.664   4.274  0.0722 -0.2016  0.0322
25903W        W44757  11.274  16.958  11.221 -0.1735 -0.2368  0.3189
25904W        W44758  15.509   7.238   4.118 -0.2220 -0.0147 -0.0897
25905W        W44759  13.581   1.859  13.889  0.2264  0.3453  0.0981
25906W        W44760   7.497   2.405  12.492  0.1230 -0.1372  0.1062
25907W        W44761  18.427  13.489  13.017  0.1563  0.0061  0.1297
25908W        W44762  11.771   5.747  12.118 -0.0414  0.1316 -0.1011
25909W        W44763  17.684  13.917  13.121  0.2727 -0.2102  0.0767
25910W        W44764   3.853   9.205   3.574 -0.0583  0.4131 -0.0114
25911W        W44765   1.734   3.879   3.062  0.0383  0.4335 -0.3005
25912W        W44766  17.100  13.916   3.282 -0.1835  0.0517 -0.2547
25913W        W44767   8.501  17.284   1.180  0.0742 -0.0718 -0.2280
25914W        W44768   7.224  12.554   1.645  0.0338  0.0761 -0.5059
25915W        W44769   1.580  14.371  12.614  0.0305  0.1881  0.1311
25916W        W44770   2.432  17.518  13.788  0.2617  0.0729 -0.4056
25917W        W44771   7.034   6.111  13.673 -0.1906  0.0665 -0.0797
25918W        W44772   1.839   4.761  14.679  0.0065 -0.2354  0.1162
25919W        W44773   3.887   0.400  13.017  0.2713  0.2335  0.0212
25920W        W44774  10.217  16.878   3.407  0.4816  0.0305 -0.2131
25921W        W44775  16.386   3.546   3.472  0.0631 -0.1765  0.2357
25922W        W44776   0.195  17.580   1.592 -0.3578  0.1116 -0.1021
25923W        W44777   1.162  11.757   2.783  0.4083 -0.0774  0.0823
25924W        W44778  11.042   8.654   1.354  0.2036  0.0744 -0.3198
25925W        W44779   7.878   4.556  14.494 -0.2128  0.0648 -0.1546
25926W        W44780  16.152   4.448  14.658 -0.0395  0.1696 -0.1684
25927W        W44781  12.911  16.068  14.593  0.0922  0.0134 -0.0736
25928W        W44782  17.424   8.123   1.555  0.0747 -0.0643  0.2730
25929W        W44783  11.316  11.767  13.640 -0.0082  0.1209  0.2356
25930W        W44784   8.850   7.796   0.225 -0.0725 -0.0627  0.2519
25931W        W44785  15.458  17.027  11.627 -0.0029 -0.2470 -0.1937
25932W        W44786   0.162   5.934  10.932  0.1515 -0.0889 -0.1111
25933W        W44787   4.863   6.863  13.883  0.0729 -0.1471  0.1863
25934W        W44788   8.644   9.670   0.526  0.0031 -0.1355 -0.1237
25935W        W44789   2.139   1.662  11.436 -0.2483 -0.0889 -0.1028
25936W        W44790  13.516  12.999  12.792 -0.2550  0.1849  0.0448
25937W        W44791  10.878   5.016   2.512 -0.5040 -0.2068 -0.0490
25938W        W44792   2.680   7.167  10.814  0.1367  0.0359 -0.2556
25939W        W44793  16.032  15.741   3.900 -0.0305 -0.1004  0.1072
25940W        W44794  16.633  13.326  15.075  0.0127  0.0526 -0.1515
25941W        W44795  12.038  14.322  12.676 -0.0585 -0.0884  0.2691
25942W        W44796  16.258  17.476   3.382 -0.0846  0.1378 -0.0006
25943W        W44797   0.762  10.481   0.644 -0.0509 -0.5287  0.0646
25944W        W44798  14.085  10.268   2.667  0.0855 -0.1266 -0.1517
25945W        W44799  14.607   0.997   3.883 -0.0534 -0.1449 -0.1524
25946W        W44800   4.388   5.539   2.722  0.0683 -0.0077  0.1431
25947W        W44801  14.502  13.550  12.877  0.1568 -0.2547  0.1419
25948W        W44802  15.677  10.202  13.936  0.0681  0.1233  0.0856
25949W        W44803   4.437  13.762   4.012  0.3264  0.1153 -0.3082
25950W        W44804   7.430   9.765   1.238 -0.0779  0.1019  0.1430
25951W        W44805  10.150   4.987  11.986 -0.0432  0.1307  0.5276
25952W        W44806   7.085   1.581  12.679 -0.2175  0.0924  0.0471
25953W        W44807   2.395   1.279   3.610 -0.1772  0.1222  0.1515
25954W        W44808   3.484  12.894   3.470 -0.1251 -0.0664 -0.1865
25955W        W44809   9.506   9.843  13.615  0.1342 -0.0628 -0.1868
25956W        W44810   2.123  17.742   3.886 -0.1914  0.1756 -0.2213
25957W        W44811  17.147   5.993   2.388  0.1108 -0.0130 -0.1979
25958W        W44812   7.481   1.306  12.520  0.2266 -0.0150 -0.1305
25959W        W44813   5.789   9.108  13.911  0.1449 -0.0297  0.0228
25960W        W44814   5.798   8.745   3.791 -0.3036 -0.0056  0.0290
25961W        W44815   1.066   2.864   3.128 -0.3190  0.0446 -0.1760
25962W        W44816   4.321   1.336   1.192 -0.1029  0.5213  0.3674
25963W        W44817   0.237   4.475   0.033 -0.2306  0.3441 -0.0607
25964W        W44818  10.550   8.804  10.375 -0.1390  0.0838  0.0652
25965W        W44819   3.725  16.695   2.356  0.0166  0.2493  0.0097
25966W        W44820   2.290  18.256   0.686 -0.1643 -0.1993  0.2715
25967W        W44821   8.119  12.945   2.298  0.0805  0.0263  0.2762
25968W        W44822   8.121   7.379   2.478  0.0585  0.2181 -0.1057
25969W        W44823   7.153   1.222   0.720  0.0959  0.2358  0.1122
25970W        W44824  12.141  16.367   4.342 -0.3449 -0.3817 -0.4853
25971W        W44825  11.864   8.543   3.257 -0.1853  0.0876 -0.0256
25972W        W44826   5.550  10.477   3.418  0.0164  0.1364  0.1908
25973W        W44827   3.037   0.087   2.877  0.3547  0.3177 -0.0721
25974W        W44828  17.290   1.112  11.581 -0.0858 -0.2886 -0.0006
25975W        W44829   4.851   1.974   2.494  0.5380  0.1042 -0.1575
25976W        W44830   8.301  12.646   4.098 -0.2316  0.4236 -0.2421
25977W        W44831  13.829  16.598   4.026  0.1742  0.2466  0.0391
25978W        W44832  17.921   6.123  12.882 -0.2750  0.0698  0.0151
25979W        W44833   9.541   0.910   2.194  0.1565  0.2675 -0.0829
25980W        W44834  17.440   2.631   3.237 -0.0460  0.1477  0.0092
25981W        W44835   0.414   6.272   2.811 -0.1143  0.0151 -0.3942
25982W        W44836   5.447  18.346   3.805  0.2022  0.2496 -0.0683
25983W        W44837  18.405  16.109   3.175  0.0222 -0.0485 -0.2231
25984W        W44838  17.714   0.964  10.963 -0.0842 -0.0470  0.3226
25985W        W44839  11.274   5.446  13.272  0.2437  0.1676  0.1730
25986W        W44840   4.727   8.616   0.949 -0.0399  0.0822  0.1796
25987W        W44841   7.854   9.832   2.230 -0.2520 -0.3943 -0.1782
25988W        W44842  10.405  15.688  10.415  0.0895  0.2720 -0.0711
25989W        W44843  10.855  10.380   0.877  0.1049  0.1663  0.0502
25990W        W44844   7.857   0.281  14.416  0.0218 -0.0615 -0.2764
25991W        W44845   0.734  12.426   0.485 -0.2653 -0.2005 -0.0202
25992W        W44846  18.707   7.122   1.647 -0.2551  0.2217 -0.1224
25993W        W44847   3.634   6.976  13.576  0.0164 -0.1395 -0.2898
25994W        W44848  15.910   1.270  12.991  0.2326  0.1210  0.0194
25995W        W44849   4.100  11.773   0.974  0.0344  0.2434 -0.0631
25996W        W44850   1.792  14.432   2.315  0.1501  0.4169  0.0874
25997W        W44851   3.202  10.528  10.829 -0.2684  0.0963 -0.1386
25998W        W44852  13.154  12.980  13.984  0.1251 -0.1382  0.0941
25999W        W44853   5.805   0.583   1.413 -0.0899  0.1695 -0.1415
26000W        W44854  14.650   5.903   0.611 -0.1127 -0.2785  0.0223
26001W        W44855   0.682  14.518   2.045  0.1013 -0.2565 -0.1537
26002W        W44856   7.601  12.194   1.752 -0.2752 -0.0826  0.1317
26003W        W44857   0.100   5.933  13.852  0.2991  0.1162 -0.0450
26004W        W44858   6.834  16.575   0.607  0.0274  0.0817  0.1754
26005W        W44859  16.280   8.370  11.830  0.0727 -0.0823  0.1754
26006W        W44860   3.403   8.897   2.526 -0.2436  0.4032 -0.2179
26007W        W44861   8.746   0.108  11.833  0.1924  0.1023 -0.1349
26008W        W44862  17.470  18.671   0.112 -0.0120 -0.1430  0.1012
26009W        W44863  16.051  16.502   2.196 -0.0685  0.0296  0.1819
26010W        W44864   7.399   8.765  10.341 -0.0175  0.1104 -0.2382
26011W        W44865   8.358  13.569   2.046 -0.0651  0.2186  0.1616
26012W        W44866   1.288   6.670   1.671 -0.2556 -0.1789  0.2518
26013W        W44867   4.413  11.161   0.667  0.0528  0.0700  0.0534
26014W        W44868  12.952  13.336   2.168  0.0816 -0.0066  0.1498
26015W        W44869  10.697   9.971   1.076 -0.0635 -0.2984  0.2771
26016W        W44870  13.506  17.353  14.404 -0.1194 -0.0632  0.0712
26017W        W44871  10.346  10.494   2.927  0.0477 -0.1770  0.1640
26018W        W44872  17.933  11.362  11.812  0.3342 -0.3404  0.2014
26019W        W44873   2.826   4.296   2.938  0.0660  0.0153  0.1110
26020W        W44874   1.562   7.937  11.339  0.1109  0.1207 -0.1119
26021W        W44875   7.783  17.947   4.462 -0.0189 -0.2214  0.0762
26022W        W44876  12.061   3.496   0.731 -0.1203  0.1528 -0.0353
26023W        W44877   8.423  10.299   4.103  0.0606  0.1070  0.0116
26024W        W44878   7.389  17.273   1.530 -0.2347 -0.1461  0.0920
26025W        W44879  18.641   5.053  13.459 -0.0798  0.1797 -0.0091
26026W        W44880  10.529   4.403  12.311 -0.2580 -0.0492  0.2645
26027W        W44881   4.561   8.849  13.378  0.0343  0.0064  0.0944
26028W        W44882  14.368  14.778  10.436 -0.4686 -0.0468 -0.0739
26029W        W44883   1.435  11.914  10.892 -0.3058 -0.1094  0.0081
26030W        W44884   9.101   3.378   5.193 -0.1378  0.1550  0.0071
26031W        W44885  18.225  15.491   0.522 -0.0597  0.0708  0.2497
26032W        W44886   8.942   1.804  13.074 -0.2476  0.0104  0.0908
26033W        W44887  13.435  14.254  13.747  0.1045  0.0818 -0.0393
26034W        W44888  12.817  16.983  12.172 -0.0341  0.0253  0.0720
26035W        W44889   2.755  12.815   0.275  0.2163 -0.0105 -0.0484
26036W        W44890   7.303  15.574  14.312  0.2517 -0.1796 -0.0894
26037W        W44891   0.456   1.417   5.771 -0.2401  0.0719 -0.0820
26038W        W44892  17.176   8.689   3.460 -0.1177 -0.3302 -0.0810
26039W        W44893   4.732   0.535   3.500  0.1645  0.1883  0.0138
26040W        W44894  13.211   7.242   1.415 -0.0526  0.0971  0.1899
26041W        W44895  13.182  13.479  12.227  0.0400  0.2364  0.0367
26042W        W44896  11.685  13.602   0.383 -0.0895  0.0891  0.0337
26043W        W44897   2.183  11.629  14.586 -0.0571 -0.2694  0.3554
26044W        W44898   7.828   7.881  11.565 -0.0022 -0.0888  0.1591
26045W        W44899  15.627   4.917  15.115  0.0219 -0.0057 -0.1656
26046W        W44900   4.056   2.004   1.688  0.0797  0.0654  0.2679
26047W        W44901   0.121  16.733  14.885  0.2390  0.3543  0.1814
26048W        W44902   7.215  18.709  10.911 -0.1433  0.1736 -0.3397
26049W        W44903  10.964   5.162  11.772  0.0663  0.2680  0.1611
26050W        W44904   1.195   2.043   2.555  0.0804  0.0570  0.3580
26051W        W44905   6.691  16.897   2.624  0.0655 -0.0230 -0.1734
26052W        W44906   6.690  16.939  11.068 -0.0340 -0.2723  0.1529
26053W        W44907  13.745   8.229   4.546 -0.2225 -0.0958  0.0813
26054W        W44908   2.481  11.168  10.003 -0.2080  0.1224  0.1648
26055W        W44909   1.337  16.016  11.927 -0.0963  0.0256 -0.1614
26056W        W44910  12.554  13.168  11.488  0.3573 -0.1647 -0.0279
26057W        W44911   2.913  10.490   9.946  0.0879  0.1868 -0.0242
26058W        W44912   5.796   0.867   1.901  0.2047  0.0706  0.1601
26059W        W44913   9.563   9.444   9.826 -0.2418  0.3606 -0.4741
26060W        W44914  10.876  10.123   2.830 -0.0704 -0.0465 -0.1066
26061W        W44915  10.170   3.129  12.812  0.1489  0.2427  0.0315
26062W        W44916  18.626   8.054   1.164 -0.0574  0.0673  0.0578
26063W        W44917   3.847   8.002  13.097  0.6084  0.0491  0.1060
26064W        W44918   0.401   5.493   1.558  0.1543 -0.1683 -0.5083
26065W        W44919   7.439   5.371  14.543  0.1677 -0.2345  0.0110
26066W        W44920   3.335   4.503   3.050 -0.1150  0.0281  0.0356
26067W        W44921  14.679   2.811   0.163 -0.2162  0.0139  0.0698
26068W        W44922   6.451  11.508   2.171  0.2319 -0.4587 -0.2863
26069W        W44923   9.686   0.955  14.431  0.1848 -0.0331  0.1633
26070W        W44924  11.308   3.347  12.012  0.0087 -0.0582 -0.0345
26071W        W44925  13.076   4.829  12.329 -0.3084 -0.1587 -0.0410
26072W        W44926  13.560  12.411  10.776  0.0524  0.1054  0.2762
26073W        W44927  14.963  13.647   1.658  0.1602  0.0654  0.2482
26074W        W44928   3.206   4.447  14.445  0.0644 -0.2611  0.1280
26075W        W44929  10.033   6.955   4.205  0.0712 -0.1945  0.1505
26076W        W44930  10.198  16.386  14.593  0.1405 -0.0674  0.3171
26077W        W44931   6.877   3.309  12.699 -0.2566 -0.0191 -0.0409
26078W        W44932   2.912  13.953  11.770  0.3024  0.1940  0.0029
26079W        W44933  18.136  11.306  14.905 -0.0342 -0.0147 -0.3203
26080W        W44934   7.655  12.586   0.775 -0.3066 -0.2641 -0.0462
26081W        W44935  16.132  15.021   1.936  0.0679  0.1552  0.0015
26082W        W44936   5.279   5.350  10.539 -0.0543  0.2882 -0.0111
26083W        W44937   8.990   2.417   3.429  0.0919  0.2098 -0.3023
26084W        W44938  13.424  14.915  13.796  0.2434 -0.2378 -0.1788
26085W        W44939  17.052  15.857   2.649 -0.4547 -0.3734 -0.1705
26086W        W44940   3.360  12.611   1.573  0.1356 -0.3901 -0.1922
26087W        W44941   4.059   5.427   4.722  0.0762 -0.1843 -0.2385
26088W        W44942  11.141  13.233  14.973 -0.1854 -0.1367  0.1027
26089W        W44943  16.430   5.178  13.333  0.0312 -0.0021  0.1409
26090W        W44944  14.895  12.990  13.324  0.1065 -0.1524  0.2386
26091W        W44945  13.213   0.175   0.871 -0.1020  0.1157 -0.3843
26092W        W44946  14.125   6.754   2.778  0.0118  0.1580 -0.1034
26093W        W44947   2.369  15.814  13.783 -0.1453 -0.3931  0.0935
26094W        W44948  14.639   4.242   1.167 -0.0482 -0.0162 -0.0229
26095W        W44949   5.749  15.598   2.734 -0.2856 -0.1452 -0.0213
26096W        W44950   7.504  16.325  14.509  0.0282  0.0491  0.1768
26097W        W44951   6.314   0.392   0.229  0.1862  0.2590  0.1044
26098W        W44952   8.861   3.393   1.054  0.2422  0.0022 -0.2041
26099W        W44953   7.286  10.609  14.157  0.1360 -0.0861 -0.0920
26100W        W44954   1.017   5.092  12.311 -0.3187  0.0713  0.1676
26101W        W44955   4.917  11.930  13.443 -0.2172 -0.1970 -0.1947
26102W        W44956   7.450   8.104   4.446 -0.3754  0.0231  0.0088
26103W        W44957  15.131   5.182   2.499 -0.1123  0.0122  0.0843
26104W        W44958   9.480   0.894   0.879 -0.3689  0.5120  0.0730
26105W        W44959   8.778   7.335  12.417  0.0254 -0.0153  0.0252
26106W        W44960   0.496   5.297  14.016  0.0515  0.2262 -0.1587
26107W        W44961   8.753  18.192  15.066  0.1541  0.1122 -0.2195
26108W        W44962   7.707  17.779   2.669  0.1000  0.2367 -0.0335
26109W        W44963   5.040  13.005  13.613 -0.2576  0.0325  0.0276
26110W        W44964   0.229  16.311   9.855 -0.2647 -0.0080 -0.2249
26111W        W44965  16.998  15.323  13.769  0.1265  0.1875 -0.0817
26112W        W44966   0.326  12.933  12.851  0.1077 -0.0384  0.1100
26113W        W44967   9.657  12.212   3.170  0.2177 -0.0790 -0.2003
26114W        W44968  12.900  15.894  12.203  0.1717 -0.1044 -0.0549
26115W        W44969  12.551  13.367   3.722  0.0257  0.0062  0.0308
26116W        W44970  10.215   7.322  13.973  0.0044 -0.1027 -0.0722
26117W        W44971  13.942   9.882  12.712 -0.3080 -0.1848  0.0596
26118W        W44972   1.024  17.815   2.991  0.2290 -0.1913  0.0632
26119W        W44973  12.888   9.619   1.668 -0.0181  0.2266  0.2865
26120W        W44974  13.134  17.529   4.145  0.2601  0.3201 -0.0224
26121W        W44975  15.552   3.920  10.977 -0.0781 -0.0136 -0.1474
26122W        W44976   2.236  16.651   2.065  0.2734 -0.0868  0.0683
26123W        W44977   3.076   1.895   2.497  0.0770  0.2174  0.1285
26124W        W44978  10.237  11.041  11.661 -0.0041  0.0892 -0.0213
26125W        W44979  12.340  13.423   4.232  0.1388 -0.0779  0.0024
26126W        W44980  16.468  10.594   4.229 -0.1349  0.1762 -0.2822
26127W        W44981   8.055   4.352   3.610 -0.0878  0.1067 -0.0182
26128W        W44982  11.998  10.207   0.235 -0.0574 -0.0566 -0.1508
26129W        W44983  10.263  16.648   2.222 -0.0137 -0.3175 -0.1069
26130W        W44984   6.292   6.882  14.749 -0.0326 -0.1278 -0.1313
26131W        W44985  17.865   0.612   3.177 -0.1910 -0.1301  0.0245
26132W        W44986  18.073  11.871  11.760  0.2087 -0.1924 -0.0155
26133W        W44987   8.272   0.024  12.577 -0.1199 -0.0059  0.2438
26134W        W44988  18.508   3.954   4.468 -0.1283 -0.2031 -0.0941
26135W        W44989   2.066  17.463  14.624 -0.2235  0.0391 -0.2302
26136W        W44990   1.415  18.759  12.377  0.2428 -0.1539 -0.2044
26137W        W44991  15.061   4.035  11.166  0.1902  0.0890 -0.2839
26138W        W44992   3.562   7.805  11.997 -0.2648 -0.0391 -0.0321
26139W        W44993  17.955   7.135   3.771 -0.0447  0.2770 -0.1520
26140W        W44994  14.841   3.382   1.428  0.1317 -0.2139 -0.1680
26141W        W44995   5.701   0.176   2.451 -0.2485 -0.1333  0.2140
26142W        W44996  11.928   1.008  12.590 -0.0770 -0.1571  0.0927
26143W        W44997   2.124  18.100  11.624 -0.3636  0.2859 -0.1754
26144W        W44998  15.433  14.489  13.015  0.1420  0.1687  0.0314
26145W        W44999  11.276  14.482   0.328 -0.2749 -0.3656 -0.1578
26146W        W45000  13.692  10.989   0.177 -0.0667 -0.0651  0.0579
26147W        W45001   0.905   4.454  10.641 -0.3853 -0.1343 -0.1587
26148W        W45002   6.878  10.535   0.479  0.0893 -0.0766  0.2424
26149W        W45003   3.081  16.575  11.972 -0.1123  0.0858  0.1993
26150W        W45004  10.164  17.767   1.598 -0.1127 -0.0665  0.0068
26151W        W45005   2.967   4.871   3.987 -0.0027 -0.0431  0.1688
26152W        W45006  13.733   8.280   4.041  0.3113  0.0176 -0.0355
26153W        W45007  10.354  17.726   2.147 -0.1564 -0.1374  0.0297
26154W        W45008  13.878   9.493  12.421 -0.1765 -0.0342  0.3227
26155W        W45009  18.410   1.141   2.854 -0.2635 -0.4387  0.1158
26156W        W45010  15.993  18.650  14.423  0.3582 -0.2171 -0.0322
26157W        W45011   1.500   0.998   3.073 -0.1601  0.0269 -0.1317
26158W        W45012  13.865  14.586  15.124  0.1336 -0.2507 -0.1007
26159W        W45013  15.703   6.247  15.101  0.0825  0.0577  0.1703
26160W        W45014  15.096   0.408   0.835 -0.1789  0.1151  0.0786
26161W        W45015  10.115   0.101  14.692  0.0044  0.1387  0.1252
26162W        W45016  13.616   3.594   0.765 -0.0968  0.2691 -0.1700
26163W        W45017   1.460  15.219   1.719 -0.1654  0.4473 -0.0288
26164W        W45018  17.245  10.176  11.103 -0.0579 -0.1762  0.2275
26165W        W45019   6.285  18.096   2.839  0.1519  0.0535 -0.0247
26166W        W45020   7.147   3.550  14.713 -0.0341 -0.0454 -0.0679
26167W        W45021  14.676   6.397   0.083 -0.0909  0.0025 -0.4103
26168W        W45022   6.490  17.749   3.348 -0.2800 -0.0093 -0.1620
26169W        W45023   0.625  10.295  10.941 -0.0826  0.2798 -0.0478
26170W        W45024   6.370   7.168   1.362  0.4001  0.2148 -0.0245
26171W        W45025  17.248  15.076   4.330 -0.1435  0.0413  0.2023
26172W        W45026   1.064  14.731  11.928  0.0233  0.0849  0.0361
26173W        W45027  18.300  13.019  13.849  0.1239  0.0416 -0.1079
26174W        W45028   0.955  18.193  15.006  0.1746 -0.2489  0.0774
26175W        W45029  15.787   5.440  12.320 -0.1909  0.0918  0.1241
26176W        W45030   5.476   1.863  11.283 -0.0885 -0.1045  0.0955
26177W        W45031  13.469   6.436   1.010 -0.3075 -0.2318 -0.0936
26178W        W45032   0.636   8.578  14.207 -0.3174 -0.2758 -0.0108
26179W        W45033  17.312  11.537   1.457  0.0783 -0.0035 -0.0501
26180W        W45034   8.987  18.442  14.179  0.0847 -0.1357 -0.0791
26181W        W45035  12.946   0.199   2.716 -0.4330  0.1857  0.0160
26182W        W45036   6.906  14.401   1.650  0.0492 -0.0944 -0.0018
26183W        W45037   2.244   8.956   9.487 -0.0756 -0.1542 -0.0600
26184W        W45038   2.252   1.779   0.228  0.1860  0.2112  0.0140
26185W        W45039   0.117   4.675   1.049 -0.0638 -0.0522 -0.0365
26186W        W45040  18.820  18.334  14.295  0.0842 -0.1056 -0.1010
26187W        W45041   9.649  13.016   0.287 -0.0821  0.2454  0.0018
26188W        W45042   7.452   8.882   4.301 -0.0750 -0.1399 -0.0313
26189W        W45043   7.047  15.421  14.799 -0.0842  0.1316 -0.0725
26190W        W45044  14.731   6.763  10.865  0.0158 -0.1737 -0.3052
26191W        W45045  16.991   2.437  14.223 -0.0860  0.0241 -0.1787
26192W        W45046   2.517  18.030  12.508 -0.2816  0.4417  0.0405
26193W        W45047   2.275  13.047   2.697  0.0392 -0.0743  0.0460
26194W        W45048  18.567  18.527   3.211  0.1633  0.0252  0.1649
26195W        W45049   7.883   7.663  10.519  0.1475 -0.0919  0.0472
26196W        W45050   7.654  12.975  10.137  0.0623  0.1609  0.0644
26197W        W45051   6.397  12.180   4.365 -0.0350 -0.3444 -0.1855
26198W        W45052  11.292   9.801   4.361 -0.0147 -0.0810  0.0337
26199W        W45053   6.372   1.617   4.081 -0.2762 -0.2382  0.3372
26200W        W45054   9.517   4.787   0.831  0.1433 -0.3854 -0.1637
26201W        W45055  17.791   3.374   0.983  0.1984 -0.1396 -0.0288
26202W        W45056   3.290  11.614   1.358  0.3228  0.1589  0.1050
26203W        W45057  12.381   1.758   2.668 -0.0757 -0.0468  0.0864
26204W        W45058   6.100  13.963  14.542 -0.2072  0.1484 -0.0207
26205W        W45059  12.467   0.778  14.962  0.4204 -0.4535 -0.0132
26206W        W45060   6.996  16.308  14.686  0.0607  0.1831  0.2003
26207W        W45061   2.128  11.762  15.068 -0.0108 -0.0310 -0.0922
26208W        W45062  12.539   5.415  10.676 -0.2082  0.2125  0.0195
26209W        W45063  18.250  15.199  11.927  0.0444  0.2841 -0.0285
26210W        W45064   8.492  12.279  11.482  0.0717  0.2574  0.1796
26211W        W45065   2.591   0.369  13.159  0.4357 -0.2342 -0.0412
26212W        W45066   4.352  16.614   3.709  0.0142  0.0910  0.1454
26213W        W45067  14.178  11.803  12.785  0.0817  0.0489  0.1968
26214W        W45068  17.389  17.181  14.010  0.1677 -0.1336  0.2233
26215W        W45069  12.996  14.569  11.114  0.0909  0.0207 -0.2048
26216W        W45070  13.284   2.398  12.113 -0.1286 -0.4462 -0.0111
26217W        W45071   5.087  10.731   2.033 -0.0571  0.4515 -0.1584
26218W        W45072   7.732   5.837   0.839 -0.0582 -0.0066 -0.2114
26219W        W45073  15.516   7.879  11.027  0.1379 -0.0983 -0.0191
26220W        W45074  15.533   1.542  10.909  0.0793 -0.4651 -0.1907
26221W        W45075  11.463   9.541  12.245  0.0190  0.1721  0.0487
26222W        W45076  16.186  12.885   1.314 -0.2541  0.0710 -0.5644
26223W        W45077   2.442   8.982   0.179  0.3281  0.0485 -0.3368
26224W        W45078  16.101   4.168   2.122  0.0129 -0.2134  0.0141
26225W        W45079   0.462   1.681   4.779  0.2296  0.2517 -0.1593
26226W        W45080  10.266  18.804  13.368 -0.0813 -0.2470 -0.2192
26227W        W45081   4.533   7.880   4.919  0.2705  0.0669 -0.0464
26228W        W45082   4.208  16.112  13.146 -0.1901  0.1934  0.0903
26229W        W45083   4.045   2.293   1.206 -0.2214 -0.3004 -0.0844
26230W        W45084  14.539  18.674  14.915 -0.3055 -0.0325 -0.0452
26231W        W45085  12.152  18.629  14.476  0.2998  0.0696  0.0577
26232W        W45086  16.698   8.993  12.178  0.1645 -0.3659 -0.1626
26233W        W45087  10.443   3.095   2.801  0.2551 -0.0069  0.2276
26234W        W45088   4.788  18.813  11.374  0.3260  0.1206  0.2028
26235W        W45089  13.654  14.533   0.789  0.2641  0.2601 -0.0247
26236W        W45090  11.314   9.486  13.529  0.0307  0.1970 -0.1535
26237W        W45091  13.660   8.181  13.102  0.2014 -0.2137 -0.0569
26238W        W45092   1.086  10.382   1.008  0.1049  0.3551 -0.1272
26239W        W45093  18.597  15.542   4.205  0.0064  0.5532  0.0697
26240W        W45094  17.735  14.260  13.930  0.2735 -0.0026 -0.3965
26241W        W45095   8.100   6.794   5.530  0.1249  0.2980 -0.0579
26242W        W45096   8.060  16.947  11.737  0.0337 -0.3300 -0.1280
26243W        W45097   3.496   7.568   1.146  0.0974 -0.2363  0.2886
26244W        W45098  13.539  13.655   9.501 -0.1959  0.0398 -0.1188
26245W        W45099  13.896  17.257  11.544 -0.1583 -0.1509 -0.3882
26246W        W45100  18.743   9.867   0.124  0.3941 -0.1395 -0.0138
26247W        W45101  10.322  16.315   3.419  0.3701 -0.1087  0.2848
26248W        W45102  10.256   4.650  13.990 -0.2322 -0.1596  0.1710
26249W        W45103  11.017   9.148  12.148 -0.0582  0.2140 -0.2083
26250W        W45104   3.108   1.093  11.613 -0.0303 -0.0385  0.0255
26251W        W45105  17.038  11.012   3.661  0.1246 -0.0667  0.3326
26252W        W45106  16.252   4.392   3.069  0.1742 -0.0095  0.1441
26253W        W45107   6.899   2.947  11.331 -0.0208  0.0667  0.2153
26254W        W45108   7.662   1.531  11.780  0.0288  0.0628  0.1862
26255W        W45109   1.068   6.413   1.122  0.3645  0.0529  0.0583
26256W        W45110  16.041   2.835  13.785 -0.1187 -0.0725 -0.0063
26257W        W45111   0.572  15.090   9.716 -0.2385  0.1480  0.0051
26258W        W45112   4.591   3.213   3.292 -0.1796  0.2230 -0.3847
26259W        W45113  15.669  10.918   9.808  0.0378  0.0326 -0.1313
26260W        W45114   1.765   8.062   4.159 -0.1809 -0.3644 -0.2763
26261W        W45115  15.226   2.535   3.663  0.2254 -0.0435  0.1902
26262W        W45116  17.552   8.506   1.862  0.2066  0.2363 -0.1967
26263W        W45117   8.876  10.087   0.871 -0.0275  0.0675 -0.1065
26264W        W45118  17.329  15.482   0.947 -0.2369 -0.0895 -0.0352
26265W        W45119  11.957  12.285   3.709  0.1536  0.3935  0.2667
26266W        W45120   6.303   6.449  12.401  0.0303  0.2155 -0.1659
26267W        W45121   6.333  18.424  14.661  0.3835 -0.2492  0.0072
26268W        W45122   0.876  15.020  10.610  0.2239 -0.0411 -0.2698
26269W        W45123  14.416   5.861   2.208 -0.0859  0.3074 -0.2136
26270W        W45124   5.956   8.273   0.173  0.1974 -0.4600  0.5825
26271W        W45125  11.520  14.410  10.595  0.1833  0.3096  0.0498
26272W        W45126   1.225  17.795   1.200  0.0969 -0.4052 -0.1957
26273W        W45127   6.744  11.080   0.409  0.0266 -0.0141  0.3148
26274W        W45128   1.066   7.490   0.183 -0.0886  0.0573 -0.1711
26275W        W45129  15.724  17.083   4.227 -0.1471  0.1032  0.3988
26276W        W45130   5.122  14.303   1.239 -0.3978 -0.0634  0.2321
26277W        W45131  13.666  16.021   2.259  0.1230  0.1193  0.4801
26278W        W45132   8.289   7.775   2.839 -0.0767 -0.2174  0.1267
26279W        W45133  14.303  15.927   1.225  0.0742 -0.0845  0.2124
26280W        W45134   9.522  11.686  10.604  0.2397  0.2394 -0.2295
26281W        W45135  10.603  18.258   4.123 -0.3152  0.4278  0.1793
26282W        W45136  10.874   7.915   0.925 -0.0601 -0.0201  0.0750
26283W        W45137  11.913  10.878  12.617  0.0038 -0.0750 -0.1784
26284W        W45138   8.797  12.606  14.697  0.0291 -0.2726  0.0628
26285W        W45139  11.271  17.862  14.193 -0.1720  0.0587 -0.0074
26286W        W45140   2.685  12.394  12.118  0.1117 -0.4940 -0.0113
26287W        W45141   9.045   3.066  13.378  0.1812  0.1609  0.0246
26288W        W45142   9.099   1.254  13.220  0.2535 -0.1894 -0.1395
26289W        W45143  18.097  16.064  12.501 -0.0173 -0.2283  0.1479
26290W        W45144   8.201  11.058   3.416 -0.1955 -0.0445  0.0326
26291W        W45145  15.626  18.140   0.536  0.1490 -0.1314  0.2749
26292W        W45146  17.536  17.142  12.044  0.0834  0.0733  0.1507
26293W        W45147   4.369   8.388   2.827 -0.0100  0.1988 -0.0206
26294W        W45148  13.850   2.947   0.174  0.0453 -0.2252  0.1594
26295W        W45149   8.568   7.416   1.001 -0.0711  0.0440  0.2525
26296W        W45150  16.572   9.738   2.056 -0.4192  0.3771 -0.0426
26297W        W45151   5.647   6.612  14.137  0.0857 -0.2061 -0.1118
26298W        W45152   8.634   4.280   5.350  0.0318 -0.3439 -0.1749
26299W        W45153   6.234  11.353  14.740 -0.0939  0.0562 -0.0452
26300W        W45154   6.536   7.209  13.801  0.1051 -0.0394  0.2334
26301W        W45155  13.129   5.018   1.053 -0.0755  0.0259 -0.3969
26302W        W45156  15.050   2.193   0.982  0.0557  0.2383 -0.0820
26303W        W45157   7.925  15.033  14.926  0.2970  0.1510  0.0336
26304W        W45158  17.288  11.987   1.193 -0.0058 -0.0411 -0.1180
26305W        W45159  16.842  12.191   3.460 -0.1164  0.0025 -0.2159
26306W        W45160  14.686  10.418   3.838 -0.3727 -0.4197 -0.1344
26307W        W45161  10.958  15.070  11.738  0.0124  0.2159  0.0930
26308W        W45162   8.353  15.709  11.538 -0.0086 -0.0318 -0.0940
26309W        W45163  15.305   2.734  13.265  0.2686  0.0333 -0.1445
26310W        W45164   3.925   4.940  14.735 -0.3738 -0.0844 -0.0291
26311W        W45165  11.562   2.481   3.823 -0.3985 -0.1220 -0.1054
26312W        W45166  16.872   0.757   3.738  0.1471 -0.1406 -0.0866
26313W        W45167   9.118  18.049   0.243  0.0118  0.0012  0.1579
26314W        W45168  12.720   1.158  11.575  0.1301 -0.1322 -0.1805
26315W        W45169   8.351   8.712  10.860 -0.0887  0.0177 -0.2647
26316W        W45170   3.560  11.875  12.042 -0.0371 -0.0593 -0.0968
26317W        W45171  17.110  12.628   2.731  0.1968 -0.0467 -0.1370
26318W        W45172  14.192   4.880   4.442  0.0322 -0.1348  0.2087
26319W        W45173   5.155   7.603   4.271  0.0098 -0.2901  0.1737
26320W        W45174  17.422   8.553  12.646 -0.1802  0.2875 -0.1314
26321W        W45175  10.678   5.841  11.735  0.0625 -0.2171  0.2269
26322W        W45176   4.861   6.709  10.806  0.2808  0.1169  0.0441
26323W        W45177  12.690  10.768   3.055  0.2717  0.0375 -0.0170
26324W        W45178  10.921   7.138  14.172  0.5252 -0.0088  0.1620
26325W        W45179   7.945   4.799  11.225  0.0146 -0.0198 -0.2067
26326W        W45180   8.861  16.249  11.180 -0.0310 -0.1086  0.0168
26327W        W45181   1.158   0.271   2.630 -0.0882  0.1539 -0.1004
26328W        W45182   3.403  14.193  12.002 -0.0333  0.4880 -0.1924
26329W        W45183  11.329   1.312   5.463  0.0545  0.1409  0.3007
26330W        W45184   1.130   8.190  13.554  0.0208  0.3472 -0.2835
26331W        W45185  14.804  17.122  13.637 -0.0368  0.2142  0.0914
26332W        W45186   3.519  11.950   2.198  0.1080 -0.2409 -0.2406
26333W        W45187  16.815  13.193  10.450 -0.0880  0.0910 -0.2108
26334W        W45188  17.280  11.818  10.163 -0.2003  0.0433  0.0290
26335W        W45189  15.922  14.306  11.362 -0.1481  0.2605 -0.3721
26336W        W45190  12.746  18.265  11.141 -0.2284  0.1053 -0.3690
26337W        W45191   5.870   0.829  14.625 -0.1750 -0.0622 -0.0749
26338W        W45192   2.485   6.989  12.537  0.0955 -0.1883 -0.3334
26339W        W45193   8.501  11.101  15.025 -0.1723  0.0457 -0.1067
26340W        W45194   5.937   0.073   1.615  0.1146  0.0261 -0.1858
26341W        W45195   0.097   5.116   0.657 -0.1530  0.1407 -0.2181
26342W        W45196  11.025   9.909   0.714 -0.0651  0.0539 -0.2298
26343W        W45197  12.198   4.235  10.253  0.0135 -0.3148 -0.1965
26344W        W45198  16.137  11.182  11.183 -0.0407  0.0475  0.2717
26345W        W45199   6.488  13.835   1.658  0.0128 -0.3544 -0.2858
26346W        W45200  18.745   8.744   5.232 -0.1063 -0.0129 -0.2680
26347W        W45201  14.775  13.870  13.167 -0.2122  0.2630 -0.1309
26348W        W45202  11.728  18.006   4.634  0.1228 -0.2663  0.4010
26349W        W45203   4.938   5.282   0.334  0.2490 -0.0507  0.0615
26350W        W45204  10.510   3.256   1.963  0.2451 -0.1515 -0.2245
26351W        W45205   3.542  12.834  13.448  0.0489 -0.1711  0.1512
26352W        W45206  18.493  17.817  14.557 -0.0307 -0.2984 -0.1085
26353W        W45207   7.696   4.492  10.833  0.1018 -0.2757 -0.1245
26354W        W45208   6.438   2.148  11.228 -0.0595 -0.4669  0.1050
26355W        W45209   7.102  17.003   1.165 -0.5318  0.1360 -0.1156
26356W        W45210   0.150   1.099   1.979  0.0126 -0.1848 -0.1936
26357W        W45211  15.390   6.307   1.273  0.0754  0.0411 -0.0298
26358W        W45212  12.918   1.603   1.832 -0.1008  0.0145 -0.0801
26359W        W45213   3.778   2.664  11.413 -0.4217 -0.0839  0.1586
26360W        W45214  18.344  15.992  13.802 -0.1358  0.1459 -0.1608
26361W        W45215   1.231  10.747   3.635 -0.0708  0.0111 -0.1941
26362W        W45216   2.131   2.043  14.234  0.2481 -0.0475  0.0276
26363W        W45217  18.697   2.708  13.837  0.3421  0.1624  0.4041
26364W        W45218   8.778   0.966  14.151 -0.0068 -0.1868 -0.1365
26365W        W45219  15.832  14.712   0.355  0.1174  0.0355 -0.0774
26366W        W45220   2.023   6.927   2.621  0.0410  0.4893 -0.3701
26367W        W45221   9.315  18.681  14.527  0.2415 -0.0486  0.3674
26368W        W45222  18.551  16.976   4.172  0.0387  0.0166 -0.2397
26369W        W45223   1.105  16.544  12.919  0.2722 -0.1549  0.1067
26370W        W45224  14.459  15.097  11.829  0.0366  0.0580  0.1636
26371W        W45225  10.142   7.867  13.610 -0.0779 -0.0982 -0.2266
26372W        W45226   6.416   1.298  11.592  0.0367  0.0620 -0.0138
26373W        W45227  12.812   0.009  12.217 -0.0286  0.1525 -0.1050
26374W        W45228   3.739  12.552   3.123  0.1030  0.1089  0.3570
26375W        W45229   8.024  13.638  12.958  0.0340  0.2904  0.0717
26376W        W45230   8.823   2.418  11.762 -0.0696  0.0006  0.3561
26377W        W45231   0.447  16.969   3.429  0.1232  0.1043 -0.2234
26378W        W45232   5.927  14.381   1.395 -0.3781  0.1188  0.2874
26379W        W45233  15.964  18.789  11.884 -0.0408 -0.0135 -0.1242
26380W        W45234  11.812  18.470  13.458  0.2878 -0.1563 -0.2841
26381W        W45235  13.099  17.745  11.725 -0.0417 -0.2885  0.1978
26382W        W45236   6.046  14.069   0.410 -0.0800  0.0098 -0.0370
26383W        W45237   5.717  10.811   0.765 -0.1885 -0.1023 -0.1805
26384W        W45238   2.378  14.658  12.228  0.0624  0.2244 -0.0084
26385W        W45239  16.720   4.606   0.891  0.0660  0.1448 -0.2409
26386W        W45240   0.164  17.768   0.188  0.2415  0.2399 -0.0877
26387W        W45241   5.315  17.129  11.312 -0.1842 -0.1084 -0.3202
26388W        W45242   9.651  14.507   0.711  0.2986  0.1915  0.1654
26389W        W45243  15.458  10.569  11.554  0.4326  0.0907 -0.1043
26390W        W45244  12.932  16.404   1.007 -0.1220  0.2418 -0.1801
26391W        W45245  13.849   9.116  12.108  0.2855 -0.0283  0.2219
26392W        W45246   1.016   7.494  13.028 -0.0065 -0.0147  0.2225
26393W        W45247  17.287   4.454  14.045 -0.1560  0.0252  0.0189
26394W        W45248  18.620   7.510  12.981  0.2062 -0.1539 -0.0723
26395W        W45249  16.848   1.813  10.644 -0.0056  0.0095  0.3308
26396W        W45250  18.062   6.747   3.009 -0.2187 -0.3009 -0.3504
26397W        W45251  13.022   5.324  12.477 -0.0715 -0.0148 -0.0310
26398W        W45252   2.170  17.928   0.325 -0.2758 -0.0012 -0.3371
26399W        W45253   3.398   4.425   5.253  0.0695 -0.0887  0.2419
26400W        W45254  10.782  10.709   2.809 -0.0887 -0.1419  0.0295
26401W        W45255   6.796  14.879  14.876 -0.2948 -0.1180  0.1847
26402W        W45256   0.966  10.056  13.998  0.1127 -0.0183  0.2084
26403W        W45257  10.254  11.477   1.152 -0.1713  0.0806  0.2034
26404W        W45258  10.518  13.441   3.348  0.0569 -0.0421 -0.0945
26405W        W45259  15.490  17.784   4.540 -0.1372 -0.1069 -0.0237
26406W        W45260   1.608   8.076  13.518  0.1183  0.1357  0.1755
26407W        W45261  15.812   4.958   9.750 -0.1394  0.0360  0.1519
26408W        W45262   7.448   7.715   3.321 -0.2443  0.0613 -0.3897
26409W        W45263  14.051  14.585  10.986  0.0788  0.5033 -0.1114
26410W        W45264  11.830   4.140   1.026  0.2080 -0.0745  0.3424
26411W        W45265  10.610   6.641  12.757  0.1552 -0.0068  0.1772
26412W        W45266  12.380   2.267  15.087 -0.1436 -0.0915 -0.1164
26413W        W45267  11.780  13.042  10.681 -0.0620  0.1169  0.3986
26414W        W45268  14.532  18.454   0.645 -0.0364 -0.2503  0.0246
26415W        W45269   3.381   4.187  14.047  0.2467 -0.0308 -0.4083
26416W        W45270   0.896   0.773  12.240  0.0045  0.1711  0.1394
26417W        W45271   6.150   2.764   2.450 -0.0967  0.2294  0.1015
26418W        W45272   5.119  14.610   2.495  0.4252  0.0725  0.0851
26419W        W45273   0.331   7.840  11.875 -0.3061 -0.3915  0.2006
26420W        W45274  18.602   6.646   4.453 -0.2163  0.1886 -0.0665
26421W        W45275   6.316   5.512   1.596  0.0491 -0.3286  0.2568
26422W        W45276   5.375  10.428  13.878 -0.2555 -0.1737 -0.1931
26423W        W45277   3.487  15.237   0.905 -0.1641  0.0457 -0.2545
26424W        W45278   8.576   9.107   0.649 -0.2120  0.0870 -0.0249
26425W        W45279  14.988   3.812   4.370 -0.1641 -0.0032 -0.1574
26426W        W45280   6.736   9.187  13.434 -0.2185  0.1839 -0.2147
26427W        W45281   5.199   9.664   2.080  0.1705  0.0490  0.1302
26428W        W45282   4.618  15.395   1.594  0.1016  0.2629  0.0282
26429W        W45283   1.210   3.191  10.928 -0.1195  0.0299 -0.0670
26430W        W45284  18.122  10.308   3.048  0.0991 -0.0331  0.2429
26431W        W45285  12.850   6.751   1.961 -0.5941 -0.0490  0.0062
26432W        W45286  15.364  12.116  11.380 -0.0818  0.1623 -0.3036
26433W        W45287  16.318  15.899  12.301  0.1370 -0.0412 -0.2070
26434W        W45288  13.266  11.271   1.178  0.2128 -0.1245 -0.1737
26435W        W45289   5.969  18.533   2.525  0.0864  0.3988 -0.1228
26436W        W45290   5.671  15.582  11.200  0.0169  0.1457  0.2840
26437W        W45291  12.553  12.337  10.610 -0.1457 -0.0272 -0.2407
26438W        W45292  14.681   9.282  10.840 -0.4616  0.2999 -0.1921
26439W        W45293  15.135   4.267  12.732 -0.0974  0.1366  0.3886
26440W        W45294   8.500   7.937   0.650  0.0813 -0.2638 -0.0481
26441W        W45295   3.908   4.870   4.742 -0.0828 -0.0007  0.3664
26442W        W45296  12.674  15.491  11.378 -0.0416  0.0438 -0.0206
26443W        W45297  15.371  15.551  14.419 -0.1936 -0.0783  0.0532
26444W        W45298  14.497   5.307  11.448 -0.2014 -0.1897  0.1895
26445W        W45299   5.755   0.567   5.626  0.0633  0.0240  0.1464
26446W        W45300  10.331   3.787   1.768  0.0461  0.0417 -0.0322
26447W        W45301   8.378   0.982   0.903 -0.2671 -0.1410  0.1408
26448W        W45302   5.402   3.162  14.191 -0.2422  0.1280  0.0168
26449W        W45303   7.284   2.522   3.435  0.1537  0.0852 -0.0815
26450W        W45304   7.926   9.645   1.103 -0.2221 -0.0995  0.0806
26451W        W45305  17.465  11.685   0.798 -0.0995 -0.0103 -0.0431
26452W        W45306  13.527   5.802   1.594  0.0898  0.0222 -0.0396
26453W        W45307   9.953  14.906  12.230 -0.0314  0.2024  0.1521
26454W        W45308   7.502  14.883   0.458  0.3030 -0.1802  0.0183
26455W        W45309  15.016  14.349  11.881  0.7393  0.2289  0.0435
26456W        W45310   2.828  11.730   3.768  0.2279 -0.0977 -0.0596
26457W        W45311  15.720   1.122   1.114  0.0206  0.1470 -0.0652
26458W        W45312   6.444  18.640   4.470  0.2874 -0.1610 -0.0541
26459W        W45313  18.623  16.792   2.100  0.1241 -0.0858  0.0731
26460W        W45314   0.564   2.166  11.414 -0.3806  0.0207 -0.0499
26461W        W45315   8.693   6.592   0.241  0.0145 -0.1737  0.1023
26462W        W45316  16.009   1.006  14.775  0.3003 -0.0461  0.1370
26463W        W45317  12.368  18.394  13.430 -0.0171 -0.1179  0.0426
26464W        W45318   0.136  18.829  13.939  0.2315  0.0313  0.1643
26465W        W45319  18.078   9.349  14.050 -0.0513 -0.1674  0.2743
26466W        W45320   9.239   5.329  14.729  0.1381  0.0229 -0.2776
26467W        W45321  13.591  10.167  14.776  0.0045  0.2053  0.1290
26468W        W45322  10.428   2.765   4.137  0.0129  0.2399  0.3812
26469W        W45323  17.888   0.064   3.940 -0.2529 -0.0297  0.0027
26470W        W45324   7.682   9.034   2.413  0.2316  0.2719  0.2366
26471W        W45325  15.028   7.388  11.973 -0.0556  0.3970  0.2077
26472W        W45326  12.880  18.312  13.385 -0.0202 -0.0188  0.0407
26473W        W45327   9.613   9.562  11.264  0.1886  0.2383 -0.2161
26474W        W45328  16.702  12.208  11.650 -0.4431  0.0575 -0.0241
26475W        W45329  12.344   2.408  11.418  0.0852  0.3611  0.1284
26476W        W45330   7.948   7.048  11.704 -0.1663 -0.0323 -0.2387
26477W        W45331   0.030  18.786   3.971  0.0278  0.1453 -0.2771
26478W        W45332   0.411  15.950   2.247  0.2061 -0.0611  0.0279
26479W        W45333   4.105  14.352  14.250  0.4094 -0.0037 -0.0674
26480W        W45334  18.533   7.264   4.484 -0.0996 -0.2434 -0.0671
26481W        W45335  11.200  12.640  15.085  0.2358  0.1269  0.2373
26482W        W45336   9.025  10.338  10.756  0.2147 -0.0701 -0.1169
26483W        W45337   4.423   2.480  12.981 -0.1124 -0.3979  0.2515
26484W        W45338   3.395   4.820  14.704 -0.3498  0.0977  0.3978
26485W        W45339   1.932   5.389   3.914  0.1351  0.1291  0.2348
26486W        W45340   5.748   0.484   4.410 -0.2006  0.0244  0.0120
26487W        W45341   0.252  10.112  11.540  0.1077 -0.1977  0.1655
26488W        W45342  15.346   6.779   3.432 -0.1123  0.3193  0.3090
26489W        W45343  10.175   8.180   1.460  0.4011  0.1190 -0.1261
26490W        W45344   5.615   5.231  14.934  0.2384  0.1261  0.0537
26491W        W45345   8.377   1.270   4.515 -0.1582 -0.0794 -0.3547
26492W        W45346   4.607   0.412  12.596 -0.0062 -0.3693  0.2787
26493W        W45347   4.179   2.994  12.304 -0.0284 -0.0385  0.1628
26494W        W45348   5.665  13.421  12.810  0.0309 -0.1416  0.0386
26495W        W45349   6.454   8.888  10.845 -0.1802  0.1212 -0.1094
26496W        W45350   8.255   5.238   3.142 -0.2019 -0.4275  0.1194
26497W        W45351  12.143   2.276   2.190  0.2303  0.0162  0.2697
26498W        W45352  16.902   1.063  13.992  0.0998  0.1517 -0.0728
26499W        W45353  15.352  18.529   0.363 -0.0663 -0.1633 -0.0119
26500W        W45354  12.096   4.133  10.829 -0.1092 -0.1348  0.1629
26501W        W45355  14.025  11.007   1.054 -0.0966 -0.2532  0.3220
26502W        W45356  13.529  11.592  10.349 -0.3949  0.1080 -0.0022
26503W        W45357   6.521  11.271   1.696  0.1885  0.1227 -0.2343
26504W        W45358  17.382   5.749   2.717  0.0776  0.0997 -0.1946
26505W        W45359  13.290   7.691  13.890 -0.0544  0.1826  0.2533
26506W        W45360   5.591   4.797  10.115 -0.2653 -0.0402 -0.1260
26507W        W45361   8.674  18.574  12.375  0.1694 -0.3180  0.0033
26508W        W45362   3.318   9.520   1.850  0.2041  0.0028  0.1035
26509W        W45363   4.055  14.984   3.315 -0.5045 -0.2115 -0.0382
26510W        W45364   9.932   5.491   4.131  0.1351  0.0928  0.0799
26511W        W45365   3.608   0.751   5.652  0.3229  0.0239 -0.0651
26512W        W45366  18.633  11.190   1.584 -0.0137 -0.0227 -0.2376
26513W        W45367   6.706   7.386  12.904 -0.1900  0.2670 -0.2268
26514W        W45368  16.788  14.808  13.012 -0.0522 -0.2320 -0.0104
26515W        W45369  18.528  12.326   0.564  0.1911  0.0039  0.0927
26516W        W45370   3.935  11.342   3.695 -0.2862  0.0520 -0.0032
26517W        W45371  18.739  12.276  11.522  0.0144  0.4429 -0.0513
26518W        W45372  15.901  11.308   1.453 -0.1940  0.2596 -0.1002
26519W        W45373   3.341   2.651   3.706  0.3512 -0.2887 -0.1268
26520W        W45374  16.151   8.981   5.326  0.2030 -0.1773 -0.1149
26521W        W45375   0.115  14.639   2.107 -0.2679  0.3323 -0.1554
26522W        W45376   3.981   8.247  10.265 -0.2210  0.2298 -0.2888
26523W        W45377   8.887  11.890  14.259 -0.3654 -0.0688  0.1885
26524W        W45378  17.276  13.969   0.282 -0.2102 -0.2184 -0.0594
26525W        W45379  13.486  18.237   0.409  0.1288 -0.3886  0.1251
26526W        W45380   9.697   9.480   0.306  0.1113  0.2609 -0.1574
26527W        W45381  17.735  12.201  11.014  0.1077 -0.2290  0.1595
26528W        W45382   9.048   8.295  14.620  0.0124 -0.0198  0.1507
26529W        W45383  15.979   4.755  11.957  0.0446 -0.1054 -0.1068
26530W        W45384   1.925   3.696  14.023  0.0322  0.1867 -0.1519
26531W        W45385   0.712   6.218   2.185 -0.0968  0.0597  0.1826
26532W        W45386  11.292  15.310   3.018  0.1002  0.0496  0.2344
26533W        W45387  14.541  13.787   4.137 -0.0362  0.0418  0.1996
26534W        W45388   1.780   5.315  11.830  0.1320  0.1721 -0.0976
26535W        W45389  15.912  10.398   1.190  0.3234  0.1635 -0.2603
26536W        W45390   8.724  14.523  13.098 -0.0540  0.1246 -0.0106
26537W        W45391   9.177  11.138  13.192  0.1656 -0.3288  0.2927
26538W        W45392   9.232  10.426  13.690 -0.0892  0.1429  0.1010
26539W        W45393  17.918   4.928  14.654 -0.0546 -0.0895  0.2267
26540W        W45394   1.021  12.450  12.413  0.0397 -0.1987 -0.0216
26541W        W45395   9.847  14.597   1.487 -0.0612  0.1863 -0.0725
26542W        W45396   9.321  10.765   1.234  0.1633 -0.0293  0.1129
26543W        W45397   4.885   5.435   9.637 -0.1451  0.0694 -0.2314
26544W        W45398   4.110   9.507  13.581 -0.3050  0.2334  0.3105
26545W        W45399   4.704  17.460  14.689 -0.2495  0.0169  0.0926
26546W        W45400  10.195   4.121  11.467  0.0917 -0.1085  0.3475
26547W        W45401  11.457  13.744  12.459  0.0558 -0.0175 -0.2892
26548W        W45402   4.990  15.134   1.798  0.0122 -0.0069 -0.0891
26549W        W45403  14.902   0.290  11.892  0.1381 -0.0133  0.1039
26550W        W45404  13.470  12.784   2.145 -0.0083 -0.4426 -0.3386
26551W        W45405   8.650  11.537   0.001  0.1672  0.0184  0.0474
26552W        W45406  12.135  18.703   4.028 -0.1217 -0.2611  0.1260
26553W        W45407   3.625  13.629  12.697 -0.1632  0.0432  0.2671
26554W        W45408   0.072  15.690   1.137 -0.1190 -0.1355 -0.1062
26555W        W45409  14.526  18.212  11.822  0.1803 -0.1508 -0.1061
26556W        W45410  10.706  16.288   3.046 -0.2289 -0.0660 -0.2016
26557W        W45411   0.437   8.575   3.266 -0.0887  0.0064 -0.1418
26558W        W45412   6.939   9.256   0.004  0.0434 -0.2770 -0.0027
26559W        W45413  10.225   0.519   4.064  0.2953  0.1445 -0.5001
26560W        W45414  10.999  13.606   1.558 -0.1896 -0.0537 -0.1304
26561W        W45415  13.696   9.959   4.574 -0.1068 -0.0988  0.0008
26562W        W45416   6.526   9.665   3.630 -0.3544 -0.0091 -0.0569
26563W        W45417  10.996   1.014   4.564  0.3959 -0.0082  0.1852
26564W        W45418  14.917   1.532  14.529  0.1794 -0.2984  0.1601
26565W        W45419  11.400  17.700  12.291  0.1807 -0.2069  0.2749
26566W        W45420  10.256   7.312   0.542 -0.4052 -0.2289  0.0354
26567W        W45421  13.715   2.081   3.024 -0.1455  0.0503 -0.1384
26568W        W45422   5.950   6.452   1.892  0.1441  0.0918 -0.0730
26569W        W45423   7.862   0.131  11.456  0.0379  0.3347 -0.3851
26570W        W45424   8.808   9.495  11.150 -0.0062 -0.0912  0.1401
26571W        W45425   0.393   1.767  11.172 -0.0752  0.1403 -0.1946
26572W        W45426  17.389   1.671   4.643 -0.0808 -0.2613  0.1761
26573W        W45427   1.737   1.320   0.900 -0.0470  0.0990 -0.1424
26574W        W45428   6.733   1.905   0.278 -0.0400 -0.0756  0.0604
26575W        W45429  17.523  16.238  14.077 -0.2131 -0.1246  0.3990
26576W        W45430  18.364  10.396   3.720 -0.2195  0.1496 -0.0662
26577W        W45431   2.029  16.136  12.565  0.2085  0.1796 -0.1615
26578W        W45432  17.353   4.134   2.919  0.0594  0.0609 -0.1720
26579W        W45433   5.189  15.339   3.687  0.1117 -0.0746  0.2698
26580W        W45434   6.238  12.664  14.295  0.1331  0.0783 -0.1465
26581W        W45435  17.990  12.688  14.945  0.2538  0.0179 -0.5003
26582W        W45436  13.941  17.376   2.997 -0.0183  0.0638 -0.0092
26583W        W45437   9.054   0.373   3.460 -0.4152 -0.0542  0.1145
26584W        W45438   2.095  11.277   0.961  0.0413  0.0360 -0.1911
26585W        W45439   4.022  15.794  11.492  0.0983  0.4065  0.1092
26586W        W45440   0.951  16.482  12.325 -0.0626  0.0097 -0.0549
26587W        W45441   7.491  18.495   1.039  0.1673  0.1185 -0.2656
26588W        W45442   1.068   3.967  14.278 -0.0174  0.3536 -0.2811
26589W        W45443  14.889   0.589   0.295  0.0154  0.2659 -0.3187
26590W        W45444   9.408   7.800  14.828 -0.1739 -0.2762  0.3762
26591W        W45445  15.835  12.694   3.241  0.0680 -0.2722  0.0084
26592W        W45446  12.215   6.183   2.235  0.0871 -0.2119 -0.0503
26593W        W45447  11.152   4.533  12.350  0.0567  0.2631 -0.0741
26594W        W45448  17.052   8.346   0.550 -0.0066  0.0125 -0.1322
26595W        W45449   8.783   8.789  14.744 -0.2366 -0.1611 -0.0631
26596W        W45450   1.454   8.990   2.896 -0.0079 -0.2347  0.2381
26597W        W45451  12.020  17.201   1.910 -0.0793  0.0350 -0.1044
26598W        W45452  11.593   6.748  13.999 -0.2519  0.0142  0.1683
26599W        W45453  13.413  18.432  13.336  0.1853 -0.1944 -0.3388
26600W        W45454  14.797  10.998   2.689  0.5770  0.0407 -0.2766
26601W        W45455  18.721  10.580   2.345  0.0492  0.0941  0.3071
26602W        W45456   2.789  17.056   3.563  0.1719  0.0270 -0.1004
26603W        W45457  14.448  14.910  12.773 -0.2723 -0.2581 -0.0527
26604W        W45458   0.764  10.512  14.181 -0.1712 -0.2123 -0.2203
26605W        W45459   8.711   0.915   1.398 -0.2130 -0.0182 -0.0944
26606W        W45460   2.862  15.173  14.490 -0.1013  0.3992  0.0153
26607W        W45461   9.753  10.764   1.714 -0.1154 -0.2912 -0.1302
26608W        W45462   5.497   0.238   3.934  0.2105 -0.0120 -0.0777
26609W        W45463  13.387   5.643   0.695  0.4089 -0.0255 -0.2615
26610W        W45464   0.677   4.551   0.361 -0.1422  0.0801 -0.1788
26611W        W45465  10.605   9.747  13.521  0.0177 -0.0660  0.0126
26612W        W45466   0.296  14.742  11.831 -0.1033 -0.2703  0.0676
26613W        W45467   5.276  15.910   2.215  0.1291  0.0702  0.0737
26614W        W45468  11.200  12.775   0.442 -0.0369 -0.2806  0.0303
26615W        W45469  12.688   0.492  14.222 -0.1528 -0.2204  0.2620
26616W        W45470   2.615   6.370  10.847 -0.1711 -0.0029 -0.1093
26617W        W45471   3.428  17.129   2.440 -0.0377  0.0687  0.2416
26618W        W45472   8.788   4.815   1.835  0.0230  0.2489  0.0444
26619W        W45473   6.538   7.598   1.457 -0.1568 -0.0393 -0.1516
26620W        W45474  18.090   4.441   0.954  0.0758  0.1367 -0.1414
26621W        W45475  11.075   9.565  12.492  0.0964 -0.1008  0.1214
26622W        W45476  15.643   1.787   2.834  0.1027 -0.0889  0.1630
26623W        W45477   4.224   4.067   2.881  0.4472  0.2781 -0.0130
26624W        W45478   5.265   1.751   0.618 -0.2237  0.0133 -0.0212
26625W        W45479  17.806   0.881   2.281 -0.1499 -0.1514 -0.2212
26626W        W45480  16.747  11.746  14.444  0.1635 -0.3100 -0.3137
26627W        W45481  16.490  16.300   3.282  0.0010 -0.1010 -0.2279
26628W        W45482   9.843  14.162   3.504  0.0206 -0.0531 -0.0754
26629W        W45483  15.485   6.792   2.884 -0.0493 -0.2645 -0.0626
26630W        W45484   5.099  17.312  13.109 -0.0548 -0.2532  0.1696
26631W        W45485  16.199  10.968  15.118  0.1278 -0.1989  0.0085
26632W        W45486   6.108  16.285  14.470  0.0998  0.1352 -0.0205
26633W        W45487  17.568  14.594  12.206  0.3029  0.2010  0.3610
26634W        W45488  17.532   3.705  11.554 -0.0191 -0.0792  0.0148
26635W        W45489   4.218   8.847  11.368  0.0907 -0.3352 -0.1385
26636W        W45490  13.648   1.787  12.594  0.0368  0.2833 -0.2930
26637W        W45491   5.891  18.746   2.091  0.1303 -0.1965  0.3483
26638W        W45492   5.994  13.766  10.722 -0.1779 -0.2134  0.1347
26639W        W45493  14.425  17.428  11.398 -0.2198  0.0370 -0.1011
26640W        W45494   1.593  17.617  13.280  0.1542 -0.0278 -0.1633
26641W        W45495   1.061  14.061  10.575 -0.2156  0.0286 -0.1025
26642W        W45496   2.817   4.807  13.494  0.0932 -0.0811 -0.0879
26643W        W45497   1.837   7.307   2.347 -0.4255 -0.1961  0.0326
26644W        W45498  13.352  14.458  11.506  0.0289 -0.0822 -0.0078
26645W        W45499  12.579   9.195  11.018  0.0521 -0.1966 -0.1690
26646W        W45500   8.892  16.425   0.157 -0.0143  0.1368  0.0014
26647W        W45501   3.152   7.391   2.154 -0.1442 -0.1491 -0.0003
26648W        W45502  12.942   4.263  12.644  0.0223 -0.0076  0.3293
26649W        W45503   2.194  11.423  10.789 -0.1688  0.3376  0.1320
26650W        W45504   0.887   2.091  15.122  0.1199 -0.2399 -0.0900
26651W        W45505  11.282   1.167   3.818  0.2819  0.0005 -0.3387
26652W        W45506  13.877   1.555  13.526 -0.2059 -0.2363  0.1342
26653W        W45507   4.425  12.953  12.838 -0.0640 -0.1405  0.2519
26654W        W45508   9.094  15.030   1.576  0.3794  0.0307  0.1374
26655W        W45509  14.267   1.049   2.315 -0.2211  0.0934  0.3011
26656W        W45510  13.087   9.587   1.210 -0.2456  0.0984  0.3643
26657W        W45511   4.117   1.513  11.057  0.1512 -0.2212  0.5340
26658W        W45512  16.012  11.895   2.129 -0.0741 -0.2039 -0.0778
26659W        W45513  14.292   8.185   5.674 -0.3481 -0.0453  0.2278
26660W        W45514  16.517   4.134   1.792 -0.0862  0.0272  0.2328
26661W        W45515   8.381   0.265  14.333  0.5083  0.0801 -0.0812
26662W        W45516   0.487   9.693  11.665 -0.0710  0.0336  0.1214
26663W        W45517   9.295   4.104  11.326  0.2014 -0.0085  0.2485
26664W        W45518   0.462  18.325   0.968  0.1368 -0.1469  0.0640
26665W        W45519  15.155   0.191   0.382  0.0801  0.2398  0.3839
26666W        W45520  15.603   0.781   3.602 -0.0116  0.1240 -0.1759
26667W        W45521  10.573  10.496  11.789 -0.3218  0.1072 -0.0530
26668W        W45522   2.354   3.350  14.732  0.1425 -0.0607  0.3679
26669W        W45523  16.745   8.941  11.587  0.1343  0.0189  0.1721
26670W        W45524  11.047  17.723  12.971  0.1982 -0.3438  0.1592
26671W        W45525   0.843   1.490   4.224 -0.0024 -0.3177 -0.0182
26672W        W45526   2.597   0.324   4.702 -0.4028 -0.3210  0.0157
26673W        W45527  10.346  16.114  13.053 -0.2079 -0.0236 -0.2032
26674W        W45528   8.830  11.386  14.592  0.2328  0.1551 -0.0214
26675W        W45529   8.718   4.837   4.568 -0.0101  0.1021  0.3005
26676W        W45530   6.352  13.916  11.075 -0.0989  0.2121  0.3212
26677W        W45531  11.493   2.219  12.759  0.1973 -0.1646 -0.0539
26678W        W45532  18.523   1.613  11.566 -0.1187  0.2136  0.0298
26679W        W45533   6.542  14.234  14.560  0.0669 -0.2198  0.2742
26680W        W45534  17.675   7.060   1.456 -0.0549  0.3157 -0.2320
26681W        W45535  10.672  11.925   4.005 -0.3096  0.0997  0.0906
26682W        W45536   6.942  13.977   0.310  0.1983  0.0043  0.2141
26683W        W45537  13.719   9.067  12.643 -0.1810  0.1465  0.2508
26684W        W45538  12.652  12.554   1.044 -0.2065  0.1593 -0.0687
26685W        W45539   8.239   4.922  14.174 -0.0584  0.2503 -0.3032
26686W        W45540  14.217  15.185  12.264 -0.0428  0.1008  0.4710
26687W        W45541  16.150   0.607   2.331 -0.0300 -0.2557 -0.1104
26688W        W45542  15.191  11.536  13.126 -0.0083 -0.2351 -0.1617
26689W        W45543  12.726   5.642   5.996 -0.3329 -0.1407  0.2212
26690W        W45544   2.829  17.093  12.581 -0.0216 -0.0545  0.1589
26691W        W45545   2.877   1.294  14.694 -0.0434 -0.0229 -0.0324
26692W        W45546  15.541  13.116  14.681  0.1880 -0.0205  0.1497
26693W        W45547   6.919  16.591   4.081 -0.1496 -0.1590 -0.0623
26694W        W45548   7.394   0.474   3.394 -0.1541  0.1803  0.3989
26695W        W45549   6.329  16.053  13.425 -0.1290 -0.2534  0.0356
26696W        W45550   9.981  14.045  11.141  0.1536  0.1331 -0.1473
26697W        W45551   0.899  12.369   9.518 -0.3519  0.0027 -0.0999
26698W        W45552   6.789  17.088   4.047 -0.1922  0.0148  0.0856
26699W        W45553   2.595   0.673   0.155 -0.3399 -0.1397 -0.1122
26700W        W45554  18.766   8.262  12.973  0.2659  0.2113  0.0768
26701W        W45555  10.303   4.510   4.325 -0.0342 -0.1710 -0.5769
26702W        W45556   6.001   3.998   2.841 -0.2120  0.3027 -0.0856
26703W        W45557   0.715   8.542   4.557 -0.0404 -0.1645 -0.1285
26704W        W45558  16.007  10.733   3.784 -0.2321 -0.2638 -0.1055
26705W        W45559   0.111  10.011   4.661  0.1475  0.1156 -0.2715
26706W        W45560   9.128  12.364  14.276  0.0403  0.1098 -0.0404
26707W        W45561  18.626  16.226  11.205 -0.0722  0.1109 -0.1257
26708W        W45562   8.425  15.563   0.252 -0.1308  0.0699  0.0488
26709W        W45563  12.759   4.740   4.600 -0.0333  0.0616 -0.0010
26710W        W45564   1.741  10.960   2.827 -0.1827  0.0128  0.0334
26711W        W45565   5.491   5.216  12.372 -0.0778 -0.1476 -0.0156
26712W        W45566  12.614   2.077   4.581  0.2269  0.1389  0.0307
26713W        W45567  14.522  14.050  14.985 -0.0594  0.1344  0.0372
26714W        W45568   5.871  14.855   3.924  0.2942  0.1160 -0.2721
26715W        W45569  10.427  16.552  13.262 -0.0893 -0.2052 -0.0714
26716W        W45570  16.109   8.491   1.365 -0.0718  0.3094 -0.0550
26717W        W45571  16.995  12.510   0.318  0.2902  0.0495 -0.1182
26718W        W45572   6.589  13.770  14.537  0.0116  0.4734 -0.0281
26719W        W45573  10.107  15.518   4.399  0.0711 -0.2782  0.0544
26720W        W45574  13.842   5.870   0.462 -0.0795  0.0816 -0.1568
26721W        W45575  17.392  15.790  11.653  0.1869  0.1219  0.0986
26722W        W45576   6.444  17.627   2.836 -0.0238 -0.2415  0.0173
26723W        W45577  14.897   6.594   3.127 -0.0294 -0.0192 -0.2188
26724W        W45578  14.430  13.636  11.437 -0.3483 -0.2054  0.0772
26725W        W45579  18.558   0.191   0.335 -0.3541 -0.1275 -0.5540
26726W        W45580   3.390  17.158  14.004 -0.0027 -0.2344 -0.2037
26727W        W45581   5.241   8.561  13.382  0.0584 -0.0368 -0.3215
26728W        W45582  12.054  11.065   5.438  0.0081 -0.0387  0.1744
26729W        W45583   5.282   6.960   3.406 -0.0474  0.1621 -0.1428
26730W        W45584   7.443   9.987   2.529  0.2084  0.1633 -0.1552
26731W        W45585   8.167  13.100  11.945  0.2834 -0.0379  0.0789
26732W        W45586  16.191   3.283  12.548 -0.2063  0.2518 -0.3631
26733W        W45587  15.267   6.398  11.740  0.0595 -0.0038  0.1421
26734W        W45588  10.270   7.843   1.867  0.0810  0.1185 -0.1902
26735W        W45589  13.642   0.411  10.612 -0.1522 -0.2017  0.0001
26736W        W45590  17.521  10.452  15.024  0.1009 -0.3244  0.0805
26737W        W45591   2.735  12.835   2.886 -0.2329  0.2209  0.1330
26738W        W45592   9.998   3.045  11.759  0.1548 -0.1138 -0.0019
26739W        W45593  17.320   8.190  12.266 -0.2486  0.0329 -0.1281
26740W        W45594  14.195   2.635  14.998 -0.0690  0.0491 -0.1422
26741W        W45595  12.431  12.397   2.130  0.2441  0.1209  0.0503
26742W        W45596   6.148   5.093   1.778 -0.3980  0.3021 -0.0531
26743W        W45597   6.058   2.505  14.058  0.4118 -0.0258 -0.2828
26744W        W45598  18.725  18.299   2.350  0.1296  0.0975  0.0282
26745W        W45599   1.149   5.127  13.434  0.0461 -0.0356  0.3325
26746W        W45600   7.067  11.504  11.289 -0.0920  0.0710  0.0684
26747W        W45601  18.692   1.418   2.577 -0.2122 -0.1490 -0.1570
26748W        W45602  17.518   4.709  14.424 -0.1432 -0.0578  0.1889
26749W        W45603  13.775   9.012  14.627  0.2152 -0.0228 -0.1231
26750W        W45604   0.850  10.018   2.987 -0.0642  0.1449  0.1068
26751W        W45605   4.173   0.057  15.053  0.1835 -0.1647  0.1357
26752W        W45606  18.019   6.156   4.770  0.0237 -0.1005  0.2960
26753W        W45607   1.012   0.708   3.452  0.2563 -0.1727 -0.1431
26754W        W45608  16.493  15.457  12.071  0.2010  0.2074  0.2275
26755W        W45609   4.324   2.680   2.758  0.0359 -0.0213  0.0103
26756W        W45610   1.739  18.338  14.462 -0.0473 -0.1705  0.1766
26757W        W45611   7.865  16.911   4.336 -0.0481  0.0771 -0.0394
26758W        W45612  12.535   8.605   0.069  0.0267 -0.0092 -0.0125
26759W        W45613  17.522   9.117   1.239 -0.2291  0.0901  0.2273
26760W        W45614  13.477  15.935   0.233 -0.0736 -0.0082 -0.1612
26761W        W45615  10.227   8.954   1.779 -0.1263  0.0364  0.1021
26762W        W45616  12.409   2.991   5.518  0.2907  0.1045  0.1956
26763W        W45617   8.314   4.015   1.444  0.2120  0.1279 -0.0113
26764W        W45618   3.377  16.743   1.463  0.0993 -0.0054  0.1444
26765W        W45619  14.807   6.661  12.640  0.3696 -0.4695  0.0759
26766W        W45620   4.121   9.675   0.372  0.1130 -0.0016  0.0425
26767W        W45621   9.448   9.240   1.079 -0.1151 -0.2656 -0.0462
26768W        W45622   6.460  10.988   1.303 -0.0294 -0.0788 -0.0480
26769W        W45623   1.601   6.800  12.846  0.0855 -0.3006 -0.1482
26770W        W45624   9.232   9.674  12.315  0.1880  0.1536 -0.1992
26771W        W45625   2.030  11.947   3.842  0.2687 -0.0563  0.0905
26772W        W45626  17.775   6.772  13.765 -0.0942 -0.1501  0.2277
26773W        W45627  11.626   4.664   2.220  0.1428  0.0373  0.0142
26774W        W45628  16.490   2.806   0.934  0.5618 -0.0703 -0.0240
26775W        W45629  12.854  16.881   0.898 -0.5623 -0.1817  0.3123
26776W        W45630  14.703   5.509  12.601 -0.1609 -0.2234 -0.1241
26777W        W45631   7.135  14.051  14.881 -0.1318 -0.0810 -0.0019
26778W        W45632  12.217   3.748  11.669 -0.0094 -0.1978  0.1598
26779W        W45633   8.454   7.775   3.332 -0.0858  0.0857 -0.1766
26780W        W45634   0.155   9.849  13.952 -0.2789  0.3791 -0.3934
26781W        W45635  15.116   6.640   2.562  0.0593  0.0123 -0.1413
26782W        W45636   9.381  16.400   3.189  0.3244  0.1227  0.0181
26783W        W45637  18.101   0.887   0.419  0.3204  0.2571  0.0325
26784W        W45638  18.257  15.386   1.703 -0.0266  0.0166  0.1611
26785W        W45639   8.260  10.046  10.757  0.1407 -0.0417 -0.2035
26786W        W45640  10.475   1.411  12.133  0.1088  0.2403 -0.0557
26787W        W45641   0.050  14.815   1.020 -0.1567  0.2374 -0.0196
26788W        W45642  17.757   8.935   3.770  0.0600 -0.1403  0.0737
26789W        W45643  11.561  12.865  11.095 -0.2796  0.0074 -0.4115
26790W        W45644   7.386   8.321  12.608 -0.0445  0.1755 -0.0368
26791W        W45645  14.740   4.171   2.281  0.1491  0.1398  0.0646
26792W        W45646  18.237  14.217  11.983 -0.1168 -0.3242 -0.0970
26793W        W45647   7.609   2.859  13.809 -0.0083  0.1809  0.0499
26794W        W45648   7.675   6.105  12.068 -0.0810  0.1042  0.1460
26795W        W45649  12.358  14.961   3.638  0.1236  0.0347  0.3036
26796W        W45650  15.206  18.055  14.598  0.1054  0.0476 -0.1053
26797W        W45651   3.216  17.055   4.308  0.0329 -0.0726 -0.2666
26798W        W45652   1.811   7.269   2.954  0.0810 -0.1978  0.1960
26799W        W45653   5.429  17.921  15.074  0.0653  0.2312  0.1916
26800W        W45654   4.486   3.882  14.170 -0.1261 -0.1440 -0.0826
26801W        W45655   5.334  11.682  12.034 -0.0068  0.1214  0.2548
26802W        W45656   9.847  13.050   2.150  0.4733  0.0449  0.1459
26803W        W45657  18.467  14.396  13.221 -0.3978  0.1657 -0.2869
26804W        W45658  10.826  13.466   5.620  0.0501 -0.0952  0.0673
26805W        W45659  13.549  13.650   3.930 -0.3172 -0.5299  0.0369
26806W        W45660   1.395   5.543  12.396  0.0161 -0.1992  0.2363
26807W        W45661   4.716   0.901  11.043  0.0251  0.3470 -0.1813
26808W        W45662   4.766  10.988  10.635 -0.3133  0.0081 -0.0061
26809W        W45663  13.299  10.185  11.560 -0.0491 -0.0182 -0.1374
26810W        W45664   5.393  18.122   0.396 -0.1366 -0.0881 -0.0529
26811W        W45665  18.159   3.971   0.746  0.1457 -0.2124  0.0545
26812W        W45666   9.524   2.166  12.476  0.2455 -0.0074  0.0881
26813W        W45667   7.008   8.140   0.310  0.1044  0.2484  0.2863
26814W        W45668   7.844   6.021  13.775 -0.0848 -0.0066 -0.1337
26815W        W45669  11.562  11.805  13.213  0.1340  0.0559  0.0817
26816W        W45670   9.665  12.749  13.894 -0.1168 -0.3044  0.0228
26817W        W45671   8.094  13.512   5.203  0.3269 -0.0400  0.3347
26818W        W45672  13.148   0.418  11.999 -0.0041  0.1108 -0.0830
26819W        W45673  18.579   9.553  14.901  0.3703 -0.1822  0.1647
26820W        W45674   4.583   1.735   2.841  0.3423  0.1100  0.0577
26821W        W45675   1.907  17.499   3.480 -0.1254  0.0234 -0.0124
26822W        W45676  14.875   4.597   3.431  0.1510 -0.0443  0.2164
26823W        W45677  13.463   0.324   1.797 -0.1598  0.3572 -0.2255
26824W        W45678  13.306  14.941  11.214  0.3597 -0.1481  0.4652
26825W        W45679  13.057   8.219   4.007 -0.1173 -0.1047 -0.1068
26826W        W45680   8.655   0.971  14.643 -0.1225  0.2684  0.1421
26827W        W45681  11.319  17.749   4.359 -0.0177 -0.3002  0.1420
26828W        W45682  13.442  13.267   2.289 -0.0580  0.2126  0.2962
26829W        W45683  13.274   6.606  14.574  0.0288 -0.0207 -0.1247
26830W        W45684   7.636   3.069   3.416 -0.0393  0.2145  0.0715
26831W        W45685   8.058   5.938  13.334  0.0979  0.3956  0.2387
26832W        W45686   8.417  14.153   3.031 -0.0120  0.2448 -0.3781
26833W        W45687   2.883  17.707   4.756 -0.1527  0.0735  0.0298
26834W        W45688   3.614   5.154   0.356 -0.1058  0.1219 -0.1632
26835W        W45689   6.894  16.935  13.421 -0.1413  0.0546 -0.0436
26836W        W45690   8.791  15.284   4.503  0.1289  0.3071  0.1005
26837W        W45691   2.166  13.485   1.859 -0.0123 -0.2239  0.0873
26838W        W45692   3.463   8.721  12.426  0.0336 -0.2030 -0.4760
26839W        W45693  14.827  17.428  14.242 -0.1233 -0.0713  0.0550
26840W        W45694  14.155   2.907  11.265 -0.0159  0.0262  0.1057
26841W        W45695   7.952  10.374  10.433  0.1591 -0.0404  0.0392
26842W        W45696   2.663   0.351  12.216  0.1531  0.1521  0.2144
26843W        W45697   6.745  13.268   2.464  0.2466 -0.0907 -0.3788
26844W        W45698   5.331  14.778  14.583 -0.0331 -0.2511  0.0606
26845W        W45699  13.496  11.253  11.297  0.0599  0.0396 -0.1109
26846W        W45700  13.399   7.076  14.421 -0.0621 -0.1763 -0.1453
26847W        W45701   0.416   7.733   1.075 -0.2167 -0.2177  0.2607
26848W        W45702   9.585   8.091   3.120 -0.0991 -0.2138  0.1633
26849W        W45703   4.738  17.648  12.677  0.0126 -0.2817 -0.1521
26850W        W45704   9.391  14.629   1.290 -0.1322  0.2966 -0.0970
26851W        W45705  11.071  13.677   2.061 -0.1776 -0.0280 -0.1335
26852W        W45706   5.476   1.195  13.564 -0.1948 -0.1607 -0.1894
26853W        W45707  17.005   8.904  14.211 -0.1971  0.1295 -0.0136
26854W        W45708   2.866  15.226  10.587  0.0013  0.0754  0.0313
26855W        W45709   0.300   1.775   0.075  0.0759 -0.2833  0.0373
26856W        W45710  11.874   4.134  11.725  0.0156 -0.0890  0.0938
26857W        W45711   7.718  15.965  13.202  0.1351 -0.1102  0.0304
26858W        W45712  13.003  17.031   3.994 -0.1083 -0.2286  0.0218
26859W        W45713   3.122  10.701  11.375 -0.0281  0.1455  0.1200
26860W        W45714  16.505  15.321  13.931  0.0057 -0.0215  0.0703
26861W        W45715  17.210   2.068  11.570 -0.2819 -0.2829 -0.3527
26862W        W45716   1.721   4.743   2.413 -0.0413 -0.0532  0.1710
26863W        W45717  13.292  11.833  12.078 -0.0549  0.0227 -0.0200
26864W        W45718  11.299   4.112  11.163  0.0675 -0.2810 -0.0314
26865W        W45719  15.512   4.779  13.855  0.1116  0.1464  0.1355
26866W        W45720  11.654   5.859  14.709 -0.1536 -0.0000  0.0349
26867W        W45721   3.574  17.246  11.319 -0.0233  0.2889  0.1866
26868W        W45722   7.287   1.463   4.497 -0.0164 -0.1286  0.3094
26869W        W45723   9.038   2.039  12.210 -0.0089 -0.1987  0.0732
26870W        W45724   4.726   3.924   0.238  0.1173 -0.1839  0.1079
26871W        W45725   8.367  15.360  12.301  0.2789 -0.3466  0.0694
26872W        W45726  16.152  13.483  12.130  0.0978 -0.0034  0.0932
26873W        W45727   0.737  15.656   2.973  0.1323 -0.0936  0.0744
26874W        W45728   7.436   1.870  13.683 -0.2375 -0.0711  0.1667
26875W        W45729  17.922  12.167   1.865 -0.1215 -0.0057 -0.0540
26876W        W45730  14.591   2.176   4.173 -0.1657 -0.1586 -0.0805
26877W        W45731  16.964   9.699   3.314  0.0112  0.0977 -0.1291
26878W        W45732   5.079   8.080   2.591  0.0557 -0.2005 -0.0367
26879W        W45733   3.963  18.845  11.879 -0.1954 -0.1870 -0.1451
26880W        W45734  10.669  13.709   4.464  0.0860  0.0020  0.0783
26881W        W45735   7.543  11.633   1.671 -0.2370  0.1128 -0.1461
26882W        W45736  17.048  16.006   2.187 -0.1638 -0.1448  0.1639
26883W        W45737  13.052  14.554  13.881 -0.0397 -0.1490  0.0533
26884W        W45738   9.108   3.872  13.808  0.0457 -0.1383  0.2945
26885W        W45739   6.706   8.291   2.608  0.0987  0.1436 -0.0138
26886W        W45740   0.461  16.706  13.969  0.3619  0.1325  0.4750
26887W        W45741  16.354  18.624   2.015 -0.0479 -0.0042  0.2390
26888W        W45742  13.267  16.629   3.261 -0.3516 -0.0238  0.2924
26889W        W45743   3.960  16.202   2.381  0.3007  0.0377 -0.1193
26890W        W45744   9.925   1.147   2.646 -0.0204  0.0672  0.0435
26891W        W45745   7.952   9.916  11.125 -0.2940 -0.0724 -0.0849
26892W        W45746  10.337  14.257  10.729  0.0611 -0.0646 -0.2650
26893W        W45747   6.451   0.751  11.525 -0.1159  0.1252  0.0389
26894W        W45748   9.528   6.442   3.678  0.2721 -0.0033  0.0717
26895W        W45749   8.692   2.914   0.322  0.1486 -0.1685  0.2629
26896W        W45750   2.347  11.792   1.644 -0.0295  0.1863  0.1051
26897W        W45751  13.625   3.231   2.185  0.0480  0.2764 -0.2148
26898W        W45752  14.937  13.900   2.105 -0.0198 -0.1000  0.0555
26899W        W45753  11.858   3.317   3.888 -0.0400  0.1702 -0.0728
26900W        W45754   8.963  15.938  12.957 -0.0892 -0.0311 -0.0321
26901W        W45755  17.851  15.503   2.465 -0.0019  0.0730  0.1636
26902W        W45756   8.196   0.474   0.049 -0.1676  0.0185  0.1285
26903W        W45757  17.445  18.301  13.955  0.1503  0.1049  0.2023
26904W        W45758   1.056   2.013  12.375 -0.2674 -0.1514 -0.0758
26905W        W45759  11.034  10.787  13.517 -0.0969  0.4481 -0.3363
26906W        W45760  10.842  18.315  12.532  0.2564 -0.2077  0.0971
26907W        W45761   8.376   8.393   1.429 -0.0380 -0.0768  0.1276
26908W        W45762  12.305   3.298   4.573 -0.3398 -0.2774  0.1179
26909W        W45763  17.487  15.776   3.440  0.0686 -0.0285 -0.1577
26910W        W45764  17.674   1.329  13.940 -0.0875 -0.0264  0.0226
26911W        W45765  17.009   0.634  12.695  0.1811  0.2562 -0.0308
26912W        W45766  13.543  13.272   2.869  0.1519  0.0657 -0.1046
26913W        W45767   3.823   0.998  14.948  0.0035 -0.0952 -0.1636
26914W        W45768   7.203  11.444  14.843  0.3645  0.2390 -0.1393
26915W        W45769   2.917  17.272  13.149 -0.2921 -0.0278 -0.1623
26916W        W45770  16.847   7.854  10.164 -0.0121  0.0972 -0.0397
26917W        W45771   9.578  18.260  10.816 -0.1999  0.1685  0.1744
26918W        W45772   9.965  13.640  14.264 -0.1654  0.1614  0.1338
26919W        W45773   9.271   4.395  14.007 -0.1249  0.0101 -0.1971
26920W        W45774  10.765  11.128  13.794  0.0534 -0.2255  0.0223
26921W        W45775   1.114   4.070  11.169 -0.0208 -0.2401 -0.0665
26922W        W45776   3.345   6.018  14.136  0.1170 -0.1930  0.1140
26923W        W45777  15.082  17.921  13.775 -0.0266  0.2358  0.0748
26924W        W45778  12.637  17.281  13.183 -0.2955  0.0063  0.2115
26925W        W45779  15.098   2.767  11.278 -0.1918  0.0015 -0.2229
26926W        W45780  14.830  10.473   2.766  0.0071 -0.2457  0.4368
26927W        W45781  13.717  12.239  14.807 -0.2269  0.0166  0.1124
26928W        W45782   5.014  15.839  13.790  0.2081  0.4145 -0.0094
26929W        W45783  17.263  17.764   0.031 -0.3274 -0.0821  0.1210
26930W        W45784  18.633  18.012   4.716 -0.3733  0.0918  0.1180
26931W        W45785   3.834   9.610   3.268 -0.0689 -0.0619  0.1459
26932W        W45786   4.436  16.099  14.127  0.1846  0.2754  0.1453
26933W        W45787   2.820   8.411  11.167 -0.0461 -0.2960 -0.3372
26934W        W45788   7.596   3.808  11.143  0.1458  0.1417 -0.2563
26935W        W45789   4.521   9.437   0.515 -0.1291 -0.1998 -0.0709
26936W        W45790   4.628  11.387   2.955 -0.0980  0.0893  0.0254
26937W        W45791  16.129  10.730   9.781  0.3095 -0.0086 -0.1560
26938W        W45792   2.877   2.766  10.134  0.0305 -0.0064  0.0791
26939W        W45793  11.802   7.965  11.183 -0.2427  0.3345  0.2547
26940W        W45794   0.835  11.112   1.649  0.2946  0.0125  0.0948
26941W        W45795  10.395  18.134   0.137 -0.2693  0.1587 -0.1235
26942W        W45796   9.213   9.018   2.025 -0.0179 -0.3944  0.0482
26943W        W45797  15.641   2.520   3.380  0.0097 -0.0104 -0.0650
26944W        W45798   7.852   4.254  14.916 -0.1621  0.1595  0.0152
26945W        W45799   5.859  10.843  11.253 -0.2208 -0.1552  0.0998
26946W        W45800   7.864  18.039   9.522 -0.1085  0.0963  0.2725
26947W        W45801  17.531   9.738  12.516  0.1075 -0.1706 -0.2378
26948W        W45802   9.976  11.367  14.116 -0.0080  0.3660  0.0886
26949W        W45803  14.226   0.112  12.380 -0.0954 -0.1048 -0.0076
26950W        W45804  13.427   8.724   3.361 -0.0385 -0.1312  0.1024
26951W        W45805   2.893   5.320   4.177 -0.2370  0.1228 -0.2115
26952W        W45806  12.530  10.127   0.828  0.4368 -0.1345 -0.0028
26953W        W45807   6.526  12.306  13.846  0.1433 -0.0340  0.1431
26954W        W45808   9.709   0.293   2.808 -0.1793 -0.1125  0.0128
26955W        W45809   3.043   5.045  15.022  0.1955  0.2594 -0.3649
26956W        W45810   4.032   9.221   3.050 -0.0041 -0.1352  0.1063
26957W        W45811  14.108   6.825   4.553 -0.0594 -0.0149  0.1903
26958W        W45812   9.542  13.763   3.440 -0.3395 -0.2975 -0.0670
26959W        W45813   8.805  14.785  14.771 -0.1154  0.3534 -0.0765
26960W        W45814   3.610   5.517  10.735  0.4453 -0.0910  0.1539
26961W        W45815  15.836  16.748   1.206 -0.0220 -0.2090  0.0492
26962W        W45816  11.973  15.496   4.226  0.2449 -0.1323 -0.1408
26963W        W45817   8.561   4.864   3.033  0.1353 -0.3007 -0.0900
26964W        W45818  12.997  18.236   2.042 -0.0739 -0.3504  0.1623
26965W        W45819   5.388  16.993   2.385  0.3033 -0.0153 -0.1206
26966W        W45820   5.801  10.489  11.759 -0.4768  0.0790  0.0741
26967W        W45821   4.317   6.469   3.000 -0.0397 -0.1328  0.0340
26968W        W45822   2.580   3.265   1.492  0.2916 -0.0861  0.2618
26969W        W45823  13.428   0.709  13.154 -0.0430 -0.0190  0.1957
26970W        W45824  17.580   7.870  15.005  0.1138  0.2577  0.1793
26971W        W45825  15.419   4.736  13.344 -0.3581  0.0774  0.0491
26972W        W45826  12.798  13.665   0.101  0.0609  0.2755  0.0456
26973W        W45827  10.513  18.031  14.768  0.3486  0.1540 -0.1337
26974W        W45828  14.045   2.903   3.372 -0.2533 -0.0335  0.0404
26975W        W45829   5.157   2.986   3.178  0.0605  0.2808  0.0781
26976W        W45830  14.783   4.195   1.736  0.1107  0.3676  0.0721
26977W        W45831  16.513   2.137   3.776  0.3888  0.1685  0.0985
26978W        W45832  17.868   5.197  13.272  0.0862 -0.0937 -0.0733
26979W        W45833  11.167  14.702  12.344 -0.1626 -0.0661  0.2698
26980W        W45834   0.333   2.850  11.396 -0.0184  0.5602  0.1319
26981W        W45835   6.661  11.780   3.495  0.3336 -0.1020  0.0424
26982W        W45836  12.542  12.974  10.686  0.2188  0.1246 -0.1764
26983W        W45837   7.571  12.242  13.664  0.1337  0.3159  0.0750
26984W        W45838  15.688  10.138  12.558  0.0259  0.0427  0.1296
26985W        W45839   8.897   1.954   0.976 -0.0871  0.1363 -0.1936
26986W        W45840  15.537  12.139   4.097  0.1645 -0.2728  0.2468
26987W        W45841   8.383  14.341   0.282  0.1606 -0.0608  0.0628
26988W        W45842   3.475   3.209   0.278 -0.0515  0.0894 -0.0715
26989W        W45843  12.553   7.601   4.446 -0.2237  0.0508 -0.2402
26990W        W45844   2.575  18.453   5.269  0.2423  0.1348  0.1210
26991W        W45845   3.739  13.535  14.551  0.1917 -0.2412  0.1758
26992W        W45846  12.937  12.086   9.864 -0.1357 -0.1874  0.1744
26993W        W45847   4.440   8.389  11.068 -0.0813  0.1296  0.2697
26994W        W45848  14.467   1.197   1.810 -0.1703 -0.1015  0.2892
26995W        W45849  12.848  10.479  11.320  0.5405 -0.1146  0.0382
26996W        W45850  10.656   0.187  14.502  0.2230 -0.4539 -0.2130
26997W        W45851   5.867  10.161  13.762 -0.3064  0.0363 -0.0143
26998W        W45852  16.624   5.182   4.074 -0.4518 -0.2893  0.0632
26999W        W45853   5.393  11.541   2.423  0.3594 -0.1800 -0.1445
27000W        W45854  15.247   9.576  14.484  0.0664 -0.2844  0.1928
27001W        W45855  16.569  16.021   4.323 -0.0147 -0.1845  0.2148
27002W        W45856   2.860  17.986   2.516 -0.1897  0.1291  0.1146
27003W        W45857   0.734   8.739   0.955  0.6093 -0.4061 -0.3280
27004W        W45858   3.392  16.706  11.524  0.0876 -0.1162  0.0702
27005W        W45859  10.994  12.098  15.043 -0.1737 -0.1135 -0.0831
27006W        W45860  12.908  16.210   3.064 -0.1201 -0.1298 -0.0613
27007W        W45861  18.158  11.944  10.875  0.3124  0.1216 -0.1353
27008W        W45862  10.598  13.528   1.911  0.0287 -0.0075 -0.1777
27009W        W45863  18.258   6.944   4.127 -0.0911 -0.1331 -0.1924
27010W        W45864  10.711   2.641  13.475 -0.2255 -0.2916  0.3519
27011W        W45865  18.036   2.807  11.693 -0.2730  0.0599  0.0524
27012W        W45866   9.221  10.067  13.032 -0.1737  0.1471 -0.4949
27013W        W45867  15.253   0.791   2.180 -0.0647  0.0413 -0.1169
27014W        W45868  10.714   4.921   0.448  0.2171  0.0574 -0.2073
27015W        W45869  13.928   1.162   2.677  0.0400 -0.0618 -0.0736
27016W        W45870  17.943  12.501   2.275 -0.1837  0.2620  0.1771
27017W        W45871  18.128   0.289  11.470 -0.2859 -0.3860  0.3605
27018W        W45872   2.291  18.566  10.415 -0.0041 -0.0505  0.1690
27019W        W45873  13.967  12.469  13.985  0.1346 -0.2695 -0.2034
27020W        W45874   3.501  16.122   3.800 -0.1714 -0.1029 -0.1542
27021W        W45875   8.356  18.187  13.737  0.3526 -0.1674 -0.0096
27022W        W45876   5.810  10.144  14.766  0.2454  0.1044 -0.2467
27023W        W45877   0.912  11.432  14.391 -0.2039 -0.2527  0.1369
27024W        W45878   7.766   0.912  14.929  0.0357 -0.0677 -0.0653
27025W        W45879  11.851  18.811  14.128  0.0310 -0.1839  0.0855
27026W        W45880  16.618   7.882  15.086 -0.3682 -0.4626 -0.1888
27027W        W45881  14.436  18.490  12.744 -0.0703 -0.2349  0.1046
27028W        W45882  11.568   2.329   2.982  0.1428 -0.2200  0.2206
27029W        W45883  16.955   4.003   1.437  0.2801  0.0672  0.2142
27030W        W45884  10.805  16.157  13.193  0.0364 -0.2620  0.0374
27031W        W45885   5.970   0.855  11.468  0.2439  0.1658 -0.2157
27032W        W45886  13.047  11.667   1.788 -0.2113 -0.2433  0.0695
27033W        W45887  12.287  17.150  12.354 -0.1007  0.1172  0.3186
27034W        W45888  11.316   3.400  12.524 -0.1104 -0.2723  0.1411
27035W        W45889   7.478   4.248   3.778 -0.1822  0.1237 -0.0284
27036W        W45890   6.622   0.989   3.236 -0.0245 -0.1643 -0.0632
27037W        W45891  14.471   5.247   1.518  0.1544 -0.1431  0.0974
27038W        W45892   7.584   7.851   5.456  0.1092 -0.1013  0.1272
27039W        W45893   9.999  13.619   2.966 -0.0116  0.2098  0.4561
27040W        W45894  17.701  16.605   4.065 -0.1153 -0.0948 -0.0302
27041W        W45895  13.764  16.601   3.494  0.1106 -0.1104  0.0007
27042W        W45896   0.885  13.842   0.026  0.0562  0.1297 -0.3039
27043W        W45897  15.721   4.998  13.011  0.1029  0.1242 -0.0788
27044W        W45898  14.932  17.680  11.115 -0.3085 -0.1456  0.1509
27045W        W45899   4.570   4.178  11.350 -0.0401  0.1647 -0.0183
27046W        W45900   6.543   2.710   2.754  0.1830 -0.2949  0.2611
27047W        W45901   6.395   2.183   3.392  0.0073 -0.2018  0.2090
27048W        W45902   6.528  12.471   4.758 -0.0233  0.0720  0.0345
27049W        W45903   4.599  16.655   1.932 -0.2325  0.1222  0.0913
27050W        W45904  18.111   9.654  14.782  0.0595 -0.1186 -0.2552
27051W        W45905   4.468  12.231   1.706  0.0013 -0.0575 -0.0096
27052W        W45906   3.640   1.687   4.552 -0.1049 -0.0609 -0.1653
27053W        W45907   7.023   0.101   9.623  0.0971  0.1994  0.2534
27054W        W45908   7.597   0.191   2.906 -0.2372  0.1963 -0.1990
27055W        W45909   6.251   0.618  11.040 -0.1076 -0.0047 -0.1008
27056W        W45910   3.159  13.543   1.642  0.1319  0.0138 -0.1293
27057W        W45911   9.947   8.362  13.672 -0.0860 -0.0682 -0.2019
27058W        W45912   8.860  14.957  13.424 -0.0497  0.2203 -0.2294
27059W        W45913   5.114  16.092   3.184  0.1516  0.1767  0.1068
27060W        W45914  14.392   7.866   9.992 -0.1054  0.0976 -0.1756
27061W        W45915   3.595  11.803   1.737  0.0931  0.0834 -0.0957
27062W        W45916  14.106  17.923   2.307 -0.1923  0.5146 -0.0037
27063W        W45917   1.438   0.568   3.371 -0.0844 -0.1059 -0.0902
27064W        W45918   5.392  17.091  13.471 -0.0229 -0.1732  0.0032
27065W        W45919   9.629   8.754   4.103 -0.1616 -0.0660  0.0595
27066W        W45920  10.663  10.440  10.924  0.3867  0.0081 -0.2171
27067W        W45921  11.764   9.650  10.921 -0.2618  0.0355 -0.2484
27068W        W45922  17.414  17.129  11.471  0.0761 -0.0599  0.3616
27069W        W45923   1.857   3.556  14.990 -0.0108 -0.3424 -0.3530
27070W        W45924  14.082  16.331  10.439  0.0003 -0.1402 -0.0308
27071W        W45925  13.503   2.898   2.716 -0.1634  0.3498 -0.1424
27072W        W45926  18.435   9.837  13.144  0.0612 -0.0547  0.3130
27073W        W45927   2.535   9.365   3.430 -0.0348 -0.0682 -0.1292
27074W        W45928  12.019   3.906  12.916  0.2375 -0.1231 -0.0353
27075W        W45929  13.511  10.370   1.351 -0.1951  0.0140 -0.1039
27076W        W45930  11.533  12.835  13.403  0.2381 -0.0543 -0.2311
27077W        W45931   1.000   1.642   2.303  0.1040  0.1594 -0.0726
27078W        W45932  16.691  14.916  11.816 -0.2202  0.0543 -0.2074
27079W        W45933   2.360   7.434  15.056 -0.3144  0.0005  0.1112
27080W        W45934   5.901  12.886  13.686 -0.0319 -0.1899 -0.1512
27081W        W45935  16.243  17.187  12.002  0.2623  0.2970 -0.1767
27082W        W45936   2.681  11.693  13.653  0.0795  0.2214 -0.0449
27083W        W45937  12.136  11.651  13.783 -0.3311 -0.1816 -0.0001
27084W        W45938   8.842  11.822   3.563 -0.0198  0.0319 -0.2703
27085W        W45939  16.256   7.048   0.872 -0.1577  0.0244  0.0821
27086W        W45940   9.473  13.060   1.297 -0.0729  0.0117  0.2345
27087W        W45941  12.840   6.217   0.305 -0.0884  0.2221  0.1360
27088W        W45942   2.385   0.788   0.658  0.3464  0.3517 -0.0342
27089W        W45943   6.533   7.938   4.480 -0.1433  0.0170  0.1418
27090W        W45944  13.194  13.221   3.766  0.0216  0.0877  0.0888
27091W        W45945  14.507   3.758   0.587 -0.1023  0.1283  0.1093
27092W        W45946   1.999   0.421   0.531 -0.1377 -0.2023  0.1115
27093W        W45947  12.272  10.147  12.255  0.2942 -0.2087  0.2168
27094W        W45948  17.496  11.763  13.175  0.0505  0.2810 -0.1154
27095W        W45949   5.327   2.184   0.876  0.0021 -0.3384  0.1089
27096W        W45950   0.136   4.561   3.321 -0.1455 -0.2928  0.0967
27097W        W45951  18.787   5.270   2.034  0.1240 -0.2185  0.0396
27098W        W45952   7.777   8.044   4.011  0.0328 -0.0728 -0.1851
27099W        W45953  17.264  11.592  14.429 -0.0585 -0.3831  0.0299
27100W        W45954   6.523  17.508  11.528 -0.3964 -0.1028  0.3977
27101W        W45955   5.656   9.934   3.274 -0.1457 -0.2165 -0.1891
27102W        W45956  15.935  14.564   2.000  0.1075 -0.1393 -0.1215
27103W        W45957   7.637   9.435  13.552 -0.1094 -0.2217  0.0455
27104W        W45958  13.528  17.331  14.937  0.1165  0.0338 -0.0878
27105W        W45959   7.756  16.026  12.705  0.2359 -0.1422 -0.3593
27106W        W45960   5.732  17.145  14.787  0.2172 -0.2625 -0.3692
27107W        W45961  13.680  17.968  13.233 -0.1139  0.0397  0.0569
27108W        W45962   6.702  14.260   1.174 -0.0418  0.0269 -0.0790
27109W        W45963   9.148   5.124   4.232 -0.1226 -0.0543 -0.1305
27110W        W45964  12.760   1.230   5.347 -0.0789  0.0718  0.2257
27111W        W45965   6.088  13.967  11.638  0.0904  0.1796 -0.5194
27112W        W45966  18.043   6.432   2.331 -0.1591 -0.0344  0.0662
27113W        W45967   3.419   9.016  15.037  0.1715  0.0671 -0.2079
27114W        W45968  17.374   4.139   4.450 -0.1411 -0.0108  0.0260
27115W        W45969  16.026  16.015   3.477 -0.1435 -0.0557 -0.1898
27116W        W45970   3.260  14.258  14.824 -0.1862 -0.0339  0.1915
27117W        W45971  10.912   9.189   1.820 -0.1870  0.0086  0.1082
27118W        W45972   4.034   7.798   1.907  0.1579  0.0783 -0.1406
27119W        W45973  12.530  15.030   1.045  0.0486 -0.0444  0.3420
27120W        W45974  16.700   6.338   1.729  0.1728 -0.3402  0.1024
27121W        W45975   6.344  11.622   3.064  0.1425  0.0724 -0.2204
27122W        W45976  11.095  14.351   1.051  0.4411  0.5570 -0.0280
27123W        W45977   2.784  13.938   3.906  0.1373  0.0939 -0.2182
27124W        W45978   0.716  17.525   0.117  0.1036 -0.2255  0.0580
27125W        W45979   4.608  11.723   0.976 -0.1668 -0.1537  0.0383
27126W        W45980   2.690   7.437  13.293 -0.3039  0.3625  0.2552
27127W        W45981  15.515  15.490  12.570  0.1115 -0.0433  0.0858
27128W        W45982  16.060  17.752  12.860 -0.3953 -0.2574  0.0501
27129W        W45983   0.030   6.659  13.184  0.2627  0.0043  0.2764
27130W        W45984  10.075  12.063  14.889  0.1175 -0.0470 -0.1506
27131W        W45985  11.668   5.551   3.752  0.1081  0.2792  0.0510
27132W        W45986  10.605  14.000   1.754  0.1637 -0.2500 -0.0782
27133W        W45987   2.416  15.131   2.390 -0.2471 -0.0238  0.1108
27134W        W45988  10.480   1.433   2.495 -0.3286  0.3406  0.2372
27135W        W45989  15.701  16.351  11.169  0.0945  0.0514 -0.1647
27136W        W45990   4.136  17.700  14.731  0.0124 -0.0468  0.0223
27137W        W45991   2.765  14.612   3.948  0.4942  0.0042  0.0547
27138W        W45992   4.769   0.704   2.912  0.2240 -0.1606 -0.2647
27139W        W45993   1.175  18.707  11.017  0.1607 -0.0718  0.0677
27140W        W45994  17.224   1.993  14.210  0.1662  0.1873  0.0475
27141W        W45995   0.781  12.939  12.002  0.1474  0.4359 -0.0076
27142W        W45996  10.882  11.224   1.287  0.2165  0.3063  0.1086
27143W        W45997  13.238  16.726  12.004 -0.1714 -0.0162  0.2699
27144W        W45998   4.081   5.399   1.468  0.3501  0.4276  0.2498
27145W        W45999  18.069   4.247  13.610  0.1549 -0.0857  0.1069
27146W        W46000   6.278  13.104  11.760  0.2753  0.3745  0.0653
27147W        W46001   4.699  17.495  12.218 -0.1131 -0.0514  0.1360
27148W        W46002  10.041  13.252   5.619 -0.5305  0.4481 -0.0750
27149W        W46003   6.742   2.638  13.523 -0.4522 -0.3268  0.2701
27150W        W46004  13.509   3.355  12.297  0.0755 -0.1254 -0.0055
27151W        W46005   6.470   1.764  14.576  0.3056 -0.0800 -0.0586
27152W        W46006  11.714   8.529  12.324 -0.2281 -0.1339 -0.1517
27153W        W46007  18.082   4.364  10.977 -0.2495  0.0923 -0.0623
27154W        W46008   5.419   1.904  10.066 -0.0251  0.4073  0.0540
27155W        W46009  16.424  13.560   3.052  0.1281  0.4467 -0.0128
27156W        W46010  12.231  15.872   2.776  0.0803  0.0931 -0.0303
27157W        W46011  13.126   0.383   4.203  0.0693  0.1365  0.2230
27158W        W46012  14.238   8.201  12.874  0.3171  0.0165  0.0435
27159W        W46013  16.870  12.018  11.119  0.0979  0.1320  0.2079
27160W        W46014   9.772   3.974  12.087 -0.3945  0.3241 -0.1938
27161W        W46015  14.607   4.832  11.263 -0.0564 -0.0697  0.1383
27162W        W46016   9.673   6.456   2.204  0.1814 -0.1726  0.0185
27163W        W46017  17.487   9.146  10.990  0.1443 -0.1218  0.1727
27164W        W46018   1.145   4.336  11.645 -0.1637 -0.1617  0.5638
27165W        W46019   4.340   6.032  12.308  0.2070  0.2764  0.1055
27166W        W46020  12.474   7.458  11.914 -0.1693  0.1468  0.0291
27167W        W46021   0.699  11.270  13.565 -0.2496 -0.2474  0.2260
27168W        W46022  16.795   6.959  13.912  0.2175  0.3538 -0.0191
27169W        W46023  13.586  11.105   4.105  0.2298  0.1246 -0.2761
27170W        W46024  11.292   9.142  13.143  0.2826 -0.0510 -0.2947
27171W        W46025   4.900  12.977  14.968  0.1095  0.0268 -0.4102
27172W        W46026  13.343  14.217   2.576 -0.1704  0.1407  0.4483
27173W        W46027  15.440   3.747   0.236  0.2274 -0.0894 -0.4822
27174W        W46028  16.974  16.152  13.284 -0.4766 -0.0449 -0.2064
27175W        W46029   4.083  10.024  15.028 -0.0480  0.4020 -0.1671
27176W        W46030   2.829  10.378   1.975  0.0613  0.2130  0.0242
27177W        W46031  12.288   1.254  12.926 -0.0108  0.1019  0.1004
27178W        W46032   6.913   0.953   1.031 -0.0615  0.0507 -0.0362
27179W        W46033  18.565  15.769   1.456 -0.1314  0.1315 -0.0240
27180W        W46034   1.176  15.471   0.340  0.0140  0.3394 -0.1617
27181W        W46035   9.555  18.364   0.326 -0.0376  0.0777  0.1495
27182W        W46036  12.854  16.093   4.925 -0.0329  0.2366  0.1384
27183W        W46037   4.396  18.698  14.070 -0.1862  0.0631 -0.1383
27184W        W46038   3.102  16.756   0.100  0.2655  0.2008  0.0479
27185W        W46039   1.944   2.918  10.888  0.3365  0.0947 -0.5314
27186W        W46040   8.534   6.392  12.386  0.0094  0.0083  0.0509
27187W        W46041   9.793   9.951   3.351  0.2064 -0.0467  0.2968
27188W        W46042  12.897  17.471  12.182 -0.1767  0.0748  0.2257
27189W        W46043   2.828   0.926   0.512  0.1257  0.2172  0.1581
27190W        W46044   7.709   3.319  14.278 -0.1252  0.0453  0.0460
27191W        W46045   8.046  11.039   0.630 -0.0622 -0.1227 -0.1377
27192W        W46046  18.512   9.061  14.075  0.0259 -0.0867  0.0049
27193W        W46047   3.898   5.011  11.430  0.5405  0.4135 -0.2119
27194W        W46048  10.840   5.335  10.925 -0.0964  0.0568  0.0266
27195W        W46049  15.953   6.140  13.086 -0.2989 -0.1110 -0.1791
27196W        W46050   0.301   1.990   0.694 -0.2385  0.2424 -0.0215
27197W        W46051   9.727   0.222  12.053 -0.3551  0.0982 -0.3952
27198W        W46052   8.796   8.537  12.419 -0.2696 -0.0117  0.0335
27199W        W46053  17.597   8.864   3.283 -0.2590 -0.1147  0.1053
27200W        W46054  10.228   2.994   0.532 -0.0012  0.2016  0.3747
27201W        W46055  17.668  12.628  10.648 -0.2048  0.0808  0.0902
27202W        W46056  14.073  12.788   0.173 -0.1800  0.4306 -0.3261
27203W        W46057  12.024   6.783   2.687 -0.0960  0.1405  0.1227
27204W        W46058   3.538   0.014   3.066 -0.0026  0.1657  0.0095
27205W        W46059   5.651  16.064  11.182 -0.1789  0.0038  0.1607
27206W        W46060  11.094  15.665   1.612  0.0618 -0.1182  0.1094
27207W        W46061   6.248   2.048  12.883  0.3588  0.0969  0.0325
27208W        W46062   9.059   9.175  14.909 -0.3282  0.0567  0.0866
27209W        W46063   0.660  10.408   2.691 -0.0303  0.0851  0.0732
27210W        W46064   1.956   2.303   1.698 -0.1890 -0.5602  0.1373
27211W        W46065   7.540   7.388  11.378  0.1991 -0.2668  0.0051
27212W        W46066   2.983  13.273   2.742 -0.2062 -0.4421  0.0342
27213W        W46067  11.691   0.187   1.844 -0.1079  0.1765 -0.1569
27214W        W46068  14.845   2.285  10.974  0.0225 -0.3497 -0.3317
27215W        W46069   9.562  17.458  14.759  0.0272  0.2801 -0.3762
27216W        W46070   1.767  13.060   2.826  0.1265  0.1531  0.1155
27217W        W46071  10.656  12.902   4.723  0.0636 -0.0733 -0.0941
27218W        W46072  12.323   3.278  13.474 -0.1722 -0.1949 -0.1015
27219W        W46073  18.616   2.397   3.097 -0.1041 -0.0272 -0.2061
27220W        W46074   9.960  17.540  13.004  0.1320  0.0143 -0.1928
27221W        W46075   8.853   6.894   2.419  0.1022  0.0883  0.0234
27222W        W46076  18.740  15.017  13.130  0.0780  0.2392  0.3201
27223W        W46077  13.072   6.761   1.501 -0.1227 -0.1801 -0.0139
27224W        W46078  16.402   8.104  12.772 -0.1579 -0.0270 -0.0982
27225W        W46079   7.202  18.682  13.387  0.0262  0.1602 -0.0334
27226W        W46080   7.522   6.734  14.050  0.0347 -0.2878 -0.2299
27227W        W46081   9.800  15.624  12.623 -0.0579  0.0347 -0.0896
27228W        W46082   3.648   8.678   0.201 -0.2155 -0.1963 -0.0409
27229W        W46083  15.904   0.156   4.561  0.2372 -0.0266  0.2246
27230W        W46084  15.778   6.715   1.932 -0.1105  0.0556  0.0022
27231W        W46085   5.285  10.621  14.346  0.0614  0.0714 -0.2535
27232W        W46086  16.958   1.045  12.005 -0.1413 -0.0442 -0.0920
27233W        W46087  12.111   1.621   0.635  0.0056 -0.0919  0.1285
27234W        W46088   4.887   8.988  14.693 -0.1166  0.1813  0.1021
27235W        W46089   4.192  12.590  14.506  0.1127 -0.0228 -0.0895
27236W        W46090  17.976   4.376  11.883  0.0100  0.1188 -0.0043
27237W        W46091   8.961  10.031   3.850  0.3782 -0.0179  0.0178
27238W        W46092   4.539   3.413   4.886  0.0136  0.1018 -0.0725
27239W        W46093  14.360  11.832  11.016 -0.1508 -0.0053  0.1899
27240W        W46094  12.247  18.828  11.649 -0.2617  0.2308 -0.0099
27241W        W46095   4.683  16.258   3.954  0.3070  0.1350 -0.0059
27242W        W46096   0.245   6.154  12.018  0.2446 -0.0242  0.0410
27243W        W46097   6.811   6.401   3.211 -0.0340 -0.0974 -0.1201
27244W        W46098   9.772   6.604  12.731 -0.0754 -0.0075 -0.3187
27245W        W46099   9.965   6.152   3.774 -0.1343  0.2240 -0.0909
27246W        W46100  14.983  16.674  13.291 -0.1445  0.1031 -0.1959
27247W        W46101   9.695  10.957  11.375  0.0216  0.1278  0.0632
27248W        W46102   3.784   2.584  14.886  0.0781 -0.1241  0.2839
27249W        W46103  15.227  13.310  12.567 -0.1000  0.3102  0.0097
27250W        W46104   3.811   6.442  11.869 -0.1026  0.1559 -0.0105
27251W        W46105   1.291   7.261   4.301 -0.0407  0.4325 -0.0199
27252W        W46106  11.327  11.970  10.881 -0.0779 -0.1529  0.2701
27253W        W46107  15.967   7.645  10.763 -0.1993 -0.0131 -0.3215
27254W        W46108   8.707  16.533  10.245  0.1769 -0.3768 -0.1215
27255W        W46109  15.467   5.169   0.883 -0.2673  0.3186  0.0057
27256W        W46110  11.451  16.774  12.194 -0.0084 -0.0645  0.2857
27257W        W46111  12.932   8.849  12.232  0.2121 -0.1531  0.0273
27258W        W46112  14.724   3.423  13.020  0.1619 -0.4398  0.1375
27259W        W46113   2.199  11.987  13.601 -0.0361 -0.1304 -0.0172
27260W        W46114   9.759   3.954  13.390  0.3016 -0.2882  0.0817
27261W        W46115   0.277  12.972  12.132 -0.0904 -0.0062 -0.2610
27262W        W46116   6.415   5.719   2.582 -0.1516  0.4173 -0.0352
27263W        W46117   0.714  18.703   3.398 -0.2068 -0.2130  0.0197
27264W        W46118  15.121  12.270  14.741  0.2068 -0.1177  0.1374
27265W        W46119  12.006  16.096  10.968 -0.0621  0.1153 -0.0412
27266W        W46120  10.189   0.510   0.411  0.0978 -0.1055  0.1228
27267W        W46121   1.841   1.242   1.981 -0.1022  0.0464 -0.3058
27268W        W46122   0.933   3.637   3.958 -0.1539  0.0021  0.0876
27269W        W46123  11.549   7.457   1.436  0.3032 -0.0506 -0.3351
27270W        W46124   9.697  17.879   1.436 -0.2350  0.0816 -0.2667
27271W        W46125  18.817   2.320   0.046 -0.2704 -0.1491  0.0611
27272W        W46126  18.563  17.804  15.057 -0.0754  0.0363  0.2958
27273W        W46127   4.504   5.576  12.478  0.2784  0.1070 -0.1778
27274W        W46128   9.470   6.313  15.003  0.0728  0.2554  0.0253
27275W        W46129   8.332   9.092  13.946 -0.0903  0.0538 -0.1478
27276W        W46130   1.300   5.450   4.075 -0.1596  0.0289 -0.2656
27277W        W46131  17.983  18.197   2.408 -0.2578  0.0559  0.0678
27278W        W46132  12.169   0.825   3.262 -0.2941  0.0052 -0.1831
27279W        W46133   0.364   1.634  12.390 -0.0566  0.0986 -0.0812
27280W        W46134   6.550  18.129   4.309 -0.0828  0.1329  0.1486
27281W        W46135  15.658   1.795   0.103 -0.0742  0.1083 -0.0102
27282W        W46136   3.655   4.068   0.251  0.1419  0.0142 -0.0103
27283W        W46137   9.300  15.640   2.205  0.2705 -0.1332 -0.1323
27284W        W46138  18.426  18.581  13.996  0.0253 -0.0319  0.1345
27285W        W46139  12.663  14.201  14.594  0.0354  0.2124 -0.2101
27286W        W46140   8.906  13.367   0.976 -0.1108 -0.1101  0.2388
27287W        W46141   9.358   4.791  14.727  0.0279 -0.0854  0.0046
27288W        W46142  11.123  16.000  12.015 -0.0998 -0.0803  0.0740
27289W        W46143   1.866   8.799  13.637 -0.3090 -0.1085  0.0636
27290W        W46144   9.056   0.232   0.128 -0.1750 -0.0372 -0.0311
27291W        W46145  13.189  14.108  14.710  0.4514 -0.0897 -0.0681
27292W        W46146   7.244   2.667   5.283  0.2065  0.0196 -0.2108
27293W        W46147  16.948  10.204   2.173  0.1701  0.2208  0.0955
27294W        W46148  12.315   6.386  13.686 -0.1601 -0.4374  0.0080
27295W        W46149   7.417   4.061   2.419 -0.2000 -0.1747  0.2740
27296W        W46150  16.754   1.805   1.073  0.3977 -0.1161 -0.2431
27297W        W46151  13.250  11.362  12.447  0.0480  0.2459  0.0280
27298W        W46152  18.053  14.549  10.769 -0.1028 -0.4287 -0.0536
27299W        W46153  15.841   3.255   1.427  0.1027  0.1743 -0.2022
27300W        W46154   8.827  11.031   2.981 -0.2075  0.0922 -0.3354
27301W        W46155  13.892  17.057  14.248  0.0773 -0.0462 -0.1231
27302W        W46156  13.581   4.747  13.685  0.4459  0.3266 -0.1756
27303W        W46157   4.877  11.547  11.471  0.0722 -0.1619 -0.0008
27304W        W46158   1.316   2.801  13.152 -0.1390  0.3478  0.1028
27305W        W46159  14.721   3.969  14.796 -0.0322  0.0009 -0.2826
27306W        W46160  11.951   2.227  14.316 -0.0570 -0.2881 -0.4804
27307W        W46161   0.408   3.080   2.098 -0.0854 -0.0932 -0.0862
27308W        W46162  18.231   8.588  13.243  0.0983  0.0759 -0.2025
27309W        W46163  18.454   4.594   2.303 -0.3210  0.1078 -0.2741
27310W        W46164  15.939   2.041   1.092  0.1271 -0.0643 -0.2826
27311W        W46165   6.980  11.916  13.924  0.0214 -0.1967  0.2635
27312W        W46166  18.519   9.337   4.493 -0.1700 -0.2796  0.2145
27313W        W46167   2.781   0.806  12.904 -0.0245  0.2033 -0.1285
27314W        W46168  11.717  10.129  12.246 -0.0538 -0.0458  0.1211
27315W        W46169  17.474  12.973   4.003 -0.1241  0.2667  0.2812
27316W        W46170   7.331  10.875   5.398 -0.0886  0.0715  0.1952
27317W        W46171  14.730  17.710   1.867  0.3149 -0.1502  0.1237
27318W        W46172  14.695   8.007  12.665 -0.0653 -0.3033 -0.0547
27319W        W46173   6.005  11.224   2.385  0.0905 -0.4163  0.1182
27320W        W46174  13.467   4.119  12.828 -0.0067 -0.0411  0.3836
27321W        W46175  14.022   1.554   1.773  0.2726  0.0063  0.2309
27322W        W46176  16.606   5.485  12.027 -0.0145 -0.0145  0.0724
27323W        W46177  12.068   6.770   0.923  0.0062 -0.1881  0.0967
27324W        W46178  15.082   1.397  12.487  0.0480 -0.0326 -0.2014
27325W        W46179   1.458  13.492  14.710  0.1570 -0.0076 -0.1289
27326W        W46180  15.384  10.410   0.047 -0.2066 -0.1642  0.1434
27327W        W46181  12.379  12.382  15.019 -0.2928 -0.2450 -0.1824
27328W        W46182  12.581   5.385  11.794  0.2072  0.2013  0.3192
27329W        W46183   3.290   7.394  12.732 -0.1200  0.4124  0.1924
27330W        W46184  17.815  15.846  13.931 -0.1598 -0.3099 -0.1361
27331W        W46185   2.038  11.823   1.088 -0.0692  0.0597  0.0283
27332W        W46186   7.268  17.425   2.404 -0.1115  0.1678 -0.2411
27333W        W46187   2.653   8.122   0.461 -0.0677 -0.4300 -0.0525
27334W        W46188   3.749   0.105  14.765  0.0782 -0.2348 -0.0020
27335W        W46189   4.109  16.533   0.467  0.1331  0.0891 -0.3219
27336W        W46190   1.286   3.705   1.862 -0.0027  0.0628  0.0944
27337W        W46191  18.349   5.500  14.032  0.3803 -0.0203  0.4421
27338W        W46192   1.737   7.741  14.372  0.3260 -0.2345 -0.1883
27339W        W46193   2.469  17.318  13.325 -0.2671 -0.3150 -0.0808
27340W        W46194  10.441   8.931  11.478 -0.0177 -0.1494  0.3678
27341W        W46195  10.251   2.693   4.590  0.1016 -0.4932 -0.0839
27342W        W46196   6.743  15.054   2.992 -0.0753  0.2221 -0.0578
27343W        W46197  17.187   1.613   2.245  0.1195  0.0834 -0.2127
27344W        W46198   1.193  12.436   3.742  0.2831  0.0792 -0.2107
27345W        W46199  14.917   1.070   2.498  0.3294  0.3069  0.0039
27346W        W46200  18.730   0.042  12.595 -0.0426 -0.0212  0.3744
27347W        W46201  12.049   5.281  10.562  0.1045 -0.1921  0.2633
27348W        W46202  16.819  15.698  12.347 -0.0393 -0.0808  0.2755
27349W        W46203   4.812   6.233   3.904 -0.1516 -0.2490 -0.0380
27350W        W46204  18.117   7.975   1.430  0.0470 -0.0349  0.2570
27351W        W46205   8.220  10.557  14.723  0.3703  0.0079  0.0101
27352W        W46206  15.629  14.603   3.322 -0.3557 -0.1832  0.0775
27353W        W46207   9.829  14.085   1.744  0.2250  0.4874 -0.0571
27354W        W46208   4.910   9.128   0.141  0.5152 -0.1527 -0.0520
27355W        W46209   8.003   8.028   2.153 -0.0943  0.0405  0.1524
27356W        W46210  11.963  11.175  13.845 -0.0872 -0.0095  0.0525
27357W        W46211   7.674   5.209  13.084 -0.0283 -0.2129 -0.2416
27358W        W46212   0.444   8.078  13.259 -0.0782  0.1927  0.3778
27359W        W46213  17.620  11.723  10.908 -0.0654 -0.0424  0.0372
27360W        W46214   2.528   4.012   0.694  0.0122 -0.2751 -0.0516
27361W        W46215  18.299  11.747  12.266 -0.1228  0.3425 -0.3036
27362W        W46216   7.976  11.642  14.476 -0.2961  0.0586 -0.2304
27363W        W46217  10.793  17.154   0.902  0.4425  0.0627 -0.1817
27364W        W46218  11.973   4.895   2.553  0.0559  0.0548 -0.1855
27365W        W46219   5.121   1.814   4.314  0.0573 -0.4206  0.0505
27366W        W46220  17.780   4.513  13.901  0.0758 -0.0304  0.0304
27367W        W46221   3.705   9.611   0.553  0.0489  0.1765  0.2238
27368W        W46222   9.117  14.190   2.171  0.3913 -0.1040 -0.1455
27369W        W46223   0.944  10.211   3.512 -0.1186 -0.2455 -0.0151
27370W        W46224  13.727   2.697   3.730  0.3371 -0.0423  0.1329
27371W        W46225  11.374   0.507   1.725  0.4718  0.1167  0.0737
27372W        W46226   3.846   5.197   4.225  0.2005 -0.0058 -0.0923
27373W        W46227   9.452  10.812  14.939  0.0933 -0.3272 -0.0307
27374W        W46228  12.176  14.882  11.221 -0.1912  0.1892  0.2252
27375W        W46229  17.535   6.129   3.013  0.0236  0.2479  0.0613
27376W        W46230   2.168   0.673  14.700  0.2678  0.1919 -0.0142
27377W        W46231  15.315  16.684  14.226 -0.0349 -0.0546  0.2300
27378W        W46232  11.819   7.094   1.176  0.0286  0.2091  0.0419
27379W        W46233  17.263  10.142  11.606  0.2423 -0.0508  0.1411
27380W        W46234   6.301  14.608   1.115  0.0360 -0.0020  0.0683
27381W        W46235  17.415  11.635  11.720  0.2087  0.0134 -0.1038
27382W        W46236   3.094  14.412  11.580  0.1124  0.1810  0.0416
27383W        W46237   6.483   7.201   0.829  0.1135  0.3878  0.0024
27384W        W46238  14.117  14.807   2.843 -0.0585  0.1942  0.0322
27385W        W46239   9.389  14.273   0.130 -0.0560  0.0304 -0.1763
27386W        W46240   6.036  14.371  13.791 -0.1037 -0.2538  0.0471
27387W        W46241  17.848   4.973   1.136  0.0884 -0.2318  0.0691
27388W        W46242  14.254   5.009  14.823 -0.0003  0.2072  0.0176
27389W        W46243   9.439   9.378  13.665  0.1416  0.0638 -0.2758
27390W        W46244   2.283   2.013  12.994 -0.0438 -0.1551  0.0002
27391W        W46245  18.242  15.508  11.507 -0.1980 -0.0164 -0.1304
27392W        W46246  11.423   1.068  11.282 -0.2521 -0.1867 -0.2310
27393W        W46247  13.138  12.770   3.868 -0.2116 -0.1343 -0.0523
27394W        W46248   5.282  11.024   1.694  0.1537 -0.1017  0.4050
27395W        W46249  14.738  13.125  13.793 -0.1887 -0.0775 -0.2186
27396W        W46250  11.686   8.982   3.119 -0.0027 -0.1310  0.0416
27397W        W46251   3.604  11.493   3.346  0.0790  0.0687 -0.0799
27398W        W46252   2.701  14.091  14.983  0.0643 -0.0374  0.2945
27399W        W46253  11.316  14.240  12.266 -0.0725  0.0076  0.0220
27400W        W46254   5.748  12.286   1.362  0.1373  0.1308 -0.0683
27401W        W46255   9.218   3.920   1.764 -0.0937 -0.3649  0.2266
27402W        W46256  17.851   6.627  12.770  0.2088  0.0779 -0.2501
27403W        W46257  18.136  15.679  12.918  0.1501 -0.1918 -0.0699
27404W        W46258   3.835  18.308   1.981  0.4236  0.0256  0.0767
27405W        W46259   9.195   8.058  13.732 -0.2524 -0.1374 -0.1714
27406W        W46260   7.182  15.872  13.016 -0.0831 -0.4533 -0.2024
27407W        W46261  11.218   2.123   3.933 -0.0198  0.0725  0.0828
27408W        W46262  16.757   2.669  12.147 -0.0040  0.0071  0.0126
27409W        W46263  18.232  16.694   0.874 -0.2923 -0.0108 -0.1302
27410W        W46264  10.741   1.525   3.242 -0.1326  0.0797 -0.0183
27411W        W46265   3.583  10.295  12.592  0.1033 -0.0035  0.0299
27412W        W46266  15.659   0.698  14.364  0.0759 -0.2454  0.3351
27413W        W46267  16.180   6.868  10.700  0.0054 -0.0483 -0.0496
27414W        W46268   3.707  14.461  13.255 -0.1086  0.2094 -0.0787
27415W        W46269   2.063   6.361   3.932 -0.0199  0.6487  0.1950
27416W        W46270   3.084   2.082  15.092 -0.2646  0.0542  0.0676
27417W        W46271   8.120   1.789  15.084  0.0280 -0.0337  0.0498
27418W        W46272   7.418   3.640   3.005 -0.1025 -0.4791  0.3399
27419W        W46273  13.983  17.200   3.501 -0.1215 -0.1029  0.2853
27420W        W46274  14.234   2.094  14.259 -0.0577  0.3167 -0.0049
27421W        W46275   7.267  13.052   0.799 -0.0098 -0.0737 -0.0704
27422W        W46276   6.908   0.262   4.438  0.1262  0.0514  0.2456
27423W        W46277  13.936  11.868   0.485  0.1129  0.0941  0.3583
27424W        W46278   1.035  15.227   2.047 -0.1656 -0.1411  0.2146
27425W        W46279  14.201   3.014  13.819  0.0184 -0.1168  0.4467
27426W        W46280   0.120   3.689   0.563 -0.1256  0.2022  0.0852
27427W        W46281   7.422  11.213   3.871 -0.2656 -0.1947 -0.0210
27428W        W46282  16.568  16.779  12.299 -0.0084  0.1634  0.1531
27429W        W46283  12.992   4.593  14.275 -0.0995 -0.0387 -0.1734
27430W        W46284  18.806  17.266  13.097  0.1464 -0.1169 -0.6206
27431W        W46285   0.860  11.695  13.163 -0.0801  0.1547  0.2515
27432W        W46286  12.445   6.208  14.176  0.0653  0.0910  0.2164
27433W        W46287  10.155  12.681  11.545 -0.4711  0.1760  0.0977
27434W        W46288  18.250  12.182   0.980 -0.0068 -0.3596  0.1286
27435W        W46289  17.850   4.386   3.987  0.2553 -0.2586  0.0599
27436W        W46290  16.484   2.327   3.220  0.1625 -0.0644 -0.1083
27437W        W46291  10.729   6.434   4.189 -0.2209 -0.0491  0.0951
27438W        W46292   6.767  14.189  10.766 -0.0489 -0.1534 -0.0125
27439W        W46293   4.338  15.342   3.068 -0.0976 -0.3900  0.1495
27440W        W46294  11.516   1.043  13.629  0.2416 -0.0570 -0.4318
27441W        W46295   6.659  15.391   2.644 -0.0444 -0.3981  0.1497
27442W        W46296   5.584   0.535  12.843  0.1521  0.3647 -0.1257
27443W        W46297  11.947   5.299   4.171 -0.0746  0.1507 -0.1863
27444W        W46298  13.770   2.817   1.897  0.1367  0.2812  0.1066
27445W        W46299   3.352  11.579   3.859  0.1504 -0.1979  0.1427
27446W        W46300   3.021   7.510   3.297  0.1504  0.2626  0.0225
27447W        W46301   3.397  15.562  13.093 -0.0274  0.2199  0.0783
27448W        W46302   0.134  14.169  13.939 -0.1603 -0.3045  0.0766
27449W        W46303   7.512   3.358   3.885 -0.0203 -0.2809  0.3290
27450W        W46304   0.505   6.903   2.947  0.1626 -0.0463  0.1681
27451W        W46305   8.514   7.641  14.596 -0.2053  0.1824  0.3688
27452W        W46306   2.168   2.417  11.076 -0.1170 -0.1550 -0.1978
27453W        W46307  16.304  15.299   0.769  0.0725  0.3868 -0.0659
27454W        W46308   8.798  14.279   1.670  0.5271 -0.1236 -0.3784
27455W        W46309  14.667   7.033   5.253  0.0670 -0.1328 -0.0245
27456W        W46310   4.199  16.411   1.732  0.0867  0.1116 -0.3416
27457W        W46311  16.366  16.383  12.137 -0.2651 -0.0030  0.0308
27458W        W46312   7.412   7.833   2.737  0.1879 -0.3662 -0.0588
27459W        W46313   4.461   0.513  10.988  0.0165  0.0878 -0.3595
27460W        W46314  11.311  17.233   5.205  0.0992 -0.0786 -0.1192
27461W        W46315  15.499   0.049   2.423  0.0431 -0.0601 -0.1771
27462W        W46316   0.668  16.424   2.020 -0.3247 -0.0412  0.0364
27463W        W46317  10.387   2.505   3.159  0.2008  0.1076  0.1028
27464W        W46318  14.330   1.764  13.363 -0.1596  0.4594  0.1943
27465W        W46319  17.429  10.656  14.105 -0.1551  0.0187  0.0581
27466W        W46320  15.930   8.880  11.171 -0.0299 -0.0361  0.1431
27467W        W46321   6.622  14.080  13.363 -0.1531  0.1260 -0.0111
27468W        W46322  13.260  13.833  13.015 -0.3844 -0.1013  0.2297
27469W        W46323  14.330   0.444  12.714  0.3160 -0.4291 -0.1610
27470W        W46324  10.087   4.075  12.496  0.1933  0.0046 -0.3548
27471W        W46325   2.014  13.602   2.453 -0.1160 -0.1333 -0.2151
27472W        W46326  15.206   2.468   3.133 -0.1561  0.1438  0.1704
27473W        W46327   1.794  10.152  13.517  0.1141 -0.0721 -0.2925
27474W        W46328   0.242   1.082  14.628 -0.3594 -0.0061 -0.0713
27475W        W46329   9.128  18.137  14.582 -0.1987  0.2373 -0.0650
27476W        W46330  12.651   2.144  11.169 -0.0948 -0.4580 -0.1247
27477W        W46331  18.836   6.358   0.123 -0.0389  0.3698  0.1247
27478W        W46332   2.321  16.224  14.086 -0.4140 -0.3572  0.0600
27479W        W46333   8.842  18.507  13.235 -0.3108 -0.0644 -0.1816
27480W        W46334  18.711   1.230  13.085  0.0872 -0.5383  0.0263
27481W        W46335   4.453  15.588  11.746  0.4736  0.0655  0.1332
27482W        W46336   6.171   0.909  11.931 -0.2670  0.0715  0.0569
27483W        W46337  16.643   1.499  10.312  0.1413 -0.1697 -0.2392
27484W        W46338   4.534  16.307   0.646 -0.2298 -0.1118  0.1576
27485W        W46339  15.063   1.581  11.956  0.0676 -0.0924  0.0611
27486W        W46340  10.162  12.010  14.397 -0.2388  0.1291  0.2463
27487W        W46341   1.294  17.326   4.189  0.2251 -0.1238  0.1127
27488W        W46342  18.755   0.243   2.838  0.0410  0.1649 -0.1121
27489W        W46343   0.313  11.754  14.380 -0.1030 -0.1713  0.1837
27490W        W46344   3.066   6.731   0.177  0.1246 -0.0527 -0.1832
27491W        W46345   4.200  10.203  13.215  0.2268 -0.0084  0.1284
27492W        W46346   7.353  18.597   1.513 -0.0280  0.0960 -0.2126
27493W        W46347   4.629  18.416   4.461  0.1193 -0.2465  0.3693
27494W        W46348   9.354   6.581   3.151 -0.2948  0.0200 -0.2182
27495W        W46349   4.863   4.166  13.096 -0.2257  0.1553 -0.1452
27496W        W46350   3.942   3.834  12.865 -0.0418 -0.1243 -0.3093
27497W        W46351  18.354  11.368  10.347  0.1155 -0.1016  0.1717
27498W        W46352  16.451  11.638   2.134  0.2222  0.3066  0.1215
27499W        W46353  10.797   3.581   1.641  0.2680 -0.0095 -0.0837
27500W        W46354   7.170  11.564  11.863 -0.1720  0.0452  0.0482
27501W        W46355   1.934   2.694   3.860  0.1671 -0.0684 -0.0952
27502W        W46356   0.886  15.991  12.266  0.2754  0.1192 -0.1388
27503W        W46357   4.580   3.446   3.907  0.2994  0.0648  0.2421
27504W        W46358   9.062   6.252  12.341 -0.0030  0.7192  0.0129
27505W        W46359  17.447   5.935   1.148 -0.1774  0.3583 -0.1357
27506W        W46360   6.439   1.248  14.166  0.3752  0.0204  0.1665
27507W        W46361  18.489   7.019   2.926 -0.1805 -0.0984  0.1879
27508W        W46362   6.236   5.890  14.718 -0.2834 -0.0813 -0.0044
27509W        W46363   9.927   0.070   4.213 -0.2631 -0.0457  0.1489
27510W        W46364   6.146   1.743  10.697 -0.2626 -0.1383  0.4691
27511W        W46365  10.154  15.183   2.578  0.1494  0.0222  0.4908
27512W        W46366  16.209  12.401   2.457 -0.0455  0.1126 -0.0346
27513W        W46367  10.857  14.677   2.147 -0.3118  0.1100 -0.1028
27514W        W46368  11.230  16.374  11.310 -0.0116 -0.0393 -0.0593
27515W        W46369  16.970   1.703  11.274 -0.3058  0.1791  0.4183
27516W        W46370   3.888   9.883  10.414  0.0520 -0.1135  0.2025
27517W        W46371   8.922  18.536   0.415  0.0911  0.1339 -0.1913
27518W        W46372   3.723  17.706  14.156 -0.2542  0.0634 -0.2694
27519W        W46373   4.279  18.457  12.650  0.1380 -0.1446 -0.2509
27520W        W46374   6.613  15.666   4.952 -0.1741 -0.2832  0.2062
27521W        W46375   1.664   1.155  13.614  0.0017 -0.0062  0.0166
27522W        W46376   0.667   2.169   1.202 -0.0254  0.0636  0.3607
27523W        W46377   3.919   0.266  13.834  0.2338 -0.0323  0.0152
27524W        W46378   9.865   2.147  11.958  0.1965 -0.0426  0.1544
27525W        W46379   4.226  17.408   2.272 -0.0010 -0.2819 -0.4867
27526W        W46380   7.795  11.937   3.514 -0.0990  0.1779 -0.3585
27527W        W46381   6.340  10.885  13.537 -0.0369 -0.0075 -0.0645
27528W        W46382  17.443   2.691  13.948  0.1080 -0.0670  0.1132
27529W        W46383  16.915   9.381   1.977 -0.2745 -0.0931 -0.5372
27530W        W46384  17.737   6.394  11.951 -0.1112 -0.1172  0.1581
27531W        W46385  10.896   6.962  14.636  0.1977  0.2053 -0.1175
27532W        W46386   8.299  10.667  11.750  0.1217 -0.0757  0.1075
27533W        W46387  18.307  13.465   1.488 -0.2417 -0.0924  0.3442
27534W        W46388  16.642   5.693   1.100 -0.1116  0.2235  0.1325
27535W        W46389   5.134   6.925   2.871 -0.2334 -0.0784 -0.0854
27536W        W46390   5.890   4.198  14.274  0.1322 -0.5173 -0.1235
27537W        W46391  18.635  12.115   3.260  0.1416  0.0437 -0.3427
27538W        W46392  10.042  18.696   0.442  0.4420  0.0532  0.1827
27539W        W46393   5.018   6.291  11.649  0.3588  0.0083  0.3428
27540W        W46394   3.262  10.530   2.239 -0.3187  0.0256 -0.3165
27541W        W46395   6.597   6.440  14.577  0.0021 -0.0257 -0.0616
27542W        W46396   3.705  15.026  10.192 -0.0101  0.5642 -0.0053
27543W        W46397   4.143  16.746   4.136  0.0844  0.0076 -0.1029
27544W        W46398  16.509   5.218   0.690  0.1699 -0.0963 -0.0978
27545W        W46399   4.677   7.665  15.105  0.0372  0.2868  0.0849
27546W        W46400   1.826   9.154   2.655 -0.2691  0.2090 -0.2290
27547W        W46401   1.667  12.681   1.107 -0.0486  0.0770  0.0723
27548W        W46402   7.050   0.506   2.801 -0.3769  0.1076  0.0830
27549W        W46403  15.137   7.614   1.426  0.1882  0.0105 -0.2108
27550W        W46404  18.009   4.613   1.457  0.2963  0.1508 -0.0246
27551W        W46405  15.895   5.677  14.251 -0.1662  0.2092 -0.2290
27552W        W46406  15.668   2.835   2.924  0.0348  0.1580  0.0466
27553W        W46407  11.657   8.131   3.021 -0.1980 -0.0120  0.3821
27554W        W46408   3.237  10.996  13.176 -0.3342 -0.0850  0.1363
27555W        W46409   5.647  11.465  13.142 -0.0774 -0.1573 -0.0472
27556W        W46410  17.356  12.224   3.451 -0.0269 -0.1724 -0.1576
27557W        W46411   3.185   0.080  11.243  0.0899  0.0110 -0.2149
27558W        W46412  13.804  11.010  14.552  0.3052  0.1593  0.0135
27559W        W46413   4.034   5.370  11.103  0.1030 -0.0422 -0.1371
27560W        W46414  15.802  16.224   0.058  0.2800 -0.2750 -0.1092
27561W        W46415  18.470   3.773  12.073  0.0366 -0.0873 -0.5197
27562W        W46416   6.284  16.935  13.351 -0.1615 -0.0422 -0.1469
27563W        W46417  17.322  14.771   1.469 -0.1725  0.3589  0.1609
27564W        W46418   6.506  14.499  14.964 -0.2214  0.0888  0.2584
27565W        W46419   8.323  10.406  12.220  0.0130  0.0935  0.2962
27566W        W46420   8.922  17.733   2.229  0.0138  0.1200  0.1029
27567W        W46421   9.187  12.097  10.902 -0.1110  0.1252 -0.2351
27568W        W46422  16.420  17.047  14.207  0.0771  0.2692 -0.0340
27569W        W46423  14.366   4.214  12.008 -0.1641  0.3070  0.1767
27570W        W46424  17.706  14.081  10.818  0.3973  0.2950 -0.0898
27571W        W46425  15.725  17.847   3.158 -0.1413  0.3507  0.0030
27572W        W46426   7.006  12.305   1.161  0.0184  0.0038  0.0952
27573W        W46427  10.559   1.976   0.969 -0.2642  0.1548  0.1241
27574W        W46428  13.960  15.108   2.497 -0.0730  0.1923 -0.4032
27575W        W46429  13.506  17.862  12.779 -0.2000  0.0344 -0.1606
27576W        W46430  11.330   8.821   1.752 -0.1855 -0.0915 -0.2152
27577W        W46431   4.824   8.199   4.634  0.2047  0.0011 -0.1823
27578W        W46432  17.748  17.761  15.014  0.0748  0.1876  0.0231
27579W        W46433   7.688   6.498   3.471  0.2434 -0.1085 -0.3261
27580W        W46434   5.175   3.815   4.532  0.0204  0.3332 -0.3115
27581W        W46435   0.826  18.717   3.875  0.0776  0.0168 -0.0642
27582W        W46436   5.643   7.419   0.869 -0.0429  0.0139  0.0910
27583W        W46437  11.031   9.678   2.944  0.0008 -0.0872  0.0971
27584W        W46438  14.620   1.003   0.222  0.2501  0.2804  0.2946
27585W        W46439   3.267   9.765   3.924 -0.1620  0.0806 -0.0531
27586W        W46440  18.202  17.861   0.306  0.0016 -0.0537  0.1202
27587W        W46441   8.186  11.814   2.977 -0.2312 -0.1670 -0.0703
27588W        W46442  17.241   6.949  12.188  0.1960 -0.1091  0.1840
27589W        W46443   9.971   5.968   2.905 -0.1659 -0.2730  0.1253
27590W        W46444   8.865  15.257   1.072 -0.1106 -0.0588 -0.3169
27591W        W46445   5.866   2.476  14.779  0.0710 -0.0054  0.0270
27592W        W46446  10.663   4.177  13.360 -0.4136 -0.2517  0.0157
27593W        W46447   5.457  16.468  12.209  0.0117 -0.0028 -0.1179
27594W        W46448  10.889   6.953   4.105 -0.0303 -0.1605  0.0416
27595W        W46449   0.366  15.864   2.740 -0.0477  0.0960  0.1268
27596W        W46450   5.636  12.765   4.444  0.1495 -0.2083 -0.0462
27597W        W46451   6.005  17.390  13.304  0.1169  0.2207 -0.4748
27598W        W46452  14.355   6.844  14.333  0.0749 -0.2314 -0.1365
27599W        W46453  17.001  11.682  12.383 -0.0585 -0.0031 -0.1151
27600W        W46454   9.245  18.623  15.063  0.0382 -0.0311 -0.1617
27601W        W46455  18.719   1.822  12.519 -0.2492  0.4525  0.1301
27602W        W46456   0.008  18.180  12.246  0.2347  0.1198 -0.1410
27603W        W46457  12.500  10.338   4.701  0.0884 -0.1029  0.1419
27604W        W46458  13.474  11.909  13.496 -0.2295  0.0343 -0.1167
27605W        W46459   3.308  15.728   1.571 -0.0914  0.0394  0.0223
27606W        W46460  14.520   5.404  13.626 -0.2119  0.0353  0.0395
27607W        W46461  10.317   1.472  11.558  0.1733 -0.3497  0.1579
27608W        W46462   0.470   6.698  13.934  0.0839 -0.0940  0.0720
27609W        W46463  10.248   2.396  14.254 -0.0367 -0.2032 -0.1618
27610W        W46464   6.893  11.905  11.563 -0.0663 -0.0127 -0.2799
27611W        W46465   0.203   7.079  14.174 -0.0739  0.1088 -0.2017
27612W        W46466   7.757  14.440   1.412  0.3588 -0.0966  0.0539
27613W        W46467  10.513   7.344  11.945 -0.2212 -0.3020 -0.0627
27614W        W46468   9.138  15.078   0.354  0.2799  0.0277 -0.0444
27615W        W46469  17.513   9.353   3.501  0.0473 -0.2058 -0.1456
27616W        W46470  18.345  13.908  11.553 -0.1288 -0.1849 -0.0491
27617W        W46471  17.194  11.313   4.543 -0.0171  0.2307 -0.2802
27618W        W46472   6.346  15.610  12.935 -0.1941  0.0093  0.0169
27619W        W46473   8.952  11.353   0.391 -0.5623  0.0705  0.2261
27620W        W46474   1.971  11.968   0.461  0.2634  0.0437  0.0804
27621W        W46475   9.158   7.093   0.283  0.2386 -0.1066  0.2451
27622W        W46476  11.502   3.457   3.618  0.1935 -0.2817 -0.1356
27623W        W46477  18.595   1.043  13.913 -0.3280  0.3432 -0.2344
27624W        W46478   0.917   9.223   1.817 -0.2674  0.4027  0.1329
27625W        W46479   9.467   2.275   4.533  0.3122  0.2551 -0.4225
27626W        W46480   3.173  16.091   0.758  0.0596 -0.1045 -0.0034
27627W        W46481   0.274   0.967  12.629  0.1990 -0.0375  0.0356
27628W        W46482  12.782   7.798   4.902 -0.0577  0.3407 -0.0065
27629W        W46483  11.095   4.169   0.222 -0.0528 -0.0639 -0.2025
27630W        W46484   1.737   0.111   3.399  0.4585 -0.0824  0.0866
27631W        W46485  10.962   3.920  13.102  0.4649  0.1956 -0.0733
27632W        W46486   7.846   3.830   0.094 -0.0702  0.1102 -0.2703
27633W        W46487  14.788  16.690  12.776  0.0188  0.1233 -0.2789
27634W        W46488  17.523  18.128   1.503  0.0075  0.1193 -0.0920
27635W        W46489  18.719  10.955   0.287  0.1965 -0.1654 -0.4979
27636W        W46490  17.141   3.581   3.752 -0.0060  0.2222 -0.0414
27637W        W46491   7.146  16.675   2.709  0.0818  0.1281 -0.1947
27638W        W46492  18.227   8.202  10.972  0.3613 -0.0816 -0.1852
27639W        W46493   3.080  10.630   0.136  0.3404  0.2519  0.0221
27640W        W46494   2.052   0.441   1.907 -0.0749 -0.1720  0.0318
27641W        W46495   8.765  16.415   4.307  0.2056 -0.3645 -0.4729
27642W        W46496  18.327  16.702   3.188  0.1861 -0.0976  0.1954
27643W        W46497   8.445  13.684  11.999  0.0874  0.1607  0.0748
27644W        W46498   2.321  16.610   3.406  0.1419  0.0448  0.2967
27645W        W46499   2.697  13.089  12.858 -0.1548  0.0402  0.0657
27646W        W46500  12.344   4.571   0.197 -0.0097 -0.1027 -0.1105
27647W        W46501  11.885   5.494   0.975 -0.0718 -0.2105 -0.0195
27648W        W46502  16.744   3.584  10.838  0.2170 -0.0091 -0.0278
27649W        W46503   2.838   5.142   3.246 -0.4455  0.0738  0.2266
27650W        W46504  15.554  17.001  12.453  0.5452 -0.0024  0.1875
27651W        W46505   5.596  14.011   1.172 -0.1144  0.1058 -0.0974
27652W        W46506   4.718  13.250  13.806  0.1379  0.0378 -0.3738
27653W        W46507  14.312  13.836   3.238 -0.5272  0.1531  0.1091
27654W        W46508  11.385  13.300  11.248 -0.2339  0.2015 -0.2504
27655W        W46509  11.185  15.954   4.992  0.2661 -0.0557 -0.1384
27656W        W46510   4.841   0.652  11.511  0.1404  0.2989 -0.1243
27657W        W46511  10.819  10.071  13.138  0.0675 -0.0866  0.4292
27658W        W46512   3.651   3.679   0.634  0.0094  0.0212 -0.0855
27659W        W46513  17.132   8.171  13.579 -0.0733 -0.0947 -0.1543
27660W        W46514   4.593   6.065  13.360 -0.1047  0.0533 -0.2170
27661W        W46515   2.051   2.959  12.115 -0.0270  0.2042  0.1379
27662W        W46516   7.458  12.836  12.408  0.1569 -0.3839 -0.1346
27663W        W46517   1.006   1.987   0.820  0.0956 -0.2748 -0.0693
27664W        W46518  14.969   0.254   2.795  0.0367  0.0674 -0.0794
27665W        W46519   4.220   2.947  13.753 -0.2325  0.0575  0.1855
27666W        W46520  14.063  13.806  12.746  0.0469  0.2329  0.0920
27667W        W46521  18.151   5.415  14.613  0.3283  0.0817  0.3458
27668W        W46522   5.295   7.267  11.518 -0.3261  0.0611 -0.0048
27669W        W46523  12.307  17.803   3.934 -0.0089  0.3148  0.0614
27670W        W46524   8.631   4.075  13.531 -0.0482  0.1414  0.0883
27671W        W46525  17.905   5.990   1.460 -0.0779  0.1513 -0.0437
27672W        W46526  15.625  11.914   1.194 -0.0237 -0.1227 -0.0821
27673W        W46527  16.873  12.482  12.614 -0.0245  0.0367  0.2389
27674W        W46528   6.258  17.567  13.921 -0.0046  0.0651  0.0818
27675W        W46529   9.255   0.229   2.495 -0.2422  0.0106  0.5225
27676W        W46530  15.701   7.693  12.215  0.2091 -0.0389  0.0691
27677W        W46531   7.183   1.204  14.630  0.3342 -0.1122  0.0176
27678W        W46532  14.718   0.791  12.760 -0.2219 -0.0633  0.0228
27679W        W46533  10.721   3.320   1.114 -0.0424 -0.1524  0.0551
27680W        W46534   4.518  18.270   2.839  0.1730  0.1412  0.3016
27681W        W46535  14.027  15.147  10.470  0.2208  0.1736 -0.1559
27682W        W46536   6.205   0.884   0.242  0.3099 -0.0946 -0.0558
27683W        W46537   7.187   3.712   0.859 -0.0049 -0.0744  0.2394
27684W        W46538  11.079   3.863   4.092 -0.4579  0.2254  0.1268
27685W        W46539   0.850   1.600  12.158  0.2598 -0.0151  0.1255
27686W        W46540   3.249  17.505  14.417  0.0989 -0.2748 -0.2166
27687W        W46541  14.237  16.986   9.856 -0.2206  0.1314 -0.1178
27688W        W46542   8.965   5.519   2.434  0.1745  0.1273 -0.0014
27689W        W46543   2.708  15.193   3.887  0.0996  0.0133 -0.0111
27690W        W46544  16.375   4.820   0.327  0.0699 -0.1401  0.1115
27691W        W46545   8.630   2.594  12.886 -0.1618 -0.2147  0.0446
27692W        W46546  15.386   9.872  10.887  0.0704  0.3168 -0.0336
27693W        W46547  18.543  15.332  10.593  0.3487 -0.1313 -0.3227
27694W        W46548  12.365   0.713   4.441 -0.3495 -0.0458 -0.1186
27695W        W46549  10.262  12.857   2.342  0.2359  0.1772  0.0526
27696W        W46550  14.832   8.691   4.763 -0.1032 -0.3219  0.2735
27697W        W46551   8.882  13.278   2.079 -0.1223 -0.1518 -0.2701
27698W        W46552   5.772  13.904   2.755  0.3778 -0.1837 -0.1214
27699W        W46553  14.838   9.311   1.615  0.1708 -0.1160 -0.1828
27700W        W46554  15.842  16.356   1.571 -0.0385  0.2451  0.0361
27701W        W46555  17.484  17.919  13.176 -0.4859  0.0702 -0.2275
27702W        W46556  10.368   9.039   3.591  0.1063  0.1617 -0.3020
27703W        W46557  12.314   7.263   1.391  0.0079 -0.0840 -0.1072
27704W        W46558   8.573  14.252  11.225 -0.0630 -0.0717  0.0983
27705W        W46559  11.383   0.795  12.808 -0.1459  0.3703  0.0506
27706W        W46560   5.816   1.585   1.468 -0.0074  0.1426  0.1175
27707W        W46561   2.646   3.582  10.933 -0.1076  0.1241 -0.3298
27708W        W46562  12.564   4.945  13.733 -0.0461 -0.1672 -0.0877
27709W        W46563  15.258   7.098  14.285 -0.1783 -0.2424 -0.0319
27710W        W46564  11.665  14.952  14.486  0.0670 -0.1149  0.1087
27711W        W46565  16.482   6.631   2.604  0.1912 -0.0443  0.1159
27712W        W46566  10.044  10.505   0.858  0.1190  0.1167 -0.2367
27713W        W46567  11.671   6.521   1.081 -0.2085  0.1156  0.0980
27714W        W46568  10.786  10.181   2.218 -0.1820  0.1170  0.2959
27715W        W46569  17.618  16.270   3.532 -0.0132  0.0443 -0.0051
27716W        W46570  13.502  15.133   2.345  0.1167 -0.1113 -0.1586
27717W        W46571   7.053  18.074   4.216  0.0951  0.0583 -0.0280
27718W        W46572  10.594   4.728   2.815  0.0025 -0.0609 -0.0139
27719W        W46573   0.255  10.660  14.218  0.1845 -0.0228 -0.2120
27720W        W46574  18.236   9.269  12.486  0.0053  0.1018 -0.1198
27721W        W46575  13.080  14.818   0.999  0.0567  0.1081 -0.0838
27722W        W46576  13.585   5.914   5.713  0.4083  0.2551 -0.0958
27723W        W46577   3.669  14.546  12.665  0.3025  0.0255  0.1449
27724W        W46578  18.061   0.407  10.937 -0.0912 -0.1803 -0.1756
27725W        W46579   7.138   0.509  12.705 -0.1922 -0.0128 -0.1663
27726W        W46580   4.552   5.834   3.927 -0.0013  0.2587 -0.1664
27727W        W46581   4.459   7.523  10.117  0.1679  0.2319  0.2115
27728W        W46582  12.358   9.764   3.035 -0.3718 -0.1489 -0.0889
27729W        W46583   9.487   3.023  11.318 -0.0146  0.0586 -0.1027
27730W        W46584   7.924   0.194  12.205  0.0816  0.1118 -0.1139
27731W        W46585   7.040  12.506   3.630 -0.1116  0.0585 -0.1309
27732W        W46586  14.795   1.053   1.357 -0.1466  0.1847 -0.1636
27733W        W46587   2.027  18.705   3.812  0.0015 -0.1770  0.3194
27734W        W46588   4.158  16.945  14.343  0.0714 -0.3589 -0.0541
27735W        W46589   0.092  11.109   0.713  0.0612 -0.0436 -0.3650
27736W        W46590   7.780  14.374   2.429  0.1865  0.3540  0.2227
27737W        W46591   9.771  11.048   1.229  0.1822  0.0640  0.0466
27738W        W46592   2.269  12.325  12.445 -0.1311 -0.3495  0.1363
27739W        W46593  11.633   3.740   0.732 -0.1704  0.1416  0.0784
27740W        W46594   9.973  12.332  12.090  0.2898  0.3337  0.2978
27741W        W46595  10.605  18.185   2.394  0.1425  0.0382 -0.0450
27742W        W46596  17.188   9.201  13.336  0.0808  0.2207 -0.0076
27743W        W46597   6.440  10.930  10.657 -0.2730  0.0604 -0.1324
27744W        W46598  15.908  17.319  11.288  0.0061 -0.2386  0.0465
27745W        W46599   1.152   7.381   3.092 -0.1178 -0.2953 -0.0273
27746W        W46600   6.963   8.620   3.018  0.0599  0.3267 -0.1726
27747W        W46601  10.696  18.650   2.755  0.2191 -0.1057  0.0438
27748W        W46602  17.165   2.063  13.404 -0.0350  0.1559  0.0891
27749W        W46603   9.349   7.988   2.053 -0.0882  0.1796 -0.1626
27750W        W46604   2.905   8.929   2.525 -0.2015 -0.0090 -0.0244
27751W        W46605  12.157   1.976   1.295  0.2489  0.0382 -0.3018
27752W        W46606  11.862  17.633   3.654 -0.1990  0.1969  0.2868
27753W        W46607  13.146  17.561  12.634 -0.3632  0.2449 -0.0266
27754W        W46608   3.820   1.359  12.207  0.1498 -0.1665  0.0454
27755W        W46609   8.966  15.869   2.815  0.1962  0.1436  0.5855
27756W        W46610  16.180   7.502  14.976  0.0617 -0.2106  0.0313
27757W        W46611   7.333   7.071   1.193  0.0547 -0.0716  0.1843
27758W        W46612  10.607   5.340  14.614 -0.0742  0.3698  0.0075
27759W        W46613   9.212  14.124   1.350 -0.0210  0.0443  0.0918
27760W        W46614   7.508  18.127   0.402  0.2106  0.2219 -0.1690
27761W        W46615   1.391   8.099   1.882  0.0476  0.2592  0.1510
27762W        W46616   9.056  16.644  12.232  0.0420 -0.1842  0.2227
27763W        W46617  14.683  12.582   3.818 -0.1037 -0.1826 -0.0437
27764W        W46618   3.880  11.041   1.439 -0.0272 -0.2270 -0.1560
27765W        W46619   0.234  17.961  14.186  0.0340  0.0675  0.0818
27766W        W46620  14.657  14.956   3.478  0.1117 -0.2171 -0.2594
27767W        W46621  15.617  17.423   5.155 -0.3144 -0.0464 -0.0272
27768W        W46622  12.255  12.853  12.525  0.1726 -0.0198 -0.1434
27769W        W46623   7.149  13.052  12.813 -0.3227 -0.0872 -0.5346
27770W        W46624   8.650  18.085  14.154  0.0933 -0.2450  0.1882
27771W        W46625   6.677  17.014  11.590 -0.0187  0.1662  0.3476
27772W        W46626   9.204   1.415   3.419  0.1502 -0.0613 -0.0648
27773W        W46627  10.826  15.224   1.454  0.2380  0.1616 -0.3797
27774W        W46628   9.002   7.491  12.023 -0.2420 -0.0153  0.1792
27775W        W46629  10.490   9.535   3.961 -0.1948  0.0822  0.0603
27776W        W46630  14.872   7.188   2.010  0.4577  0.2135  0.2288
27777W        W46631  18.484   0.737  11.159 -0.3516 -0.0840  0.2435
27778W        W46632   7.936   5.128  14.504 -0.0904 -0.0023 -0.0901
27779W        W46633  18.284   4.365   3.180 -0.2809 -0.3126 -0.1957
27780W        W46634   6.234   1.036   2.786 -0.3397  0.3520 -0.0986
27781W        W46635   5.009   3.558  15.081 -0.1571  0.1309  0.0335
27782W        W46636   9.134  17.975  14.076  0.0883 -0.0996 -0.2632
27783W        W46637   1.274   3.581  15.080  0.0966  0.0014  0.3130
27784W        W46638  10.058   6.273  10.221 -0.1896 -0.0178 -0.4807
27785W        W46639  13.605   7.831  14.810 -0.4001  0.2374  0.1632
27786W        W46640  12.797  17.041  15.041  0.2276  0.0746 -0.1748
27787W        W46641  13.215  15.379   1.275 -0.0393 -0.1995  0.1379
27788W        W46642   8.360   9.637  11.303  0.0903 -0.0694 -0.1453
27789W        W46643   4.225   4.589   2.963  0.1279  0.0808 -0.1676
27790W        W46644  13.672  13.728  10.798  0.1313  0.0970 -0.3180
27791W        W46645   8.899   7.816  11.663  0.0288 -0.2003 -0.1802
27792W        W46646  11.274  15.323  11.398 -0.1488  0.4162 -0.1220
27793W        W46647   1.174  11.665   3.342  0.0858  0.0905  0.2152
27794W        W46648  12.715   3.634   0.170 -0.1399 -0.1975  0.2245
27795W        W46649  17.958   7.231  13.695 -0.1402 -0.3071 -0.0257
27796W        W46650   0.724   3.993  12.800 -0.0454 -0.1912 -0.4361
27797W        W46651  13.035   7.648   2.484 -0.4236 -0.1458 -0.0025
27798W        W46652  16.141  13.548  12.640 -0.1006 -0.1807 -0.1027
27799W        W46653  11.145  15.828  14.506  0.0956  0.1664  0.0929
27800W        W46654  18.197  10.043  10.976  0.2661 -0.4679 -0.1128
27801W        W46655   7.170   9.220  13.699 -0.0876 -0.1252 -0.1101
27802W        W46656   2.762   6.263  14.466 -0.0080 -0.1554  0.0875
27803W        W46657   7.268   1.709   2.160 -0.1908  0.0077  0.1665
27804W        W46658  18.837  16.176   5.340 -0.0334  0.0919  0.2049
27805W        W46659   9.593   6.607  13.380  0.0680 -0.2071  0.2173
27806W        W46660   6.157   5.154   5.412 -0.3190 -0.1089  0.0222
27807W        W46661   4.066   5.888   1.778 -0.1756 -0.1651  0.3078
27808W        W46662   7.321  12.514  11.837  0.1721 -0.0166  0.0768
27809W        W46663  11.594  18.173  13.921  0.3789 -0.0874  0.1230
27810W        W46664  14.273  15.832   4.567  0.0534 -0.3402  0.1879
27811W        W46665   8.584   8.292   3.108  0.0102  0.3314 -0.0067
27812W        W46666   5.604   0.983  10.062 -0.1023  0.1232 -0.0889
27813W        W46667  15.138  13.724  10.201 -0.2221 -0.2474  0.2341
27814W        W46668   6.766  18.338   5.130 -0.3147  0.1464 -0.0547
27815W        W46669   7.660  15.128  13.614 -0.1183  0.0886 -0.0902
27816W        W46670   4.035  17.152  13.117 -0.1485  0.0921 -0.0334
27817W        W46671   4.664  11.015   4.126 -0.1562  0.1016 -0.1609
27818W        W46672   9.460   1.488  12.849 -0.0435  0.2179 -0.0328
27819W        W46673   8.132   9.378  13.568  0.0041 -0.2339 -0.1993
27820W        W46674   1.990   7.766  12.681  0.1724 -0.0562  0.0628
27821W        W46675   8.355   3.510   1.245 -0.3389  0.3746 -0.1097
27822W        W46676   9.151  16.318   2.605  0.0118 -0.2624  0.3711
27823W        W46677   5.838  18.603   0.729 -0.1491  0.2655  0.0604
27824W        W46678  12.864   8.197  13.502 -0.1346 -0.2105 -0.4433
27825W        W46679  15.188   8.095   1.122 -0.1133 -0.5196  0.1344
27826W        W46680   4.810  11.438  13.355 -0.1882 -0.0568  0.0755
27827W        W46681  13.732  14.219  12.845  0.0336 -0.0757 -0.1788
27828W        W46682   9.941  10.440   3.415  0.0786  0.2553  0.0838
27829W        W46683   8.356  17.094   9.655 -0.0891 -0.2177  0.1412
27830W        W46684   5.583  17.933   3.509 -0.0890  0.3695  0.0790
27831W        W46685   6.153   4.301   0.312  0.4625  0.0533 -0.1212
27832W        W46686  10.780   7.546   1.937  0.0149 -0.1992  0.0286
27833W        W46687  12.073   7.366   0.569 -0.0974 -0.0093 -0.0186
27834W        W46688   2.030  13.423   4.043  0.0710 -0.0186  0.2644
27835W        W46689   0.752   7.616   2.215  0.1420 -0.1150 -0.0779
27836W        W46690   0.640  13.594   4.045 -0.0659 -0.0047 -0.2835
27837W        W46691  17.777   0.161   2.967 -0.0556 -0.2204 -0.0010
27838W        W46692   9.227  16.195   4.079 -0.1448 -0.0349  0.0951
27839W        W46693  13.877   5.354  14.995 -0.0839  0.4254  0.1977
27840W        W46694  16.685   5.352  13.759 -0.0361 -0.1190 -0.2098
27841W        W46695  12.633  18.216   0.444 -0.0813 -0.0303  0.0259
27842W        W46696   5.671  14.476   3.621  0.0691  0.0569  0.1539
27843W        W46697  11.381   3.381   4.141  0.0913 -0.0689 -0.3844
27844W        W46698  18.292  12.602  13.211  0.0466 -0.0004  0.0785
27845W        W46699  11.169   9.037   4.178  0.1315  0.1212 -0.1366
27846W        W46700   0.961   3.708  13.811 -0.1839  0.0673  0.2479
27847W        W46701  15.494  14.936  12.562 -0.3405  0.0749 -0.1470
27848W        W46702   5.353  13.629   9.606 -0.0044 -0.0197 -0.0366
27849W        W46703  12.375  18.528  12.438 -0.0084  0.0167  0.2694
27850W        W46704  11.581   0.719  13.287  0.0053 -0.2708 -0.0130
27851W        W46705  12.809  15.000  11.267 -0.1729  0.0683 -0.0110
27852W        W46706  16.139   1.014   4.172 -0.1005  0.1357 -0.0592
27853W        W46707  17.925   6.596   0.069  0.1973  0.1276  0.2579
27854W        W46708  14.189  13.576  12.295  0.5209  0.0970 -0.5880
27855W        W46709  12.358  13.769   3.104 -0.1717  0.2752 -0.1615
27856W        W46710   5.482   6.401   2.064  0.0701 -0.1161 -0.0351
27857W        W46711  13.806   5.185   4.702 -0.1398 -0.2218  0.1096
27858W        W46712  17.418  16.098  13.033 -0.1789 -0.0923  0.1010
27859W        W46713   8.123  13.412   2.485 -0.0524  0.2548  0.0906
27860W        W46714   7.432  17.829   4.037  0.2282 -0.0784  0.2330
27861W        W46715  12.404   3.737  12.561  0.2201 -0.2287  0.1001
27862W        W46716   4.868   0.206  13.095 -0.2832 -0.1497 -0.3262
27863W        W46717  11.974  10.106  11.857 -0.2208  0.0118  0.0516
27864W        W46718   7.528  11.800  14.678  0.0097 -0.0945 -0.1013
27865W        W46719  17.517   9.702   1.957  0.0778  0.1107  0.1219
27866W        W46720  18.552  10.499   9.395  0.0814 -0.2519  0.3175
27867W        W46721   0.376  12.476  11.257 -0.0837 -0.3044 -0.0215
27868W        W46722  13.978  13.586   2.526 -0.2388 -0.1312 -0.0250
27869W        W46723   0.310   0.539   1.445  0.0480  0.2197 -0.2491
27870W        W46724  18.526  15.459   2.099  0.0742 -0.2466 -0.2299
27871W        W46725  13.434   6.180   0.499 -0.1870  0.3074 -0.0549
27872W        W46726   3.838   6.377   2.782  0.0628 -0.0672  0.2875
27873W        W46727   7.598  11.175  13.820  0.2282 -0.1926  0.0122
27874W        W46728   3.946   0.920   3.365 -0.0309 -0.1272 -0.1432
27875W        W46729   6.994   5.490   1.515  0.0480  0.1718 -0.2212
27876W        W46730  11.425   0.316   3.313 -0.2053  0.0528 -0.0221
27877W        W46731  11.787  14.497  14.805 -0.3145  0.0082 -0.2790
27878W        W46732  12.944  12.516   0.629 -0.2241  0.0166 -0.0308
27879W        W46733   0.020   9.507   9.564  0.0657  0.0774 -0.2726
27880W        W46734   4.047  16.234   3.590 -0.2711  0.0225 -0.1073
27881W        W46735   8.358   6.091   1.576 -0.0516  0.1403 -0.1596
27882W        W46736   5.823   5.584  14.113 -0.4097  0.2676 -0.1560
27883W        W46737  16.006   3.784   2.496 -0.0585 -0.0992 -0.0380
27884W        W46738   7.498   7.175  11.938 -0.1325  0.0287  0.0153
27885W        W46739   7.609   5.985  12.522 -0.0645  0.3540  0.2349
27886W        W46740   9.777   0.788   4.014  0.2539  0.2691  0.3442
27887W        W46741   5.476   0.849   0.176  0.1434 -0.0296 -0.0679
27888W        W46742   9.334   0.834  13.548  0.0755 -0.2546  0.1811
27889W        W46743  15.147   3.577  14.931  0.0712  0.0791  0.2645
27890W        W46744  10.392   5.445   3.624 -0.1645  0.0703  0.1595
27891W        W46745   7.038   8.789   1.884  0.0631 -0.2379 -0.0666
27892W        W46746  10.232  14.392   1.787  0.1394 -0.0621  0.1791
27893W        W46747   6.157  10.256  14.201 -0.0015 -0.0711 -0.2456
27894W        W46748  13.073   3.554  12.146 -0.0439 -0.0704  0.0707
27895W        W46749  14.140  12.020  11.402 -0.1964 -0.0820  0.0910
27896W        W46750  12.411   9.483   1.761  0.3470  0.1564  0.0393
27897W        W46751   8.165  11.556   0.155  0.0832 -0.1305 -0.0615
27898W        W46752   7.054   8.273  11.114  0.1132 -0.1800  0.1278
27899W        W46753   2.002   9.753   0.532  0.2419 -0.0581 -0.1424
27900W        W46754   5.615   7.926   0.504 -0.1110  0.1744 -0.1335
27901W        W46755  18.225   0.478   1.590  0.0392 -0.1480 -0.0976
27902W        W46756   5.221   9.607   4.687  0.0233  0.2548  0.0339
27903W        W46757   5.137   3.867  13.856  0.3351 -0.3438  0.0688
27904W        W46758  18.186  15.526  14.015 -0.0125 -0.2319  0.0740
27905W        W46759   1.730  10.913   0.809 -0.1061  0.2776 -0.0280
27906W        W46760  16.502  11.791  11.884 -0.0581  0.0931  0.1000
27907W        W46761   9.047   1.240   3.909  0.0087 -0.2350 -0.0891
27908W        W46762   6.528   3.595  12.523  0.0984  0.0969 -0.1071
27909W        W46763  17.379   4.227  13.604  0.0288 -0.6509  0.1544
27910W        W46764   1.845   9.594  10.683  0.1209  0.0890  0.3314
27911W        W46765  15.088   2.568   1.387  0.1386  0.0216 -0.3898
27912W        W46766  17.371  12.845  10.999 -0.0144 -0.1131  0.2309
27913W        W46767  14.425   7.359  14.410 -0.1451 -0.0265  0.0084
27914W        W46768  16.829   1.534  12.222  0.2041 -0.0312 -0.1561
27915W        W46769  17.532   0.231  14.670  0.0251 -0.3248  0.3995
27916W        W46770   0.229   4.537   1.642 -0.2885 -0.1545 -0.0235
27917W        W46771   2.692   7.177   1.243  0.1057  0.1055  0.3973
27918W        W46772  16.956  14.303   2.842  0.2396 -0.1484 -0.0425
27919W        W46773  13.151   9.601   2.611 -0.1103  0.1898  0.0598
27920W        W46774   5.177  15.159   3.213 -0.2179 -0.1008  0.2531
27921W        W46775  17.515  15.543  14.354  0.3612  0.0750  0.7176
27922W        W46776  13.388   7.448  13.394  0.0367  0.0315  0.2136
27923W        W46777  18.832   2.327  12.636 -0.1911  0.0983 -0.2508
27924W        W46778   5.624   6.478   3.500 -0.3005 -0.0691  0.1406
27925W        W46779   3.435   7.852   2.042  0.2894  0.0573  0.0560
27926W        W46780  16.531   9.790   3.726  0.1309 -0.2038 -0.0054
27927W        W46781  16.747   4.817  11.523 -0.2034  0.0281 -0.1405
27928W        W46782   7.346   9.650  13.928 -0.2239  0.0200 -0.1357
27929W        W46783   0.683   4.134  13.982 -0.0129 -0.1145 -0.1590
27930W        W46784  13.868  15.192   2.023  0.0008  0.1140 -0.1211
27931W        W46785   9.957   8.973   0.176 -0.3727  0.0704 -0.1650
27932W        W46786  10.990  13.497   3.470 -0.0531 -0.0998 -0.0529
27933W        W46787   2.738  13.572   9.533 -0.0210  0.2370  0.0646
27934W        W46788  15.927   1.501   1.942 -0.0408  0.0978  0.0545
27935W        W46789   1.100  13.538   0.400  0.0622  0.1099 -0.0784
27936W        W46790   5.687  15.402  14.444 -0.1339  0.0484  0.3913
27937W        W46791  18.205   4.065   4.080  0.1249 -0.0922 -0.0343
27938W        W46792  18.287  17.916  12.813  0.1169  0.0647 -0.0305
27939W        W46793   2.006   9.246   0.389 -0.2019 -0.0351  0.1149
27940W        W46794   2.919  11.859  12.124 -0.1123 -0.0512  0.2731
27941W        W46795   8.042  11.570  11.512 -0.0014 -0.1619  0.1346
27942W        W46796  16.287   4.817   0.878 -0.1788 -0.2071  0.1073
27943W        W46797   4.958   8.573   0.020  0.2523 -0.2008  0.0795
27944W        W46798  13.123  15.886  12.735 -0.0276  0.1520  0.0653
27945W        W46799   5.403   5.712   2.490  0.4256  0.1133 -0.0325
27946W        W46800   1.376  18.492  14.830 -0.0220 -0.1742 -0.1532
27947W        W46801  11.348   4.849  11.943 -0.3043  0.0638 -0.0242
27948W        W46802   2.146   2.531  14.209  0.1559 -0.0121 -0.0283
27949W        W46803   7.716   8.595   2.767  0.1097  0.0755  0.1979
27950W        W46804  18.738  13.210   0.285 -0.0361 -0.1090  0.0545
27951W        W46805   5.972  11.979   4.168  0.2397  0.1135 -0.0172
27952W        W46806   4.880  17.280   3.697 -0.0221  0.0863  0.0873
27953W        W46807   3.629  15.270  14.050 -0.0470  0.2749  0.1044
27954W        W46808   2.729  15.452   5.335 -0.1507 -0.2532  0.0256
27955W        W46809   3.455  14.373   2.639  0.2985  0.0603  0.0552
27956W        W46810   7.705  18.697  11.927 -0.2820 -0.0014 -0.1486
27957W        W46811  10.379  11.534   0.062  0.0556  0.3195 -0.0227
27958W        W46812   7.135   3.650   5.489 -0.0636 -0.0436  0.1509
27959W        W46813  13.489   4.719   0.482  0.4462  0.0052  0.0433
27960W        W46814  13.648   5.743  14.715 -0.2579  0.0597 -0.2381
27961W        W46815  16.414   2.416  12.918  0.0035  0.2293 -0.0947
27962W        W46816  16.735   5.859   1.627 -0.0281  0.4304 -0.2759
27963W        W46817  11.396  14.030  13.905  0.1967  0.0908 -0.1077
27964W        W46818  17.107  11.896   0.507 -0.2077 -0.1166 -0.1116
27965W        W46819   0.620   1.830   9.849  0.0922 -0.0420 -0.2157
27966W        W46820   8.150   8.300   2.785  0.2669 -0.0803 -0.0187
27967W        W46821  14.651   2.996  11.520 -0.4027 -0.0538 -0.2027
27968W        W46822  15.238  15.201  11.200 -0.0769  0.0325 -0.0423
27969W        W46823  11.429  18.552  11.085 -0.2651 -0.2468  0.0484
27970W        W46824  17.702  11.877  11.354  0.2278 -0.1153  0.0279
27971W        W46825   9.550   4.656   2.468 -0.1122  0.1995 -0.1500
27972W        W46826  12.810   1.541  14.528  0.0804  0.1012 -0.1166
27973W        W46827  10.509   4.619   1.328  0.1907 -0.0298 -0.0365
27974W        W46828  12.106   5.346   1.757 -0.0152  0.0792  0.2200
27975W        W46829   8.333  17.646   3.292 -0.1037 -0.0611  0.0322
27976W        W46830  15.613   9.441  13.960 -0.2919 -0.0509  0.2835
27977W        W46831  18.739  14.034  12.175 -0.1947 -0.4896 -0.1768
27978W        W46832   1.959   2.657   0.725  0.0353 -0.0577 -0.2943
27979W        W46833   4.966   5.911   4.867 -0.0452 -0.0705  0.0249
27980W        W46834   5.026   1.456   2.005  0.2811  0.0690  0.0558
27981W        W46835   5.038   4.600   0.936 -0.2912  0.0036 -0.3425
27982W        W46836  15.062   5.273   4.162 -0.1632 -0.2063 -0.0532
27983W        W46837   9.997   7.004  12.566 -0.1988  0.2060  0.2356
27984W        W46838   4.805   0.064   2.057  0.1984 -0.2320  0.2320
27985W        W46839  14.913  14.311  12.807  0.2206 -0.2590  0.2999
27986W        W46840   3.496   2.936  11.115 -0.0495  0.5098  0.0315
27987W        W46841  14.086  10.606   1.392 -0.2471  0.1230 -0.0169
27988W        W46842  15.693  14.086   3.991  0.0734 -0.0531 -0.2368
27989W        W46843  14.886  12.661   0.482  0.2091  0.1345 -0.1912
27990W        W46844   8.682  17.742  12.452  0.1307 -0.3141  0.0691
27991W        W46845   3.424  11.021  11.140 -0.2698  0.2187 -0.2934
27992W        W46846  18.327  15.329   2.505 -0.0158  0.1815 -0.0677
27993W        W46847   8.697  14.940  10.683 -0.0935  0.2715 -0.2157
27994W        W46848   7.186   2.589  15.099  0.1316 -0.1512 -0.0190
27995W        W46849   5.558   8.483  10.850 -0.1611  0.3301 -0.0281
27996W        W46850  14.298  10.882  14.638  0.4293  0.0985  0.0658
27997W        W46851  15.757  15.341   4.612 -0.3283 -0.1718  0.1189
27998W        W46852  10.108   8.547   0.894  0.3073 -0.3160  0.1311
27999W        W46853   1.862   4.552  10.758 -0.0765 -0.1135  0.1145
28000W        W46854   4.566   0.794  10.517  0.1051 -0.0402 -0.0830
28001W        W46855   4.051   7.251   1.900 -0.0359 -0.1095 -0.0636
28002W        W46856   7.128  18.512   0.388  0.0341  0.0622  0.4342
28003W        W46857   2.915   2.096   4.362  0.2051 -0.1580  0.3256
28004W        W46858  16.728  15.622   2.325 -0.0251 -0.1619 -0.1298
28005W        W46859   1.482   5.536  13.595  0.2179 -0.0875  0.0989
28006W        W46860   7.268  16.231   0.048  0.2433 -0.1152  0.0966
28007W        W46861   4.835   7.411  12.979  0.0083  0.1323 -0.1328
28008W        W46862   6.462  14.968   2.539 -0.4183  0.3598 -0.1346
28009W        W46863   6.032  10.254   2.712 -0.3118 -0.2201 -0.3103
28010W        W46864   8.577   8.360  14.396 -0.2046 -0.1270 -0.3812
28011W        W46865   3.541  17.410   4.104 -0.0251  0.0145  0.1690
28012W        W46866   7.209  11.398  14.031 -0.0414  0.2277  0.0685
28013W        W46867  17.189  18.795   3.385 -0.0831  0.0273 -0.0555
28014W        W46868   9.799  14.616   9.766 -0.0234  0.2787 -0.3774
28015W        W46869  13.891  11.339   1.416  0.0577  0.0203  0.0346
28016W        W46870   2.932   3.627   0.826 -0.0256 -0.0562 -0.0338
28017W        W46871  10.488   5.882  13.310  0.0924 -0.3423 -0.4197
28018W        W46872   0.071  15.532  12.448 -0.3103  0.1164 -0.1930
28019W        W46873   6.611   0.927  10.786  0.2865 -0.1892  0.0581
28020W        W46874   9.456  15.794  11.616  0.0218 -0.0800 -0.1932
28021W        W46875   9.298  11.478   2.396  0.0114 -0.0116 -0.1202
28022W        W46876   2.053  13.662  15.103  0.2269 -0.0182  0.1450
28023W        W46877   8.565   0.809  12.635  0.1181  0.2612  0.1197
28024W        W46878  12.502  15.709  13.384 -0.0133 -0.0458 -0.0317
28025W        W46879   2.048   4.271  12.623 -0.0606  0.0495  0.2184
28026W        W46880   3.819   1.761   2.592 -0.2207  0.2892  0.2170
28027W        W46881   3.121   6.177  13.641 -0.0514 -0.1595 -0.1064
28028W        W46882  15.738   3.028  12.374 -0.2369 -0.0330 -0.2187
28029W        W46883  18.747   0.865   3.706  0.1639  0.1501 -0.3632
28030W        W46884   2.268   1.247   0.733  0.0425  0.0516 -0.0103
28031W        W46885  11.301   3.810   2.027  0.0516  0.0065  0.2124
28032W        W46886  10.421  11.473   4.202  0.0788 -0.1143  0.0381
28033W        W46887   3.460   2.131   2.259 -0.0186  0.1776  0.0230
28034W        W46888  16.141  16.961   4.535 -0.3141  0.0430 -0.0446
28035W        W46889   2.007   4.183  11.069 -0.1020  0.1276  0.2697
28036W        W46890   5.144   7.959  14.289  0.1587  0.0728 -0.5429
28037W        W46891  14.772   3.076  13.848 -0.1352  0.3055  0.1004
28038W        W46892   7.881  16.713   1.641 -0.0787 -0.0516 -0.2544
28039W        W46893  15.852   3.061   3.373  0.0139  0.1297  0.0124
28040W        W46894   0.772   4.731  13.445 -0.0582  0.2063 -0.2333
28041W        W46895   3.042   8.166  12.018  0.0320 -0.0472 -0.3756
28042W        W46896  16.617  13.099   0.961 -0.4247  0.2039 -0.0464
28043W        W46897  14.801  10.438  12.238 -0.1622 -0.3641 -0.1098
28044W        W46898  11.282  15.815  11.481 -0.1704  0.1826 -0.0273
28045W        W46899  13.905  16.215   1.403 -0.2769  0.2676  0.2773
28046W        W46900  18.721  18.011   3.203  0.0854 -0.0158  0.2435
28047W        W46901  16.980   3.377  13.782 -0.1653  0.2888 -0.1542
28048W        W46902   7.259   1.291   3.920  0.0791  0.0266 -0.1626
28049W        W46903   4.970  14.861  12.742  0.3570  0.1756 -0.0035
28050W        W46904  10.465   1.910  12.975 -0.1518 -0.0310  0.2154
28051W        W46905  13.562   8.293   0.953  0.2308 -0.0868 -0.0298
28052W        W46906  12.064  12.624  10.810 -0.0258  0.0527  0.1490
28053W        W46907   1.527   0.052  11.503 -0.1516 -0.1613 -0.1561
28054W        W46908  11.676   6.027   4.876  0.2467  0.1909  0.0625
28055W        W46909  10.615   0.922  13.319  0.2258 -0.0776  0.2311
28056W        W46910   7.357   5.942   3.893 -0.0009  0.2897 -0.0064
28057W        W46911   7.505  16.056  10.639 -0.0636 -0.0499  0.0202
28058W        W46912   8.265   3.789  14.684  0.4490 -0.1941 -0.0198
28059W        W46913  13.033   6.180  10.829  0.1096 -0.3453  0.0420
28060W        W46914  11.041  18.439  12.136  0.1980 -0.0394  0.0505
28061W        W46915   2.909   5.926   2.833 -0.3705 -0.2014  0.0141
28062W        W46916  12.781  15.009  13.931 -0.1388 -0.0779  0.0400
28063W        W46917   3.103  12.711  12.089 -0.0843 -0.0597 -0.1370
28064W        W46918   6.455   3.865   0.129  0.0644  0.0363  0.0762
28065W        W46919  15.126  13.629  11.195 -0.0027  0.0658  0.0533
28066W        W46920  11.668   6.518   4.181  0.0455  0.0953  0.4134
28067W        W46921  16.281   0.121  13.464 -0.0182  0.1784  0.1699
28068W        W46922   4.915  11.990  11.785  0.2258 -0.5539  0.3472
28069W        W46923   9.956  10.894  12.133 -0.1870 -0.2783  0.3474
28070W        W46924   5.509  11.894  12.467 -0.0262 -0.0642 -0.1187
28071W        W46925  15.090   8.200   4.252 -0.1520  0.0991 -0.2992
28072W        W46926   6.306  14.341  11.782  0.0400 -0.0164  0.1685
28073W        W46927  17.472  18.295   0.593 -0.3064 -0.2309  0.2300
28074W        W46928   2.176  18.287  13.638 -0.1456 -0.0440  0.2709
28075W        W46929  18.105   3.142   3.046  0.2168  0.1022  0.2508
28076W        W46930  17.097  13.017  11.822 -0.3163 -0.0377 -0.1705
28077W        W46931  10.096  15.365   4.872 -0.1621  0.0679  0.1351
28078W        W46932   3.640   5.708   1.478 -0.1681  0.1640 -0.0793
28079W        W46933  13.686  13.133  11.921 -0.2172 -0.1090  0.2149
28080W        W46934   9.945  18.433  13.755 -0.2424  0.1822 -0.0017
28081W        W46935   7.564   5.576   3.163  0.0465  0.3335  0.0435
28082W        W46936  10.391   5.041   1.132  0.1299  0.1777  0.0258
28083W        W46937  18.734   9.191  14.537 -0.1027 -0.1993  0.0414
28084W        W46938  15.547   1.411  11.859  0.0313 -0.0924 -0.0292
28085W        W46939   7.255   6.701   2.102 -0.2907 -0.0665  0.0479
28086W        W46940   8.740  18.083   3.763  0.1107  0.0947  0.1547
28087W        W46941  13.229   9.295   2.114  0.1207 -0.0792  0.0530
28088W        W46942   0.178   5.340  12.683  0.0616  0.1728 -0.0824
28089W        W46943   2.712  16.846  13.507  0.0170  0.0759  0.1569
28090W        W46944  15.158  14.965   2.191  0.1182  0.1484 -0.1219
28091W        W46945  10.920  18.648   9.650 -0.1292  0.1959  0.0426
28092W        W46946  17.465   2.606   2.042 -0.1969 -0.2822  0.2908
28093W        W46947   4.131  11.617  14.856 -0.0967  0.0751  0.0916
28094W        W46948  15.446   3.051  14.433  0.1894  0.1363  0.0073
28095W        W46949   7.389  10.991   2.435 -0.0299  0.0858  0.2513
28096W        W46950   2.851   0.910   2.709  0.3287  0.0071 -0.1470
28097W        W46951   5.054  17.495  10.282 -0.0098 -0.1022 -0.0595
28098W        W46952   6.415  16.279   2.986 -0.1451 -0.2527 -0.0408
28099W        W46953   2.737   0.415   2.658  0.0011  0.0633  0.3532
28100W        W46954   5.344  17.697   2.587  0.1427  0.3416  0.3304
28101W        W46955   2.811  11.717   1.572  0.0351 -0.4041  0.0875
28102W        W46956   8.186  12.425   0.676  0.2508 -0.0138  0.2208
28103W        W46957   2.309  10.168   1.236  0.2776  0.1936 -0.2410
28104W        W46958   7.258   9.148  11.256 -0.1134  0.0146  0.1868
28105W        W46959   3.318   7.371  12.025  0.2489  0.0487 -0.2475
28106W        W46960  13.328  13.194  13.633  0.0632  0.1054  0.2706
28107W        W46961  16.410   6.606  14.408  0.0500  0.3748 -0.2663
28108W        W46962   9.381   5.661   4.798 -0.0221  0.3238 -0.1007
28109W        W46963  15.599  11.233  14.382 -0.0580  0.2980 -0.0307
28110W        W46964   1.123  15.439  13.649  0.1716 -0.2775  0.1598
28111W        W46965   0.459  11.480  12.458 -0.0600 -0.0794 -0.0629
28112W        W46966  17.655   1.855  11.921 -0.1328  0.0312  0.5494
28113W        W46967  17.075  13.280  12.382 -0.2933 -0.2554 -0.2317
28114W        W46968  16.712   4.728   3.987 -0.0014 -0.2541 -0.1646
28115W        W46969   1.277   2.456   3.331  0.4155  0.2229 -0.0996
28116W        W46970  16.583   8.975   3.564 -0.0327  0.2552 -0.0176
28117W        W46971   4.039   2.015  14.043 -0.3369 -0.1152  0.2003
28118W        W46972   8.119  15.786  14.182 -0.2298 -0.0672 -0.0461
28119W        W46973   5.800   6.234  14.888  0.3401 -0.2066 -0.0942
28120W        W46974  17.132   4.483   1.277 -0.1129  0.1025 -0.2949
28121W        W46975  13.645  13.953   3.240  0.0868  0.0549  0.0281
28122W        W46976  18.062  10.152  12.400  0.3389 -0.2838  0.1539
28123W        W46977  13.350   7.179   3.295 -0.0449  0.0522  0.1910
28124W        W46978  10.153   5.104  11.376  0.2471 -0.1668  0.0750
28125W        W46979  17.154  13.512   0.445  0.0320  0.0289 -0.1052
28126W        W46980   8.042  15.227  13.943 -0.1877  0.3090  0.1126
28127W        W46981  17.933   4.317   5.126 -0.1117  0.3579  0.0288
28128W        W46982   7.279   1.308  11.366 -0.2908 -0.2080  0.1864
28129W        W46983  14.933  10.265   0.012  0.3152 -0.0573 -0.0882
28130W        W46984  18.667   5.441   3.757 -0.2917 -0.0074 -0.1576
28131W        W46985  11.501   4.410   1.416 -0.0542  0.4293  0.4805
28132W        W46986  17.087  16.126   3.310 -0.0437 -0.1385  0.1962
28133W        W46987   3.157  17.743   0.484  0.1312 -0.1381 -0.0073
28134W        W46988   5.767  13.594  14.376  0.1910  0.3793 -0.1301
28135W        W46989   8.074   3.084   1.551  0.1297 -0.2564  0.0736
28136W        W46990   2.160  11.255  14.979 -0.1438 -0.0877 -0.0399
28137W        W46991  16.705   9.060   1.025  0.3795 -0.1071  0.0119
28138W        W46992  12.569   7.082  14.097 -0.1542 -0.0145  0.0760
28139W        W46993   7.186  17.420   3.860  0.2417 -0.0351  0.1069
28140W        W46994   3.109   1.405  11.235  0.1917 -0.3488  0.0077
28141W        W46995   3.444  14.792  13.562  0.3165 -0.2083 -0.1972
28142W        W46996  14.022   2.085   3.765 -0.0523 -0.0995  0.2143
28143W        W46997  13.217  17.464   3.631 -0.2662 -0.0667 -0.0128
28144W        W46998  15.681  15.039   1.857 -0.2334  0.0452 -0.1612
28145W        W46999  16.402   1.124  10.716 -0.3857  0.3082 -0.0389
28146W        W47000   1.340  16.432  10.900  0.1950  0.1906 -0.3441
28147W        W47001   3.776  13.997  11.110 -0.2818 -0.1221  0.2259
28148W        W47002  12.789  11.043  11.925  0.0299  0.0955  0.0333
28149W        W47003   3.201  13.209  13.591  0.1992  0.0111 -0.1645
28150W        W47004   3.874   1.118   1.025  0.0099 -0.1127  0.1011
28151W        W47005   1.471  12.674  14.339 -0.1218 -0.0955  0.3188
28152W        W47006   9.542  16.481   0.079 -0.1930 -0.0609  0.0982
28153W        W47007   8.823  12.681  11.698  0.3379  0.0373  0.2215
28154W        W47008  11.750  18.109  15.016  0.1896  0.1996  0.1687
28155W        W47009  12.619   1.879  10.221 -0.2503 -0.2147  0.0206
28156W        W47010   4.092  13.832  13.765 -0.0721 -0.1245  0.3206
28157W        W47011   4.127   6.367  14.563  0.1752  0.1995  0.2311
28158W        W47012  14.078   2.565  12.268 -0.2111 -0.0227  0.0740
28159W        W47013   4.943  10.489   3.211  0.0831  0.0705  0.0475
28160W        W47014   5.613   3.496   0.525 -0.1219  0.3511  0.0843
28161W        W47015  12.928   0.512   3.319 -0.0356 -0.0621  0.0126
28162W        W47016  10.787  13.003  13.455 -0.1100  0.0496 -0.0835
28163W        W47017  18.304   5.553   2.457  0.0764 -0.0745  0.0838
28164W        W47018   3.883   2.873  11.896  0.0740 -0.0640 -0.0557
28165W        W47019   0.175  11.442   0.186 -0.0149  0.0437  0.0431
28166W        W47020  17.104  15.629   3.152 -0.2302 -0.0529  0.0171
28167W        W47021  12.514   8.627  12.417 -0.1788  0.0618 -0.2574
28168W        W47022  11.825   9.545  11.411 -0.1669  0.4665  0.0901
28169W        W47023   2.715   6.480  13.663  0.1378 -0.0248 -0.0831
28170W        W47024   1.926   3.917  13.329  0.0276 -0.1352 -0.0548
28171W        W47025  15.223   8.603  12.276 -0.2974 -0.0486  0.0082
28172W        W47026  16.006  17.409  14.046  0.3036 -0.1653  0.1443
28173W        W47027   2.994  12.975   4.156  0.1234  0.0524 -0.2656
28174W        W47028   1.350  13.202  14.191 -0.0148  0.0289 -0.0780
28175W        W47029   7.828   0.637   4.178 -0.1280  0.0085  0.5287
28176W        W47030  14.406   1.645   0.903  0.0890 -0.0331  0.1451
28177W        W47031   4.644   4.157  10.557  0.3845  0.2793 -0.2958
28178W        W47032   4.239  11.802   3.549 -0.1731 -0.0541 -0.0133
28179W        W47033  18.324   5.389  13.262 -0.0390 -0.1374  0.2662
28180W        W47034   6.363  16.858  12.077 -0.2575 -0.1707  0.0009
28181W        W47035  11.099  12.732   3.991  0.0046  0.2024 -0.3397
28182W        W47036   9.447   3.972  10.839  0.0613 -0.3215  0.1698
28183W        W47037   4.098  14.347   3.296  0.0641 -0.0607  0.1722
28184W        W47038   0.287   9.200  12.136 -0.1531  0.2468  0.0432
28185W        W47039  18.637   2.804  11.891 -0.2540  0.1762 -0.2833
28186W        W47040  17.318   6.679  12.592 -0.1476  0.1057  0.2906
28187W        W47041   5.562  10.045   3.749 -0.1151 -0.0756 -0.4426
28188W        W47042   9.847   3.129   3.572  0.2694  0.0413  0.0798
28189W        W47043   4.826   6.466   5.308 -0.1595 -0.2342  0.2168
28190W        W47044   2.570   1.853   1.758 -0.0094 -0.1958 -0.0357
28191W        W47045   0.951   2.781   3.587 -0.3588 -0.0150 -0.0143
28192W        W47046  18.260  10.697   0.412 -0.1175  0.2661 -0.0343
28193W        W47047   2.223  14.942  15.081  0.1578 -0.0699 -0.0218
28194W        W47048  10.721  17.303   3.874 -0.2703  0.0625 -0.0078
28195W        W47049  11.971   7.423  13.682  0.0766  0.1886 -0.1160
28196W        W47050   9.874   9.863  13.100 -0.1367  0.1039 -0.2352
28197W        W47051  12.832   4.071  13.473  0.1481 -0.1312 -0.1092
28198W        W47052   5.248  11.177  13.161  0.3972 -0.0154 -0.0802
28199W        W47053   0.465   2.274  13.409  0.1432 -0.0315  0.0833
28200W        W47054   3.266  12.705   3.012 -0.0487 -0.3082 -0.2399
28201W        W47055  17.832  12.507   0.977  0.1186  0.3604  0.0149
28202W        W47056   2.330   9.213  13.108  0.1553 -0.2060 -0.0521
28203W        W47057   9.854   3.350   1.156  0.2423  0.0021  0.0043
28204W        W47058   9.925  11.541  14.713 -0.0764 -0.2093  0.1145
28205W        W47059   9.622   1.504   2.173 -0.0621 -0.1817 -0.0163
28206W        W47060   5.291   5.451   5.523  0.1287  0.0418  0.3525
28207W        W47061  17.318  10.818  12.289  0.0552  0.2148 -0.1825
28208W        W47062  15.250   7.943   0.569  0.0440 -0.1813 -0.0330
28209W        W47063   1.036  13.474  14.484  0.0508  0.0362 -0.2741
28210W        W47064  17.465  14.246  13.493  0.1916  0.1180  0.1940
28211W        W47065  16.712  14.619  14.997  0.0284  0.0721 -0.0711
28212W        W47066   7.650  13.301  12.885 -0.3390  0.1862 -0.3425
28213W        W47067   3.320   3.684   0.181  0.0505  0.3853 -0.3551
28214W        W47068  12.534   3.597   2.104  0.0034  0.1340  0.0148
28215W        W47069  13.981   2.497   4.151 -0.2226 -0.1434  0.0962
28216W        W47070   3.014  17.455  10.823 -0.3610 -0.1208  0.1067
28217W        W47071  16.724  18.286  13.217  0.0718 -0.1846  0.0301
28218W        W47072  15.070   6.621  14.625 -0.0039  0.2978 -0.0797
28219W        W47073   7.575   2.415  11.744 -0.0171  0.0343  0.1663
28220W        W47074  10.304   9.752  14.976  0.0494 -0.1098 -0.0632
28221W        W47075  12.073  10.216  10.971 -0.1666 -0.0214  0.0431
28222W        W47076   0.414   9.536  12.863 -0.0700  0.2931 -0.1760
28223W        W47077   1.540   3.629   0.903  0.1641  0.3164 -0.0121
28224W        W47078   7.143   2.961  14.792  0.1130  0.1815  0.2342
28225W        W47079   1.153   0.787  11.039 -0.4126 -0.2408 -0.2287
28226W        W47080   9.142   9.162  12.354 -0.1525  0.0962 -0.0758
28227W        W47081   8.785  15.058   2.794  0.1110  0.0013 -0.1039
28228W        W47082   6.548   9.780  14.302  0.1692  0.0217  0.0371
28229W        W47083  16.357   0.777  11.051  0.0920  0.1537 -0.0511
28230W        W47084   1.226   2.432   0.004 -0.0911 -0.1342  0.1811
28231W        W47085   7.614  16.922   1.229  0.2980 -0.2854 -0.0825
28232W        W47086  15.147  15.147  12.294  0.0304  0.2505 -0.2433
28233W        W47087   4.124  18.179  13.550 -0.1100 -0.1060 -0.0360
28234W        W47088  15.080  18.628   3.332 -0.1378 -0.3110 -0.1757
28235W        W47089   9.105  13.945  14.362 -0.1204  0.0824 -0.0698
28236W        W47090   7.384   9.845  12.092  0.0696 -0.1802  0.0115
28237W        W47091  10.587  10.091  14.578 -0.0536  0.2675 -0.1605
28238W        W47092  16.234   1.825  13.745  0.3615  0.2130  0.1278
28239W        W47093  17.328  11.184  13.980 -0.0477 -0.1441  0.0116
28240W        W47094  14.389   8.489  15.082  0.1328  0.3696  0.1688
28241W        W47095  15.712   9.305  12.127  0.0655  0.3997  0.3613
28242W        W47096  10.743  17.844  11.396  0.0965  0.0930 -0.1988
28243W        W47097  12.862  11.940  13.118 -0.2730 -0.0152  0.1287
28244W        W47098  11.706   7.810   3.435  0.0677  0.1637  0.0539
28245W        W47099  15.887   2.486   2.079 -0.0077 -0.1854  0.1277
28246W        W47100  17.182   5.339  12.771 -0.2148 -0.2265  0.0802
28247W        W47101   3.439   0.161  11.686 -0.0615 -0.0237  0.2565
28248W        W47102   1.640   0.730   2.023  0.3329 -0.0686 -0.1145
28249W        W47103   9.772  17.146  11.994 -0.1917  0.0838 -0.1682
28250W        W47104  14.853  13.100  14.955  0.1437 -0.2607  0.1110
28251W        W47105  10.904   4.111  14.300  0.0063  0.1194 -0.0182
28252W        W47106   7.209  18.741   2.053  0.1273 -0.2024  0.0663
28253W        W47107   1.312   7.472  13.453  0.1202 -0.3451  0.0547
28254W        W47108  17.026   0.195   5.086  0.0675 -0.0437  0.1808
28255W        W47109  16.817  12.353   4.508 -0.1079  0.1761 -0.1266
28256W        W47110  17.145  12.704   3.624 -0.0735 -0.0175  0.0873
28257W        W47111   4.933  14.914   3.730  0.4857 -0.1631  0.2265
28258W        W47112  10.188  15.263  13.400 -0.0991 -0.5499 -0.1541
28259W        W47113   8.780  12.773   2.154  0.2349 -0.1997  0.0088
28260W        W47114  16.586  17.904   4.304 -0.1535 -0.4001 -0.0013
28261W        W47115   7.558  17.805  10.420 -0.1026 -0.0968  0.1784
28262W        W47116   6.510  11.828  13.895  0.3366 -0.0229 -0.2664
28263W        W47117   5.767  13.913   3.688  0.1685  0.0525 -0.0125
28264W        W47118  15.833   6.656   0.846 -0.1274 -0.1602 -0.3649
28265W        W47119  12.978   0.294  11.174 -0.0161  0.1546  0.0880
28266W        W47120   2.647   8.755   9.808 -0.4190  0.2350  0.0335
28267W        W47121  11.626  16.513  14.322 -0.0619 -0.0733  0.0793
28268W        W47122   8.582   9.307   2.796 -0.0873  0.0884 -0.0765
28269W        W47123  17.373   2.174   2.508 -0.1742 -0.2374 -0.0931
28270W        W47124  15.607  14.326   2.940  0.1380  0.2107  0.2549
28271W        W47125  15.830   7.655  13.705 -0.1314  0.0073 -0.2329
28272W        W47126   8.126   2.572   4.673  0.0775 -0.1370  0.1275
28273W        W47127  17.326   8.659  10.910 -0.4621  0.2060  0.0079
28274W        W47128  14.346   9.716   1.204 -0.0599 -0.0914  0.0121
28275W        W47129   0.018   3.364  14.185 -0.0117 -0.3220  0.1690
28276W        W47130  18.618  15.445   0.158  0.0802 -0.1688 -0.1715
28277W        W47131   5.563  13.998  14.593  0.0353 -0.2383  0.1537
28278W        W47132   5.441   5.331   0.260  0.0574  0.0291 -0.2086
28279W        W47133  13.509   7.384  10.853  0.2174 -0.0594 -0.1665
28280W        W47134  11.365  13.301   2.759  0.0535 -0.0155  0.0927
28281W        W47135  14.804   9.898   1.530  0.0467  0.0063  0.0342
28282W        W47136   8.048   4.523   0.193 -0.0056 -0.1587 -0.1297
28283W        W47137   9.096  10.211   2.679 -0.2001 -0.0643  0.3146
28284W        W47138   8.243  15.344   2.230  0.0923  0.0424  0.0133
28285W        W47139  12.562  11.305   3.215  0.2508  0.1073  0.0214
28286W        W47140  16.424  14.674  10.526 -0.1621 -0.1590  0.2336
28287W        W47141   0.483   3.227  14.424  0.0231 -0.2797 -0.0733
28288W        W47142   6.948  16.176   4.836  0.1194  0.2228 -0.2173
28289W        W47143   7.369  17.755  10.906 -0.1841 -0.0793 -0.1373
28290W        W47144  11.553   1.967  14.204 -0.2116  0.2386  0.0746
28291W        W47145   2.983  15.036   3.194  0.1876  0.2089 -0.2181
28292W        W47146  12.525  11.893   1.274 -0.2530 -0.4871 -0.0060
28293W        W47147  14.865   8.326   0.443 -0.1860 -0.1997  0.0741
28294W        W47148  10.063   4.637  11.366 -0.2656  0.1232  0.1189
28295W        W47149  15.935  11.220  12.635  0.1319  0.1548 -0.0587
28296W        W47150  15.662  12.525  13.054 -0.0517  0.1586  0.1007
28297W        W47151   7.358   2.323  14.650  0.3724  0.3000 -0.1622
28298W        W47152  17.093   2.926   0.262  0.0238  0.0057  0.1662
28299W        W47153  18.822   9.844  10.323 -0.0608  0.1304 -0.0128
28300W        W47154  18.751  16.797   2.887 -0.0938 -0.0873  0.1302
28301W        W47155   8.106   8.900  11.753  0.1716  0.0147  0.2039
28302W        W47156  13.671  17.347   2.041  0.0142  0.0544 -0.0402
28303W        W47157  16.528   8.517   2.762  0.0634 -0.0671 -0.2096
28304W        W47158   7.796   1.728  13.253 -0.1546 -0.2346  0.0915
28305W        W47159  11.643   8.755  13.937  0.1456  0.0638  0.1351
28306W        W47160  15.380   2.324  12.118 -0.0679  0.0500  0.1799
28307W        W47161   1.281   6.301  12.984  0.1140 -0.0776 -0.0331
28308W        W47162   3.756   2.773  13.508  0.0837 -0.3849  0.0831
28309W        W47163   8.359   0.862  12.129  0.0626  0.0005  0.2754
28310W        W47164   4.079  10.320  10.701 -0.0352 -0.2060 -0.0856
28311W        W47165  11.062  15.898  15.030 -0.1447 -0.3056 -0.0229
28312W        W47166  16.069  15.506  13.066  0.0646  0.2001  0.0737
28313W        W47167   7.281  11.230  13.351  0.3329 -0.0088 -0.2927
28314W        W47168   1.033   8.173   4.711  0.0914 -0.2030 -0.3011
28315W        W47169  15.744   3.559   1.907  0.2934 -0.0051  0.0554
28316W        W47170   8.356  16.316   1.336  0.2660 -0.4250  0.2044
28317W        W47171   9.192  16.668  14.965  0.0520  0.1450  0.2732
28318W        W47172  12.330  17.273   3.622  0.1737  0.1286 -0.1323
28319W        W47173  12.070   2.151   0.383 -0.2450  0.0722 -0.0240
28320W        W47174   0.065   6.478   9.846 -0.1386 -0.2878  0.1638
28321W        W47175   2.991  16.993   2.186 -0.2188  0.0247  0.0394
28322W        W47176  13.382  17.875   0.042 -0.0963  0.0048  0.1225
28323W        W47177   7.102  12.907   0.198  0.1804 -0.0405  0.0702
28324W        W47178   1.397   7.289  10.902  0.0924 -0.1825  0.2513
28325W        W47179   7.764  13.469   0.258  0.0003  0.0321 -0.3322
28326W        W47180   1.961  10.904   0.326  0.2134  0.2706  0.4557
28327W        W47181  14.287   0.371   2.993 -0.0870 -0.3414 -0.0901
28328W        W47182   8.469   6.691  12.774  0.3427 -0.0793  0.2261
28329W        W47183   6.075   3.718   1.569 -0.2271 -0.0512  0.0101
28330W        W47184   7.117   5.712  13.328  0.3198  0.2318  0.1804
28331W        W47185  13.000   6.521   2.793  0.0400 -0.1034 -0.1409
28332W        W47186  12.211   0.409  14.486 -0.0754  0.2380 -0.0878
28333W        W47187  17.541   8.724  15.102  0.2121  0.1962  0.2196
28334W        W47188  14.391  12.489   2.058  0.0126 -0.2997  0.0337
28335W        W47189  16.418  14.500   1.353 -0.0823 -0.4556 -0.2107
28336W        W47190  17.972   9.971  12.856 -0.1947  0.0408 -0.0673
28337W        W47191  14.749   5.371   5.052 -0.1089  0.2756  0.0424
28338W        W47192  11.060  15.852   4.385 -0.2761 -0.3668 -0.3589
28339W        W47193  10.812   9.430   1.047 -0.0322  0.2759  0.1780
28340W        W47194   1.726  14.885  12.729  0.1144 -0.0693 -0.0859
28341W        W47195   9.787   5.173   3.538 -0.0335 -0.2950  0.1545
28342W        W47196   6.566   3.228   0.200  0.2231 -0.1407  0.1360
28343W        W47197  11.752   0.190   4.046  0.0246 -0.3156 -0.0234
28344W        W47198  14.818   8.950  14.240 -0.3715 -0.1408  0.0589
28345W        W47199   5.555  10.847  10.856  0.1526 -0.3129 -0.1824
28346W        W47200   6.377  14.595  10.366  0.0940 -0.0383  0.1705
28347W        W47201  11.818  13.652  12.104  0.1833 -0.1046 -0.0016
28348W        W47202  18.088   0.696  11.922  0.0120 -0.0377 -0.2085
28349W        W47203   5.520  17.365  12.819 -0.0151  0.2727 -0.0865
28350W        W47204  13.723   9.031   3.067  0.1561  0.0192  0.1082
28351W        W47205  18.771   4.724  14.741  0.1137 -0.2607  0.0107
28352W        W47206  12.331   4.856   1.131  0.1157  0.0355  0.2148
28353W        W47207  10.059   4.633  14.453  0.2034 -0.0748  0.2275
28354W        W47208   8.783  16.600  14.720 -0.0869  0.1162  0.1655
28355W        W47209  14.648  11.819   3.807  0.0759 -0.1001  0.1354
28356W        W47210  10.661   4.096   3.770 -0.0829  0.0706  0.0120
28357W        W47211  13.105   3.239   2.933  0.4298  0.0519 -0.1483
28358W        W47212  13.046  11.633   0.860 -0.2094 -0.1150 -0.1198
28359W        W47213   9.425  16.774  11.877  0.0599  0.2905  0.0293
28360W        W47214   4.962   9.637  11.360  0.0700 -0.1146  0.2722
28361W        W47215   7.702   1.248  14.360 -0.0459  0.0388  0.2101
28362W        W47216  11.533  17.286  12.619  0.0296  0.1813 -0.2136
28363W        W47217  11.848   7.594  12.639  0.0953  0.3208 -0.1322
28364W        W47218  17.402   7.985   2.887  0.3514  0.0261  0.2633
28365W        W47219   8.938  13.743  12.862  0.1473  0.3655 -0.0802
28366W        W47220  17.638  14.162   4.122 -0.1617 -0.1494 -0.0148
28367W        W47221  16.055  11.345   1.964 -0.0188 -0.1370  0.0561
28368W        W47222   6.159   8.636  14.587  0.2056  0.1149  0.0402
28369W        W47223  15.729  10.700  12.877 -0.2020 -0.0845  0.2133
28370W        W47224  10.418   9.873  12.942  0.1047 -0.1921 -0.0352
28371W        W47225   0.252   1.546  14.781 -0.3295 -0.1159  0.1181
28372W        W47226  13.563  17.853  14.634 -0.1039 -0.0065  0.0062
28373W        W47227  10.720  11.415   1.762  0.0624  0.0086 -0.1609
28374W        W47228   0.084  16.194   1.408  0.1171  0.1309  0.1867
28375W        W47229   1.146  10.523   0.329  0.0087  0.0854  0.0598
28376W        W47230  10.703  10.956  11.525 -0.1450  0.0992 -0.0266
28377W        W47231  10.847  12.536   0.783 -0.0853 -0.0058 -0.0911
28378W        W47232   6.833  12.790   4.440 -0.0787 -0.3325  0.5948
28379W        W47233   6.924   7.888  13.221  0.2205 -0.0856 -0.0122
28380W        W47234   2.457   8.277  13.229  0.1815 -0.3575  0.0352
28381W        W47235  17.838  14.476  14.826  0.0744  0.0651  0.2752
28382W        W47236   0.460   9.501   1.671  0.1411 -0.0647  0.2995
28383W        W47237   2.342   4.876  14.420  0.2818 -0.0364 -0.2591
28384W        W47238  12.563   4.294   4.231 -0.1338  0.1682  0.2342
28385W        W47239  15.541  16.551  12.126 -0.3054 -0.1219 -0.0165
28386W        W47240   9.820  10.760   4.320 -0.0370 -0.0814 -0.0342
28387W        W47241  18.728   7.734   4.522  0.1308  0.0070 -0.2150
28388W        W47242   8.209  16.291  13.953  0.0285 -0.2297 -0.1024
28389W        W47243  14.285   9.413  11.706  0.1817  0.1147 -0.0825
28390W        W47244   8.599   0.069   3.857 -0.1179  0.1986 -0.0587
28391W        W47245   7.286   8.517  12.169 -0.2278  0.2715  0.1469
28392W        W47246  17.922  12.969   0.847 -0.0563  0.3729 -0.0291
28393W        W47247  10.602  16.013  12.123 -0.1636  0.1499  0.1286
28394W        W47248   2.420   5.625  13.360 -0.3771  0.1809  0.0200
28395W        W47249   3.743   8.080  11.273  0.5141 -0.2507  0.1777
28396W        W47250  14.066   0.540   3.947 -0.0185 -0.2312 -0.1653
28397W        W47251   4.484  12.803  11.332  0.0839 -0.3048  0.2982
28398W        W47252  14.542   3.328   2.592 -0.2284  0.3943  0.1297
28399W        W47253   3.377   8.966  10.264 -0.1981 -0.4143 -0.0307
28400W        W47254  15.965  11.496   3.293  0.3220 -0.0929  0.2153
28401W        W47255   1.160   2.612   2.382  0.1762  0.2688 -0.0146
28402W        W47256   9.544  11.070   2.159 -0.0117 -0.0620  0.2079
28403W        W47257   2.989   4.314  13.594 -0.0275  0.0897  0.1127
28404W        W47258  15.695   9.910  13.505  0.1406  0.1327 -0.1793
28405W        W47259  15.725  14.100  13.824 -0.4332  0.0081  0.2592
28406W        W47260   7.632  14.570  12.216  0.1878 -0.0978  0.0633
28407W        W47261   6.824  15.630  11.036  0.0582  0.1514 -0.1358
28408W        W47262  18.069   9.875  13.903 -0.1841 -0.1281  0.3575
28409W        W47263  10.947   4.093   0.753 -0.1139 -0.4032  0.0631
28410W        W47264   5.653   5.257  10.163 -0.1660 -0.0003 -0.1399
28411W        W47265  10.303  11.028  13.885 -0.1108 -0.2141  0.0720
28412W        W47266  15.217   2.904   2.722  0.0900 -0.1143  0.0752
28413W        W47267  17.854   5.729   1.026 -0.0162 -0.2048 -0.0135
28414W        W47268  15.779  10.831   1.657  0.0955  0.0287  0.1804
28415W        W47269   7.259  13.582   0.967  0.1136  0.0289 -0.0016
28416W        W47270   0.819  13.523   2.376 -0.0352  0.1055 -0.1303
28417W        W47271   4.074   8.953  14.262 -0.1073 -0.0673 -0.1561
28418W        W47272  13.099   4.303  13.138 -0.2300 -0.0724 -0.1519
28419W        W47273  16.181  12.781   3.850 -0.1636  0.3361  0.2881
28420W        W47274  12.089   5.309  11.664  0.1101  0.0306  0.3242
28421W        W47275  15.468   8.142  11.460  0.0865  0.1800 -0.0814
28422W        W47276  10.609  11.447  11.714 -0.0077 -0.1230  0.2558
28423W        W47277   0.073   9.923   1.712 -0.1146  0.0404  0.4099
28424W        W47278   8.138  14.382  12.013  0.1195 -0.0297 -0.0481
28425W        W47279  13.231  16.663  13.197 -0.3719  0.0544  0.0803
28426W        W47280   2.350   6.631  13.325  0.0204 -0.0378  0.2216
28427W        W47281  15.628  10.282   1.612 -0.1559  0.2784  0.0980
28428W        W47282  11.487   7.332  13.963 -0.1516 -0.0176 -0.1013
28429W        W47283  12.300  12.984  14.949 -0.4334  0.3193 -0.1690
28430W        W47284  14.751  12.168  12.070 -0.1292  0.1819  0.1235
28431W        W47285  15.596   8.689   3.587  0.2995  0.1141  0.3264
28432W        W47286  17.813  13.920  11.318  0.1943  0.0353 -0.4869
28433W        W47287   7.244  13.100  10.819 -0.2232 -0.0472 -0.0221
28434W        W47288   3.763  16.283  13.331  0.3420 -0.0446 -0.0015
28435W        W47289  13.571   2.341  12.613  0.1652  0.0447  0.2357
28436W        W47290  18.026   9.027   1.394  0.0322 -0.0107 -0.0088
28437W        W47291  15.481  15.999  12.455 -0.0940 -0.4442  0.0573
28438W        W47292   4.663  12.107   3.597 -0.0293 -0.2500 -0.1151
28439W        W47293   8.535  12.716  11.225  0.0483  0.0865  0.1483
28440W        W47294  13.054  11.493  13.130  0.4007  0.0747  0.0761
28441W        W47295   9.923   2.198  13.789 -0.0420 -0.2233  0.3195
28442W        W47296  14.373  17.217  13.255  0.1942  0.1469  0.0126
28443W        W47297  13.841  14.732  12.723 -0.0276 -0.1120  0.4171
28444W        W47298   7.233   8.878  15.063 -0.0752 -0.0853  0.2368
28445W        W47299   9.606   7.353  13.753 -0.0762 -0.2451 -0.4883
28446W        W47300  15.549  14.714  11.213  0.2885 -0.1589  0.1194
28447W        W47301   2.911   7.499  14.957  0.0457  0.3840  0.0872
28448W        W47302   7.727  18.073  13.769 -0.0889 -0.2578 -0.2442
28449W        W47303  18.175   8.192  12.335 -0.0212  0.2952 -0.2444
28450W        W47304  11.196   6.961   1.328  0.0077 -0.2446  0.2761
28451W        W47305   1.623   6.492   9.954  0.1289  0.2066  0.1300
28452W        W47306   2.900   2.815   2.813  0.1892 -0.0220  0.1297
28453W        W47307  11.160   5.057   0.672  0.1107  0.1964 -0.2012
28454W        W47308   9.110  15.144  11.646 -0.3331 -0.2779  0.0614
28455W        W47309  13.103  17.483   2.614  0.2750  0.0385  0.2308
28456W        W47310   1.504   9.230   0.166 -0.1149  0.1595 -0.2039
28457W        W47311   7.140   8.526  14.630 -0.0897 -0.1473  0.0175
28458W        W47312   0.308   0.018   0.674 -0.1742  0.1606 -0.1111
28459W        W47313  13.928  10.454   0.073 -0.0604  0.0605  0.0872
28460W        W47314  10.206  16.910  10.753  0.0457 -0.0518  0.1737
28461W        W47315  15.768  11.584  11.272 -0.0046  0.2990 -0.0803
28462W        W47316   2.370  13.217   0.282 -0.2100  0.0649  0.0228
28463W        W47317   2.751   2.822  12.829  0.1677  0.0546 -0.0186
28464W        W47318   1.331   7.731   0.602 -0.0136  0.1411  0.0739
28465W        W47319   1.739   3.024  13.054 -0.0364 -0.0371  0.2114
28466W        W47320   6.321   4.003   0.685  0.2082 -0.2762  0.5545
28467W        W47321   5.989  16.193   5.147 -0.2413  0.2086 -0.0469
28468W        W47322   3.756  10.479  13.164 -0.4034 -0.0018 -0.0990
28469W        W47323   8.644  11.904  14.722  0.0210 -0.0120 -0.0987
28470W        W47324  17.802   4.846   2.304 -0.2215  0.4435 -0.1092
28471W        W47325  16.687   7.413   0.702  0.0563  0.2704 -0.2258
28472W        W47326  10.976  11.755  11.759 -0.7030 -0.1043 -0.2502
28473W        W47327   4.180   6.318  12.676  0.2936  0.2404 -0.0163
28474W        W47328  12.930   1.218  13.618 -0.2430 -0.2311  0.2895
28475W        W47329   2.435  10.512  12.015 -0.2783 -0.3168  0.1504
28476W        W47330   4.052  14.710  14.737 -0.1873  0.2967  0.2094
28477W        W47331  16.281   4.544   5.502  0.0514 -0.2524 -0.1486
28478W        W47332   1.382   3.870   1.364 -0.1187 -0.0520  0.0717
28479W        W47333  13.961   7.371   3.089  0.3082  0.0400 -0.1063
28480W        W47334  11.714  10.459  13.506 -0.1605 -0.1564  0.1593
28481W        W47335  17.744   3.945   1.911 -0.0908 -0.1768  0.1273
28482W        W47336  12.111  12.156  10.485  0.2996 -0.2150  0.1050
28483W        W47337   0.410  16.367  13.560  0.1736 -0.0574 -0.0210
28484W        W47338  11.653  16.889  14.690 -0.3969 -0.1880  0.1455
28485W        W47339   0.792   2.248  13.820 -0.0598  0.3190 -0.0025
28486W        W47340   7.096  15.261   0.608 -0.0580 -0.0412  0.2113
28487W        W47341   2.734   2.522   0.078  0.0125 -0.1386  0.3969
28488W        W47342   7.171   1.740  14.693  0.0807 -0.2860  0.1843
28489W        W47343   1.940  16.008   0.986 -0.0701 -0.1308  0.1057
28490W        W47344   5.452  10.440  12.634  0.2230  0.0851  0.1475
28491W        W47345   7.654  14.383  10.754 -0.1487 -0.0948 -0.0267
28492W        W47346  14.303  17.848  14.445  0.1456  0.0618  0.2084
28493W        W47347   5.243   3.914   0.223 -0.2005 -0.0471  0.2619
28494W        W47348  17.926  10.870  11.610 -0.0303  0.2336  0.1142
28495W        W47349   4.934   0.562  10.747  0.3080  0.0261  0.0953
28496W        W47350   0.347   6.941   4.981  0.1111 -0.1007  0.1315
28497W        W47351  16.634  17.391   2.241  0.2162 -0.4054 -0.0851
28498W        W47352   8.611   2.574   5.700  0.4161  0.0275 -0.1069
28499W        W47353  16.533   5.199  14.741  0.0193 -0.0083  0.0490
28500W        W47354   1.616  15.536  14.621 -0.0422 -0.0379  0.0673
28501W        W47355   6.916   2.120   2.565 -0.2659  0.0344 -0.1388
28502W        W47356   4.945  12.961   3.787  0.4783 -0.1258  0.0428
28503W        W47357  15.666  15.939   0.776  0.1165  0.1531 -0.2263
28504W        W47358  10.413   7.432  13.470  0.1117 -0.2127  0.0943
28505W        W47359   0.591  16.805  11.068  0.3809 -0.0162  0.0906
28506W        W47360  10.009  14.548   4.431  0.0981  0.0173 -0.0035
28507W        W47361  10.806  10.574   1.798 -0.1322 -0.0987 -0.3886
28508W        W47362   3.558  18.856   3.973 -0.3259 -0.0801 -0.1372
28509W        W47363  13.211  16.270  12.345  0.0577  0.2187  0.0630
28510W        W47364  11.039  10.139  12.725  0.1022 -0.3511  0.1681
28511W        W47365  10.522   6.374  13.310  0.0697 -0.3411  0.1453
28512W        W47366  13.638   0.076  13.255  0.0708  0.0726 -0.1675
28513W        W47367   8.245  11.681   4.062  0.0502 -0.1017  0.0597
28514W        W47368   1.097  15.789  13.993 -0.1394 -0.0595 -0.3119
28515W        W47369  16.284  13.822   0.690  0.3297  0.1022  0.2143
28516W        W47370  14.875   5.506  11.674  0.0717  0.0579 -0.1807
28517W        W47371  18.010   6.259   2.893  0.2190  0.1305  0.0063
28518W        W47372  13.099   2.731   4.452  0.0062 -0.0518  0.1273
28519W        W47373  17.684   7.999  14.356 -0.0315  0.3567 -0.0263
28520W        W47374   7.721   5.075   3.312  0.0688 -0.2945  0.1369
28521W        W47375   4.636   6.838   2.681  0.0950 -0.1075 -0.0402
28522W        W47376  11.784   4.810  10.800 -0.0329  0.1921  0.0171
28523W        W47377  10.421   7.857   0.745 -0.2503  0.1143 -0.0094
28524W        W47378  14.641   4.241   4.499 -0.0431  0.4868  0.0073
28525W        W47379  17.637  11.083   1.953  0.2328 -0.3047  0.4640
28526W        W47380  10.523  18.073  13.759  0.1193  0.1109 -0.0292
28527W        W47381   0.367   2.607   1.887 -0.0428  0.1613 -0.2846
28528W        W47382  12.540   4.364   4.764  0.0906  0.0796 -0.1022
28529W        W47383   1.119   3.846  11.599  0.1815 -0.2142 -0.3239
28530W        W47384  17.236  16.453   3.840 -0.1001  0.0893  0.0400
28531W        W47385  13.983   5.571  13.690  0.0184  0.0215  0.0026
28532W        W47386  18.215  14.233  11.139 -0.0245  0.0340 -0.0253
28533W        W47387  11.733  15.543   2.932 -0.2364 -0.2652 -0.0306
28534W        W47388  17.998   1.515   3.439 -0.3267  0.0460 -0.1162
28535W        W47389   7.903   0.644  11.551  0.1372  0.1978 -0.1383
28536W        W47390  13.170   9.168  13.404 -0.0436  0.1719 -0.2391
28537W        W47391  15.358   1.476   3.010  0.1072 -0.0128  0.1359
28538W        W47392  12.971  18.091   2.818  0.0136  0.0233 -0.0437
28539W        W47393  18.745  16.926   1.613 -0.1855  0.4387  0.0151
28540W        W47394   6.299   1.731   0.967 -0.1764 -0.1432  0.0801
28541W        W47395  16.691   9.468   2.457  0.0786 -0.2547 -0.0225
28542W        W47396  12.682  17.398   4.024  0.0190 -0.4016 -0.1049
28543W        W47397   5.002   4.052   0.872  0.2471  0.0249 -0.2564
28544W        W47398  11.545   3.001  14.447 -0.0728  0.0079  0.1417
28545W        W47399   4.427   7.269   1.148  0.1261 -0.0344  0.1768
28546W        W47400  14.231   4.347  14.158  0.0985 -0.2447 -0.3053
28547W        W47401  14.983   1.895  12.416 -0.0013  0.2009  0.1727
28548W        W47402   1.168  10.251   1.851 -0.0175  0.0019 -0.2821
28549W        W47403  13.892   2.029  11.729  0.1697  0.2393 -0.0309
28550W        W47404   0.645   1.690   0.891 -0.0457  0.0312  0.3681
28551W        W47405  16.621  16.381   4.696  0.0791  0.1903 -0.1067
28552W        W47406  10.995  15.198   1.015  0.1103 -0.2810  0.2526
28553W        W47407  10.272  11.440  12.511 -0.1382  0.3917 -0.0828
28554W        W47408  14.114   1.928  13.771 -0.1466 -0.3134  0.1721
28555W        W47409   1.851  17.894   4.806 -0.2609  0.0727  0.1430
28556W        W47410  15.203  18.243  10.135 -0.1527 -0.3714 -0.0451
28557W        W47411   0.098  11.067   2.248 -0.0684 -0.5440 -0.0208
28558W        W47412  13.810  16.154   3.725 -0.0106 -0.0265 -0.0036
28559W        W47413   4.818  17.133  12.721 -0.0996 -0.2799 -0.2524
28560W        W47414   6.629  12.523   0.453  0.0473 -0.2267  0.1547
28561W        W47415  15.930   3.064  14.580 -0.0926 -0.0617  0.1269
28562W        W47416  16.704   2.350   1.903 -0.1931 -0.0415  0.4043
28563W        W47417  12.077  16.955   0.658  0.1672 -0.0333 -0.0265
28564W        W47418   1.481   3.913   4.363  0.0030  0.0023  0.0027
28565W        W47419   4.968   2.027  13.758 -0.3070  0.0498 -0.1628
28566W        W47420   4.685   4.761   5.255 -0.3779 -0.1668  0.0164
28567W        W47421   3.239   9.826  11.210 -0.0482  0.2195 -0.0258
28568W        W47422  17.282  15.218   3.461  0.0080 -0.2078  0.2884
28569W        W47423  13.799  18.159   2.638  0.4002 -0.3182 -0.0957
28570W        W47424   3.490   3.949  14.884 -0.0125 -0.4493  0.0784
28571W        W47425  15.366   0.374   1.698  0.4171  0.3118  0.0975
28572W        W47426  15.440   5.480   2.191  0.0002  0.1781 -0.3138
28573W        W47427   7.485  15.979  11.651 -0.0985  0.0808  0.1080
28574W        W47428  12.959   0.709  13.427 -0.2634  0.1206 -0.2265
28575W        W47429   4.310  18.275  14.324 -0.2923  0.1424  0.0337
28576W        W47430  16.560  14.911   1.007  0.1168  0.1106 -0.0257
28577W        W47431   3.825  12.330   2.366  0.0314  0.3607 -0.5473
28578W        W47432  14.473  10.249   1.247 -0.3009 -0.2843 -0.0234
28579W        W47433   8.044   7.615  14.724  0.0899 -0.0855  0.0052
28580W        W47434   3.580  17.673  14.770 -0.2837  0.1160  0.0978
28581W        W47435   8.674   9.288  13.647 -0.0056 -0.2550 -0.0166
28582W        W47436  13.484  17.476   2.908 -0.1847  0.0788 -0.1184
28583W        W47437   0.415   6.538  11.653  0.1938 -0.2044 -0.1027
28584W        W47438   4.392  16.094  11.701 -0.0739 -0.1737 -0.2000
28585W        W47439  12.916   7.346  13.137  0.1936  0.0177 -0.1471
28586W        W47440  18.014  13.507  14.681 -0.1683 -0.0029  0.0023
28587W        W47441  17.554  12.528   0.113 -0.1234  0.0902 -0.0286
28588W        W47442  18.510  14.619  12.220  0.3311  0.2465  0.0682
28589W        W47443   7.731  13.033  13.707 -0.0061 -0.2053 -0.0890
28590W        W47444   7.913   1.290   2.782 -0.0343  0.1383  0.0584
28591W        W47445  10.010  17.706  14.422  0.1276 -0.1673  0.0581
28592W        W47446  12.268  15.250  14.155  0.0197 -0.0597 -0.0142
28593W        W47447   1.231   9.679   0.398 -0.2889 -0.0468  0.0071
28594W        W47448   7.657  12.806  11.517 -0.1012 -0.3358 -0.1015
28595W        W47449   0.709  17.087   0.298  0.0972 -0.1346  0.1544
28596W        W47450   1.386  14.872   3.051 -0.1733  0.2372 -0.0766
28597W        W47451  12.387  14.975   1.489  0.1500 -0.0273  0.1292
28598W        W47452  16.594   0.745   4.157  0.0099  0.0162 -0.0409
28599W        W47453  14.518   9.953   3.996  0.0595  0.0292 -0.0073
28600W        W47454  12.363  15.192   4.094 -0.1576  0.2700 -0.1940
28601W        W47455   3.297   8.774   3.777 -0.4647  0.1680 -0.1648
28602W        W47456   0.124   3.977   3.777 -0.1364 -0.2359  0.0340
28603W        W47457   4.224  12.244   2.810  0.1304 -0.2280 -0.0334
28604W        W47458  12.955   9.157   2.496  0.0308 -0.0837  0.1578
28605W        W47459   4.033   8.754  12.558 -0.0242 -0.0536 -0.1281
28606W        W47460  11.440   9.821   3.886 -0.2212  0.1112 -0.0138
28607W        W47461   0.275   2.607  14.924 -0.0555 -0.1432 -0.0712
28608W        W47462  17.049  13.554   4.736 -0.3433 -0.0088  0.2209
28609W        W47463   0.580   1.709  11.672  0.0059  0.1289 -0.0043
28610W        W47464   3.806  17.813  13.661  0.0809  0.1731  0.1491
28611W        W47465   3.852  17.846   3.236  0.0668 -0.1010 -0.1443
28612W        W47466   5.524  14.391  11.174 -0.0543  0.4953 -0.1982
28613W        W47467  15.438  15.644   5.492 -0.2112 -0.0732  0.0317
28614W        W47468  17.605   7.669  11.432  0.0291 -0.3262  0.0110
28615W        W47469   8.669  13.707  11.408  0.0291 -0.0157  0.0358
28616W        W47470  15.131   4.512   1.623  0.3019 -0.0851 -0.1050
28617W        W47471   8.033  18.006  13.362  0.1500 -0.3026  0.0221
28618W        W47472   9.791   0.005  13.237  0.0380 -0.1448  0.1047
28619W        W47473  13.948   4.312   2.751 -0.2227  0.1035  0.3000
28620W        W47474  14.967   3.768   2.468 -0.2740  0.2444  0.1078
28621W        W47475  17.093   1.209   1.121  0.1609 -0.0724 -0.0123
28622W        W47476  10.563  14.721   2.617  0.3620 -0.0591  0.0642
28623W        W47477   5.445  18.558   2.810 -0.0868  0.0275  0.1361
28624W        W47478   4.714  12.868  12.410  0.1001 -0.1643  0.0430
28625W        W47479   0.783   6.008   3.845  0.2219  0.0042  0.2259
28626W        W47480  11.633  18.227  10.707 -0.1873 -0.2219  0.0394
28627W        W47481  17.493   7.389   0.062 -0.0690  0.1533  0.3785
28628W        W47482  17.356   8.660  13.607 -0.1642  0.2953 -0.0343
28629W        W47483  15.160  11.919   1.852  0.0102  0.1118 -0.1007
28630W        W47484  14.642   0.053   3.149 -0.0850  0.0395 -0.1180
28631W        W47485   2.977   7.697   1.756 -0.2058  0.1345 -0.1585
28632W        W47486   2.111   4.840   2.749 -0.1464 -0.0415  0.1348
28633W        W47487   9.927  16.037  14.254  0.1786 -0.1306 -0.0194
28634W        W47488   4.609   9.921   0.505  0.0436 -0.0678 -0.0249
28635W        W47489  11.974   7.571   1.633 -0.0251 -0.0483 -0.0096
28636W        W47490  16.163  10.728  12.067 -0.1692 -0.0690 -0.2232
28637W        W47491   6.542   2.922  12.679  0.0185  0.0965  0.3390
28638W        W47492   5.302   1.001  12.909  0.1120 -0.0208 -0.1300
28639W        W47493   7.304  14.582  12.826  0.0445 -0.1017  0.1247
28640W        W47494  15.985   6.638  12.855 -0.0742 -0.1210  0.1113
28641W        W47495  16.158   0.878   3.171 -0.1787  0.2469 -0.3904
28642W        W47496   5.509  14.468   0.934 -0.3249 -0.0480 -0.1264
28643W        W47497  12.306   9.871   4.584  0.1468  0.0291  0.1756
28644W        W47498  14.746  11.107   2.195  0.0064  0.0158 -0.0422
28645W        W47499  12.351  12.686  14.530  0.1139 -0.1103  0.0736
28646W        W47500   0.928  16.576  10.663  0.2641 -0.0059  0.0287
28647W        W47501   7.652   9.362   2.064 -0.1252 -0.1336  0.1420
28648W        W47502   0.330   6.435   1.527 -0.3546 -0.1530  0.1206
28649W        W47503  11.693   3.253   1.582  0.2510  0.1075  0.0030
28650W        W47504   1.793   1.334  11.443 -0.1247 -0.1315 -0.0760
28651W        W47505   4.866  14.808   2.876 -0.0332 -0.2602  0.0133
28652W        W47506   0.408  14.541   4.391  0.5152  0.0545  0.0600
28653W        W47507   5.943  14.076   4.515 -0.0930 -0.0506 -0.1611
28654W        W47508   0.318  11.029   3.164  0.2507  0.2198  0.0907
28655W        W47509  17.378  13.123   2.741 -0.0309 -0.0052  0.2084
28656W        W47510  18.488  12.576  14.793 -0.2347  0.0644 -0.0170
28657W        W47511   8.101   8.962  12.254  0.5071 -0.0561 -0.1377
28658W        W47512  15.858  15.545   0.561 -0.0786  0.0437 -0.3972
28659W        W47513   8.079   5.000   0.336 -0.0946 -0.3242 -0.0265
28660W        W47514  11.135  14.533  10.982 -0.0133  0.1128 -0.0113
28661W        W47515  14.505   1.606   4.996 -0.0268 -0.2200 -0.0061
28662W        W47516  13.012   1.883  11.437  0.0837 -0.0183 -0.2332
28663W        W47517   6.221   8.779   4.340  0.0914  0.1114 -0.0180
28664W        W47518  17.915  16.461  15.024  0.1522 -0.0443 -0.0236
28665W        W47519  11.540   8.268   3.505  0.1979 -0.0583 -0.0337
28666W        W47520  13.322   7.487   3.775  0.2305 -0.1689 -0.0091
28667W        W47521   2.279   4.698   2.229 -0.1399 -0.0459  0.2847
28668W        W47522   1.667   6.411  13.832  0.0351  0.1437  0.2804
28669W        W47523   7.897  11.922  12.517 -0.0072  0.0114 -0.1075
28670W        W47524   5.149   9.030   0.968 -0.3078  0.0567 -0.0997
28671W        W47525   8.693   8.352   4.447 -0.4271  0.2193 -0.0378
28672W        W47526   7.307   7.634   1.681 -0.0001 -0.0214  0.0025
28673W        W47527  16.154  18.673   4.155  0.3617  0.0548  0.1328
28674W        W47528  14.195  16.911   3.191  0.0742  0.0135  0.0883
28675W        W47529   0.321   3.694   2.135 -0.1734 -0.0996 -0.0916
28676W        W47530   4.585  10.887  14.927  0.0449 -0.1932  0.3326
28677W        W47531  17.756   4.120  11.291  0.3251  0.0227  0.0981
28678W        W47532   5.543   8.559   3.165  0.2365 -0.0587 -0.1443
28679W        W47533  16.460  10.998  10.860  0.0742 -0.1003  0.2651
28680W        W47534  12.409  13.188   2.156 -0.1481 -0.3467 -0.1403
28681W        W47535  16.843  10.984  13.138 -0.0463  0.0284  0.0093
28682W        W47536  11.459  10.433  11.944 -0.1428  0.0045  0.1933
28683W        W47537   1.036   1.630  11.490 -0.1945 -0.1102  0.0219
28684W        W47538   4.414   3.875  12.678 -0.3829 -0.0543  0.2704
28685W        W47539  10.781   3.799   2.070  0.1421  0.2795 -0.3847
28686W        W47540  16.150  14.749  11.290  0.0621 -0.2583  0.2426
28687W        W47541  13.217   0.758   1.998  0.1397 -0.0888 -0.2747
28688W        W47542  10.643  10.007  11.888  0.0485  0.0749 -0.1655
28689W        W47543  11.750   6.829   3.167 -0.0436 -0.4525 -0.0198
28690W        W47544  15.043   0.574  13.623  0.0842  0.0238 -0.0416
28691W        W47545  12.047  16.109   3.726  0.0650  0.0182  0.1941
28692W        W47546  16.667   7.360  15.118 -0.0870 -0.0883 -0.4822
28693W        W47547   4.376  13.685  14.612 -0.1446  0.1111  0.0801
28694W        W47548   2.988   5.434   2.003  0.0948 -0.0678 -0.0147
28695W        W47549  15.812  17.845  11.078 -0.2116  0.1373 -0.0252
28696W        W47550  15.219  17.290   0.717 -0.0568  0.1396 -0.1482
28697W        W47551   8.535   8.927   4.075 -0.0838 -0.0980  0.1206
28698W        W47552   2.713  14.049   3.196  0.0770  0.1161  0.2009
28699W        W47553  14.187  16.117  12.657 -0.3291 -0.2214 -0.1536
28700W        W47554   7.055  11.655  12.744  0.1143 -0.1061  0.0465
28701W        W47555  12.253   9.125   3.081  0.0802 -0.1305 -0.0543
28702W        W47556  18.123   4.618   2.763 -0.1609 -0.1400  0.0328
28703W        W47557  17.925   4.743   9.903 -0.0944 -0.1862  0.1187
28704W        W47558  14.777   3.755   1.962  0.1032 -0.0270  0.0995
28705W        W47559   1.080   8.839  14.279 -0.0959 -0.1796 -0.3317
28706W        W47560  11.193  11.093   2.509 -0.0059  0.0884 -0.1194
28707W        W47561   2.002   1.357  12.766  0.1233  0.0330  0.3619
28708W        W47562  11.226  14.310  12.762  0.1186  0.1066 -0.1366
28709W        W47563   8.552   7.724  11.987 -0.2538 -0.0439 -0.0878
28710W        W47564   3.089  15.110  13.256  0.1091  0.0194 -0.0386
28711W        W47565   1.050   1.144   3.137  0.2218 -0.3190 -0.2064
28712W        W47566   0.091   3.743   1.235 -0.0792 -0.0182 -0.1228
28713W        W47567  16.685   2.194  11.354  0.1008  0.1606 -0.3556
28714W        W47568  18.699  16.432   3.895 -0.2004  0.3377  0.1521
28715W        W47569   8.460   2.106  10.489  0.1723  0.3384 -0.1065
28716W        W47570   0.440  15.286   2.812 -0.0343  0.1371 -0.0313
28717W        W47571   7.874   7.833   2.600 -0.0588 -0.1635  0.0778
28718W        W47572   5.958  13.222   0.020  0.0490 -0.0876  0.3389
28719W        W47573   4.391   9.727   3.383 -0.1105 -0.0305  0.0009
28720W        W47574  17.545   9.495   3.955 -0.0469  0.1681 -0.2082
28721W        W47575   6.246  15.103  14.353 -0.1044  0.0563  0.1403
28722W        W47576   5.945  11.659  12.726  0.1250 -0.1846 -0.2288
28723W        W47577  18.242  12.133  13.121  0.0372  0.0037 -0.0920
28724W        W47578   4.914   3.703  12.696  0.1480  0.1153 -0.3876
28725W        W47579  10.512   1.461  14.150  0.1963  0.1075 -0.1539
28726W        W47580   1.006   5.224   4.800 -0.1753 -0.0576  0.2402
28727W        W47581   7.005  12.173   2.585 -0.2907  0.1326  0.1243
28728W        W47582   5.327   1.603  12.556 -0.0244  0.1800  0.0510
28729W        W47583  13.524  12.670  11.209 -0.0049 -0.2341  0.2045
28730W        W47584   5.519  17.400  14.362  0.0309 -0.0972  0.2246
28731W        W47585   9.609   4.532   1.823  0.3588 -0.1463 -0.0523
28732W        W47586  17.953  17.157   3.776 -0.1654 -0.1553  0.2288
28733W        W47587  14.177  14.602  12.249 -0.2851  0.2849  0.0423
28734W        W47588   5.919   3.070   0.607 -0.1228  0.5458  0.0179
28735W        W47589   5.782   6.276   3.009  0.2315  0.0296 -0.1882
28736W        W47590  15.899   0.658   0.532 -0.2127 -0.0512  0.1211
28737W        W47591   8.437   6.631   2.955  0.0341  0.2527  0.1022
28738W        W47592   2.075  10.844  12.288 -0.2393 -0.0631  0.1378
28739W        W47593  12.747   0.239   0.625  0.1235  0.2738  0.0486
28740W        W47594   9.756  18.655   0.902  0.0129 -0.0254  0.2061
28741W        W47595  15.997  18.004   3.567 -0.0507 -0.3080 -0.2968
28742W        W47596  18.310  17.043   2.683 -0.2472 -0.0341 -0.0694
28743W        W47597   5.204   4.447  15.009 -0.0435 -0.1307  0.0585
28744W        W47598   9.231  10.119   4.325  0.0779 -0.1441  0.0397
28745W        W47599   2.259  10.482   4.161  0.4418  0.0360  0.0343
28746W        W47600  12.408  15.294  13.709  0.1998  0.2470 -0.0459
28747W        W47601  12.389   8.591   1.457  0.1956 -0.5545 -0.3230
28748W        W47602  15.860  12.558   1.926  0.1002  0.2343 -0.3105
28749W        W47603  17.256   5.176  13.640 -0.3255  0.0484 -0.0391
28750W        W47604   8.376   2.694   0.656  0.2240 -0.1733  0.2703
28751W        W47605   7.732  13.194  12.247 -0.1239  0.1242  0.0983
28752W        W47606   9.664   5.052  12.738 -0.0060  0.0737  0.1655
28753W        W47607  11.151   8.256  14.339 -0.5498 -0.1568 -0.0758
28754W        W47608  17.865  16.049   5.196 -0.0989  0.3043  0.1948
28755W        W47609   0.447   9.131  14.391 -0.2524 -0.0447  0.2623
28756W        W47610   2.907   9.614  12.523 -0.1000  0.0310  0.1303
28757W        W47611  13.845   8.088   3.003 -0.1240  0.0676  0.0577
28758W        W47612  18.448   6.444   3.993 -0.1453 -0.1425 -0.1743
28759W        W47613   6.557  16.570   1.641  0.0136  0.1301 -0.1166
28760W        W47614  15.296   4.610   3.778  0.3492 -0.0957  0.0270
28761W        W47615   2.130   3.590   3.796  0.1873  0.3028  0.1234
28762W        W47616  13.382   5.847  14.113  0.1643  0.1610 -0.2804
28763W        W47617   5.706   1.947   3.636  0.2683  0.2207 -0.1380
28764W        W47618  11.709   1.425   3.920 -0.0055  0.0614  0.0193
28765W        W47619  18.369   0.685  14.333 -0.0162  0.2308  0.1645
28766W        W47620   3.757   1.598  13.770  0.3101 -0.0429 -0.1124
28767W        W47621   2.668  12.029   2.703 -0.3044 -0.1042  0.1339
28768W        W47622   6.056   2.872  10.821 -0.2057 -0.0749 -0.3293
28769W        W47623   2.818   4.670  14.705 -0.0287  0.0623  0.0535
28770W        W47624  10.358  17.791  13.266  0.1075 -0.1151 -0.1140
28771W        W47625   9.763   7.989   9.569  0.0073  0.1638 -0.0695
28772W        W47626  10.470   3.588  12.601 -0.1442 -0.1921  0.2052
28773W        W47627  11.316  11.089  13.271 -0.2738 -0.0061 -0.1322
28774W        W47628  10.127   5.490   3.199 -0.2289  0.0064  0.2776
28775W        W47629  12.191  10.235  14.363  0.1833 -0.1331 -0.0943
28776W        W47630  16.049  16.030   0.487  0.1560 -0.1120  0.0685
28777W        W47631  16.332   6.606   2.146 -0.0901 -0.1009 -0.1835
28778W        W47632   3.371   0.993   0.716 -0.1440 -0.2723 -0.0257
28779W        W47633   0.472   4.922   4.105  0.0203 -0.4835  0.0726
28780W        W47634   6.678   0.814   4.597 -0.1609  0.0836  0.2447
28781W        W47635   6.925   7.707  12.652  0.0360 -0.1053 -0.3272
28782W        W47636  12.133   8.207   4.154  0.1297 -0.0325  0.3326
28783W        W47637   4.403   8.975   2.627  0.0793 -0.1117 -0.0767
28784W        W47638   7.588   6.454  11.046 -0.2742  0.0360  0.0840
28785W        W47639   5.207  11.719   3.804 -0.1325  0.0935  0.1104
28786W        W47640  11.828   4.472  13.701 -0.2552 -0.1223  0.2621
28787W        W47641   7.641   2.273  15.106 -0.0191 -0.4537  0.0327
28788W        W47642   3.687  15.276   1.872  0.0552  0.1506 -0.1088
28789W        W47643   2.903   4.000  11.402 -0.1296 -0.0848  0.2132
28790W        W47644   1.595   8.308  12.820 -0.1973  0.1592  0.0158
28791W        W47645   6.346   5.645  12.692  0.0174  0.1698  0.1206
28792W        W47646  13.468  18.803  13.719  0.0297 -0.0048 -0.3388
28793W        W47647  13.218   9.121  12.572 -0.0491 -0.0851  0.0490
28794W        W47648  16.924   8.019   4.170 -0.1236 -0.1539  0.0548
28795W        W47649   9.954   5.954   0.804 -0.0961 -0.0514  0.0371
28796W        W47650  15.931  15.699   0.125 -0.1911  0.4603  0.0088
28797W        W47651  11.882   4.597  11.825 -0.0385  0.0207 -0.1441
28798W        W47652   8.590   5.889  14.994  0.1335  0.2188  0.2131
28799W        W47653   7.091  14.500   3.781 -0.0808 -0.2482 -0.1017
28800W        W47654  17.282   6.909  13.910  0.2707  0.1638  0.0339
28801W        W47655  11.570  15.817   0.611 -0.1321 -0.1102 -0.1347
28802W        W47656   0.743   6.429   3.318  0.1327  0.1099 -0.2023
28803W        W47657   8.746  13.173   2.976 -0.3302  0.2053  0.2039
28804W        W47658   5.946   8.459   1.239 -0.3626 -0.1357 -0.1920
28805W        W47659  12.512   3.932  10.971 -0.1568 -0.0665  0.0654
28806W        W47660   3.200   2.539  11.141  0.1694 -0.0189  0.1544
28807W        W47661  10.987   8.431   0.811 -0.1333  0.0907 -0.0988
28808W        W47662  15.782   4.497   2.894  0.2486 -0.1129 -0.0107
28809W        W47663   6.012  11.188   2.889 -0.3105  0.0028  0.0158
28810W        W47664   2.262   7.717  14.178  0.1760  0.1244  0.1781
28811W        W47665   5.515  12.786   1.321  0.3190  0.1235 -0.2787
28812W        W47666   0.494   3.185   0.431 -0.0060  0.0242 -0.0236
28813W        W47667   9.528   5.344   5.331 -0.0179 -0.1083 -0.0392
28814W        W47668   0.023   4.214   1.286 -0.0056  0.0080 -0.3085
28815W        W47669  18.177   5.913   3.213  0.4321  0.0871 -0.0461
28816W        W47670  17.730   9.409   1.594 -0.0782 -0.1530 -0.0595
28817W        W47671  16.000  14.633  10.318  0.2104 -0.1786 -0.2421
28818W        W47672  18.693  11.744  13.287  0.2792  0.0124 -0.0824
28819W        W47673  10.951  11.442  13.412  0.0288 -0.0299 -0.1435
28820W        W47674   0.787   3.409  12.651  0.0319  0.2078 -0.0192
28821W        W47675  15.479  17.659   0.353  0.1592 -0.3219  0.2491
28822W        W47676   6.452   4.406  12.270 -0.2162 -0.2511  0.0374
28823W        W47677  11.012   2.587  10.574 -0.1186 -0.2005  0.1728
28824W        W47678   7.918   1.037  12.460 -0.1198 -0.0688 -0.3621
28825W        W47679  16.803   7.089   2.584  0.1853  0.2045 -0.1506
28826W        W47680  12.208  10.108   1.292 -0.0241  0.0146  0.2627
28827W        W47681   0.789   1.521   0.054 -0.0086 -0.2197 -0.2065
28828W        W47682  13.216  16.240  11.211  0.0417  0.3426 -0.1301
28829W        W47683  14.858   1.366  13.976  0.1492 -0.2009  0.1681
28830W        W47684  18.333  12.725  14.257 -0.0415 -0.0998 -0.3940
28831W        W47685   5.540  10.917  13.859 -0.3340  0.0071  0.1820
28832W        W47686   2.728   0.317   0.678  0.1216  0.2917  0.1705
28833W        W47687  10.350  15.218   3.944 -0.2445 -0.0507  0.2768
28834W        W47688  16.591  10.367  10.746 -0.2537 -0.0574 -0.1996
28835W        W47689  12.581   8.621  13.056 -0.1743 -0.2063 -0.1039
28836W        W47690   6.968   7.965   1.837 -0.1826 -0.1678 -0.2372
28837W        W47691   7.199  16.197   1.188 -0.2209 -0.1420  0.4488
28838W        W47692   6.145   0.296   1.163  0.1036 -0.1793  0.1096
28839W        W47693  15.319  15.048  14.856 -0.0844 -0.0118 -0.0265
28840W        W47694   8.685   4.272   3.914  0.1956 -0.0011  0.2951
28841W        W47695   6.334  12.236  11.417  0.2626 -0.0340  0.0845
28842W        W47696  12.758  14.167  15.095  0.3679  0.3354  0.2395
28843W        W47697   2.316   4.416   0.343  0.0699  0.1752  0.3238
28844W        W47698   5.124  16.825  11.002 -0.0145 -0.2970  0.4337
28845W        W47699  17.690  17.360   0.199 -0.0233  0.2412  0.2621
28846W        W47700   1.296  15.471   2.974  0.4083 -0.0421  0.3790
28847W        W47701   9.572   4.440  11.128 -0.2388  0.0937  0.2500
28848W        W47702  10.304  13.246   0.451  0.3379  0.0603 -0.2261
28849W        W47703  12.482  11.498   0.919 -0.0237  0.2291 -0.1271
28850W        W47704   8.322   9.840   0.122 -0.3866 -0.0493  0.2318
28851W        W47705   3.121  12.817   1.127 -0.0896 -0.0251  0.1555
28852W        W47706   0.867  12.852   2.907 -0.2348 -0.0208 -0.0298
28853W        W47707  18.160  11.193  14.395 -0.1983  0.0528  0.0913
28854W        W47708  10.771   6.278   0.666 -0.0669 -0.2040 -0.0548
28855W        W47709  16.865   6.881   0.051  0.2189 -0.1146  0.3789
28856W        W47710  16.087   7.375  11.206 -0.0178  0.0561  0.0048
28857W        W47711   1.837   5.146  13.578  0.0165 -0.1199 -0.0596
28858W        W47712   9.189   3.775   0.267 -0.1633 -0.1503  0.1058
28859W        W47713   5.564   2.286  11.546  0.2616  0.0547 -0.0154
28860W        W47714  17.407   8.310   2.519  0.0120  0.3821  0.1121
28861W        W47715   5.489  16.288  14.494  0.1087 -0.2520 -0.0522
28862W        W47716  10.772  13.001   0.589  0.0200 -0.0255 -0.1024
28863W        W47717   0.757  18.766   0.959  0.1667 -0.0912 -0.2731
28864W        W47718   0.732  17.762   3.412 -0.0255 -0.1153  0.2629
28865W        W47719   7.538   3.837  12.633  0.2044  0.0264  0.2257
28866W        W47720   6.490   8.115  12.462  0.3664  0.1799  0.1321
28867W        W47721  18.572   0.445  12.150  0.2330  0.2339 -0.3561
28868W        W47722   5.083   7.168   3.868  0.2715  0.0760  0.3277
28869W        W47723  12.237  10.128   3.513  0.2797  0.1740 -0.2218
28870W        W47724   6.031  11.121  13.831  0.0710 -0.1249 -0.0822
28871W        W47725   0.082   7.470   4.085 -0.2586 -0.1845  0.0551
28872W        W47726   0.632  10.154   0.986 -0.0810  0.1576  0.2192
28873W        W47727   2.299  16.201   0.630 -0.0081  0.2219 -0.1195
28874W        W47728  17.597   2.782   3.715 -0.3698 -0.1562 -0.1011
28875W        W47729   1.999   6.622  11.006  0.2638  0.2351  0.0678
28876W        W47730   5.581   2.725  13.320 -0.2433  0.1018  0.1565
28877W        W47731  10.443  12.439  11.928  0.2897  0.0128 -0.3925
28878W        W47732   5.287  17.213   3.304  0.1885 -0.0185 -0.0806
28879W        W47733   7.473   3.484   0.011 -0.1869  0.1102  0.1006
28880W        W47734   4.717   2.628   1.281 -0.1583  0.1472  0.0415
28881W        W47735   5.709   4.966   1.975 -0.1120  0.2539 -0.1940
28882W        W47736  10.961   1.604   4.560 -0.0078 -0.0019 -0.2195
28883W        W47737  16.905  10.153   1.263 -0.1908  0.1840 -0.1778
28884W        W47738   1.341   2.943  14.194 -0.0415 -0.0648 -0.1458
28885W        W47739   3.477  12.518  11.420 -0.1170  0.1265  0.1811
28886W        W47740  17.965  13.737  11.826 -0.0781 -0.2218  0.0163
28887W        W47741   9.155   9.566   4.044  0.0371 -0.1575  0.0204
28888W        W47742   2.579  16.924  10.251 -0.0443 -0.0268 -0.1907
28889W        W47743   4.599  18.180   0.283 -0.1642 -0.1546  0.0528
28890W        W47744  13.134   3.479   0.378 -0.0590  0.1349  0.0632
28891W        W47745   6.041  16.597  15.067  0.3390  0.2544 -0.1602
28892W        W47746   7.829   7.514   0.046 -0.0928  0.1250  0.3146
28893W        W47747  17.954   8.470   1.560  0.2925  0.1236  0.1998
28894W        W47748  17.258  13.945  14.002  0.3098  0.2806  0.4380
28895W        W47749   9.957   6.957   0.719  0.0360 -0.0940 -0.0950
28896W        W47750  11.170   0.874  11.844 -0.0359 -0.1712 -0.1289
28897W        W47751   7.849  13.322   2.124  0.0845 -0.0837  0.1732
28898W        W47752   4.413   7.571  13.775  0.1029 -0.2417 -0.1489
28899W        W47753  11.662   4.439   2.653  0.0710  0.4979  0.1931
28900W        W47754  12.958   5.323  13.005 -0.0123 -0.0471  0.2852
28901W        W47755  18.462  11.830  10.536  0.3796 -0.2118 -0.0974
28902W        W47756   5.224   0.239   4.431  0.4259 -0.1623  0.2979
28903W        W47757   7.068   0.795   3.220  0.1207  0.0095  0.0724
28904W        W47758  17.289   0.071  11.895 -0.0054 -0.2358  0.2350
28905W        W47759  18.304   5.944  12.600  0.1541  0.4092 -0.0541
28906W        W47760   6.602  17.214   1.812  0.2193 -0.2339 -0.1957
28907W        W47761   8.447  12.638   2.533  0.1385  0.1725 -0.0605
28908W        W47762   5.605  16.508  12.797 -0.1210 -0.1424  0.0927
28909W        W47763  16.044   1.797  11.097  0.0536 -0.1634 -0.1033
28910W        W47764  11.325   7.431  13.498 -0.0596  0.1186 -0.0481
28911W        W47765  12.413   5.366   4.372 -0.1157 -0.1598  0.2929
28912W        W47766   2.085  10.747  14.099 -0.3104 -0.0866  0.1453
28913W        W47767  18.055   3.470  12.130 -0.1878  0.0833 -0.0382
28914W        W47768  12.001   3.601   2.395  0.0899  0.1761  0.1148
28915W        W47769   4.756   7.491   0.871  0.3692  0.1484 -0.3786
28916W        W47770  18.052   9.316   3.656 -0.0719 -0.1424  0.1556
28917W        W47771  16.078   5.142  10.814  0.1416 -0.1278 -0.1440
28918W        W47772   0.817  15.612   4.113 -0.2522 -0.0641  0.2778
28919W        W47773  14.427   1.766  11.796  0.0230 -0.1565 -0.0599
28920W        W47774   6.941   7.966  14.172  0.0010 -0.0837 -0.1606
28921W        W47775   5.241   2.056   3.763 -0.1493  0.0124 -0.1119
28922W        W47776   8.834  17.052  14.273  0.1316  0.0892  0.1826
28923W        W47777   6.563   2.341   3.799  0.2008  0.2686  0.1500
28924W        W47778   8.722  11.342   4.273  0.2616 -0.0444  0.1620
28925W        W47779  11.508   1.787   3.643  0.3959  0.0124  0.0467
28926W        W47780  13.962  12.658  12.450  0.1004 -0.2897  0.0884
28927W        W47781   3.768  17.240  10.696  0.1189 -0.1811  0.1861
28928W        W47782   1.981   2.153  11.471  0.2670  0.2209 -0.1034
28929W        W47783  10.667  14.204   4.540  0.2667  0.1823 -0.1624
28930W        W47784  16.295   3.459   1.210 -0.0300  0.0698 -0.0063
28931W        W47785   0.704  18.048   0.436 -0.0080 -0.1916  0.0744
28932W        W47786  11.598   5.283   0.349 -0.2647  0.0329 -0.2608
28933W        W47787  15.549   9.774  12.268 -0.2679 -0.1816  0.2949
28934W        W47788  15.248  12.525  12.108  0.0530 -0.0279  0.4273
28935W        W47789   7.134   3.891  11.306  0.1853 -0.1176  0.0411
28936W        W47790  14.416   5.294   2.826 -0.2488  0.0782  0.1623
28937W        W47791   5.113   3.479   0.509 -0.0352  0.3091 -0.0994
28938W        W47792  10.759   3.858  10.944  0.0611 -0.1841  0.2780
28939W        W47793   2.093   0.773   0.048  0.0538 -0.2110  0.1631
28940W        W47794  15.489   8.072   3.706  0.0360 -0.0762  0.0028
28941W        W47795  11.159  12.016  12.926  0.0347  0.0794  0.0405
28942W        W47796  14.991   3.451  10.521  0.0274 -0.1821  0.2221
28943W        W47797   1.595  13.620  14.271 -0.3026 -0.3011 -0.1596
28944W        W47798   7.322   3.873   0.376  0.1945  0.2587 -0.0110
28945W        W47799  18.116  10.746  12.530  0.0258  0.2244  0.1811
28946W        W47800  15.953  12.476   0.410  0.0969  0.3958  0.1442
28947W        W47801  10.074   9.776  11.095  0.2073  0.0773 -0.2477
28948W        W47802  16.846   1.669   4.021  0.0172  0.2223 -0.0733
28949W        W47803   1.479   2.458  14.298  0.0843  0.0581  0.0816
28950W        W47804  10.275  18.525  14.499 -0.1895  0.0613 -0.1956
28951W        W47805  11.753   2.322   1.151 -0.1609  0.2359 -0.0333
28952W        W47806  13.466  10.911   2.882 -0.2027 -0.2536  0.3817
28953W        W47807  17.309   9.035   3.834 -0.0708 -0.0157  0.1597
28954ION     NA47808  10.236   2.232   3.720  0.2998 -0.0126 -0.2826
28955ION     NA47809  14.163   4.903   5.523 -0.1021  0.2727  0.1230
28956ION     NA47810   3.056  11.385  13.365  0.0203  0.4238 -0.0907
28957ION     NA47811  16.029   8.299  10.189  0.2951  0.0919 -0.0503
28958ION     NA47812  17.070   2.996   2.038  0.0553 -0.1200  0.0530
28959ION     NA47813  15.742  15.637   3.166 -0.0805  0.0765  0.2091
28960ION     NA47814  11.944  12.642  14.188 -0.0828  0.1201 -0.0145
28961ION     NA47815   6.380   6.759  13.708  0.2544 -0.1159  0.2991
28962ION     NA47816   8.473  16.692  13.659 -0.1066 -0.0379  0.1657
28963ION     NA47817   4.048   7.005   5.357 -0.1498 -0.0025  0.1551
28964ION     NA47818   0.684  18.022   5.144 -0.2283  0.0861  0.0755
28965ION     NA47819  14.874   4.954   1.576 -0.2195  0.1165 -0.0574
28966ION     NA47820  13.825  17.946  10.278  0.2326 -0.1889 -0.0314
28967ION     NA47821  10.189  16.829   9.848  0.0122  0.0783  0.0851
28968ION     NA47822  14.729  16.198   5.267  0.0197 -0.3827 -0.1403
28969ION     NA47823   8.763  16.717   9.754  0.0944 -0.2437 -0.1389
28970ION     NA47824  15.620  17.838  10.078 -0.1453 -0.1942 -0.0831
28971ION     NA47825  18.204  15.941  11.169  0.1690  0.1581  0.1575
28972ION     NA47826  17.898   9.631  10.871 -0.1461 -0.0457 -0.0451
28973ION     NA47827   0.721  14.643  14.889  0.0265 -0.6625 -0.1841
28974ION     NA47828   3.931   0.589  10.529 -0.0635 -0.2215  0.0333
28975ION     NA47829  11.410  11.852  10.420 -0.0383 -0.0196 -0.3046
28976ION     NA47830   2.761   4.148  14.615  0.1107  0.1282  0.0806
28977ION     NA47831  11.574  12.340  12.783  0.0877 -0.1084 -0.0030
28978ION     NA47832   4.223  12.718   9.877  0.0992  0.0293  0.0584
28979ION     NA47833  15.495   6.938   5.024 -0.2132  0.0500 -0.1329
28980ION     NA47834  15.370   3.119   5.265 -0.0519  0.1235 -0.0674
28981ION     NA47835   5.761   6.809   5.400  0.1843  0.0446  0.1599
28982ION     NA47836   7.985   6.156  14.720 -0.1289  0.1479 -0.1838
28983ION     NA47837  10.700   2.919  10.423  0.0156 -0.3925  0.0593
28984ION     NA47838   8.041  17.580   4.157 -0.1225  0.0040  0.1361
28985ION     NA47839  18.785   3.400  10.176 -0.4616  0.1029 -0.0813
28986ION     NA47840  17.133   3.201   4.490 -0.0189  0.1019  0.0614
28987ION     NA47841  14.382  10.624   0.357 -0.0249  0.2635 -0.2722
28988ION     NA47842   1.616   4.765   9.467  0.1671  0.2390  0.0664
28989ION     NA47843   5.643   8.685   9.873 -0.0251 -0.0406  0.0048
28990ION     NA47844   0.811   6.502   1.555 -0.0201  0.1398  0.2775
28991ION     NA47845  18.821   6.069   0.556 -0.0372  0.0328  0.0050
28992ION     NA47846   0.483  11.136   3.926 -0.1346 -0.1297  0.0730
28993ION     NA47847   8.920  10.578  14.060 -0.1009  0.0611  0.1717
28994ION     NA47848  10.749  12.581   5.175  0.0692  0.0510  0.1243
28995ION     NA47849   4.701   4.660  10.148  0.0399 -0.2032 -0.2059
28996ION     NA47850   8.496  13.549  14.729  0.3853  0.1945 -0.0905
28997ION     NA47851   6.462   0.265   5.399 -0.1220 -0.0032  0.1529
28998ION     NA47852   1.588  15.819  14.198 -0.2412  0.0266 -0.1412
28999ION     NA47853   0.417  12.111   9.707 -0.2950  0.0016  0.2603
29000ION     NA47854   0.314   4.799   9.778 -0.2876 -0.1578  0.1625
29001ION     NA47855   7.315  10.228   2.078  0.0019  0.0452 -0.2183
29002ION     NA47856   6.895   6.304   1.673 -0.2909 -0.2876  0.0006
29003ION     NA47857   9.413  10.218   5.126  0.0573  0.0548 -0.0632
29004ION     NA47858  16.340   2.759  11.197  0.0588 -0.0134 -0.1185
29005ION     NA47859   6.752   6.076  13.218  0.0241  0.1352 -0.3328
29006ION     NA47860   9.037   5.072   2.237 -0.1343  0.0158 -0.0999
29007ION     NA47861   9.572   6.340   5.449  0.1652  0.0651  0.1386
29008ION     NA47862   2.044   0.557  10.349 -0.1948 -0.0024  0.2033
29009ION     NA47863   0.758   2.786   0.251  0.0637 -0.1284  0.2734
29010ION     NA47864  11.531  13.541  15.028  0.0199  0.0090 -0.2174
29011ION     NA47865  13.872  10.967  10.768 -0.0893 -0.0572 -0.1233
29012ION     NA47866   3.426   3.395  10.310 -0.1175 -0.1782  0.0680
29013ION     NA47867   5.420   9.664   9.736 -0.0281  0.3013 -0.0621
29014ION     NA47868  10.718   9.272   5.353  0.2656  0.2654 -0.1348
29015ION     NA47869  18.021  11.973   9.702  0.1243  0.2414 -0.2130
29016ION     NA47870   5.179   7.074   5.305  0.0215  0.1543 -0.1349
29017ION     NA47871   0.622   2.049  10.319  0.0260 -0.2920 -0.0678
29018ION     NA47872  17.973   7.410   5.309  0.0556  0.1973  0.0660
29019ION     NA47873   6.821  17.511  10.085 -0.0094 -0.4445  0.1113
29020ION     NA47874  15.949   9.217  10.237 -0.1166  0.3173  0.1514
29021ION     NA47875   5.987  14.865  13.181  0.4724  0.1474  0.1455
29022ION     NA47876   2.881  12.040   0.704  0.0140 -0.0923  0.1762
29023ION     NA47877   1.628   7.637   3.259 -0.0249 -0.1232 -0.1008
29024ION     NA47878   2.779   4.120   1.571 -0.0178 -0.1120 -0.1594
29025ION     NA47879   0.794   3.882   0.162 -0.0973 -0.1642  0.0462
29026ION     NA47880  12.317   1.511  11.679  0.2612  0.1205 -0.0037
29027ION     NA47881  13.079  16.157  10.191  0.2914  0.1918  0.1175
29028ION     NA47882  16.416  17.516  10.185 -0.2278  0.0013 -0.2720
29029ION     NA47883  17.100  18.132   5.368  0.1400  0.3235  0.0741
29030ION     NA47884   8.231   7.259  14.415  0.0195 -0.1368  0.1536
29031ION     NA47885  16.269   1.446  12.459  0.3314  0.1110 -0.0135
29032ION     NA47886   3.338  13.092   4.776 -0.2713 -0.0177  0.1568
29033ION     NA47887   1.507  14.773  12.269  0.0066  0.3889 -0.3123
29034ION     NA47888  15.543   5.676   1.774 -0.1313 -0.3425 -0.0221
29035ION     NA47889  16.506  11.978   1.138 -0.0945 -0.0809  0.1267
29036ION     NA47890   2.821   3.122  13.227  0.0310 -0.0228  0.1077
29037ION     NA47891   7.766   2.645  12.154 -0.2646  0.1483 -0.0814
29038ION     NA47892  17.422  17.069  13.519 -0.0873 -0.0279  0.1544
29039ION     NA47893  14.946   1.571   1.746 -0.0923  0.3388  0.0551
29040ION     NA47894   3.671  14.559  12.127  0.1189  0.1895 -0.1267
29041ION     NA47895  10.396  17.835   9.817  0.0219  0.0385 -0.1755
29042ION     NA47896   9.867  12.969   5.250  0.0332  0.2361 -0.0487
29043ION     NA47897   0.011  17.549  10.315  0.0457 -0.0202 -0.0021
29044ION     NA47898   9.058  13.199  11.553  0.4083  0.0284 -0.4178
29045ION     NA47899   9.847   0.757  12.794  0.5618  0.1447 -0.2009
29046ION     NA47900   8.859  12.926   5.130  0.0735 -0.2219  0.0533
29047ION     NA47901  18.853   9.729  14.454 -0.0652 -0.1825 -0.3250
29048ION     NA47902   3.274  18.148  10.312  0.2995  0.1374 -0.2201
29049ION     NA47903   3.748  13.915  10.599  0.2592 -0.0035 -0.0700
29050ION     NA47904  14.188   3.650  13.737 -0.0768 -0.0949 -0.1967
29051ION     NA47905   8.420   0.063   4.376  0.0057 -0.1645  0.2997
29052ION     NA47906  12.527   4.671  14.466  0.1026 -0.1125  0.2779
29053ION     NA47907  15.881   1.475   9.921  0.3772 -0.2067  0.1542
29054ION     NA47908   3.674  13.611   0.652 -0.0120 -0.1476 -0.1123
29055ION     NA47909  14.357  17.943   4.951 -0.0467 -0.1270  0.1267
29056ION     NA47910   9.608   4.598   5.444 -0.1440  0.1337 -0.0063
29057ION     NA47911   0.735   1.604   2.727 -0.3196  0.0156  0.1808
29058ION     NA47912   9.298   5.926   1.392  0.1067 -0.3514 -0.0445
29059ION     NA47913  15.205  12.164   0.105 -0.1397 -0.0619  0.2876
29060ION     NA47914   9.697   1.536  10.300  0.2463 -0.0596  0.0698
29061ION     NA47915   3.185  18.457  13.192  0.0396  0.0265  0.4164
29062ION     NA47916  12.772  14.059   0.512  0.1624 -0.0547  0.1002
29063ION     NA47917   0.047   6.507   5.059  0.0333 -0.0191  0.3718
29064ION     NA47918  14.161  15.428   5.416 -0.0970  0.3695 -0.0902
29065ION     NA47919  12.968   2.214   5.385  0.0524 -0.0047 -0.3381
29066ION     NA47920  13.360  11.349   2.604 -0.1521 -0.1863 -0.1017
29067ION     NA47921   3.139   7.992  10.284 -0.0769 -0.0164 -0.1029
29068ION     NA47922  16.208   8.468   0.486 -0.0440  0.1160  0.0890
29069ION     NA47923   4.763  15.253   9.668  0.0536 -0.1467  0.3042
29070ION     NA47924   3.837  10.191   9.948  0.3154 -0.0324  0.1736
29071ION     NA47925   0.625   7.367   5.254 -0.0018 -0.1263  0.0950
29072ION     NA47926  10.027   7.029   5.310 -0.1004 -0.1852  0.0890
29073ION     NA47927   0.779  13.603   1.891  0.0846 -0.2709 -0.2017
29074ION     NA47928   4.090   6.162  11.061 -0.2034 -0.0326 -0.0509
29075ION     NA47929  10.500   4.508   3.347 -0.0230 -0.1919 -0.3170
29076ION     NA47930   4.351  12.690   4.940 -0.3690  0.1895 -0.1953
29077ION     NA47931   9.458  14.702   5.137  0.0240 -0.3659 -0.3445
29078ION     NA47932   1.409  10.187   4.932 -0.2057 -0.0209  0.2453
29079ION     NA47933   2.154   8.704   4.588  0.3268  0.4791  0.1127
29080ION     NA47934  16.024   4.931   5.149  0.1327  0.1685 -0.3191
29081ION     NA47935  13.644   3.594   1.807  0.1134 -0.1685  0.1944
29082ION     NA47936   6.188  16.899  12.814  0.0143  0.0343  0.0871
29083ION     NA47937   3.017   7.101   4.974 -0.2282 -0.0901  0.1593
29084ION     NA47938  12.000   6.524   0.154 -0.2287  0.1306  0.3348
29085ION     NA47939   3.515  16.662  13.678  0.0723 -0.0656 -0.1172
29086ION     NA47940   9.776   6.215  13.083  0.4431  0.4015 -0.2868
29087ION     NA47941  17.846   6.644   3.827  0.0056 -0.2292  0.3010
29088ION     NA47942  12.023   0.246   2.325  0.3262  0.1997  0.1407
29089ION     NA47943  11.341   5.796   0.019 -0.1086  0.1032  0.2113
29090ION     NA47944  17.574  15.293   0.133  0.0257 -0.1102 -0.0250
29091ION     NA47945   9.812   5.302  10.270  0.0628  0.5055 -0.1740
29092ION     NA47946   8.287  15.596  13.715 -0.1199  0.0678 -0.4153
29093ION     NA47947  18.489  14.566   4.957 -0.0198  0.2310 -0.1960
29094ION     NA47948  13.754  13.669   5.332  0.1282 -0.1887 -0.0441
29095ION     NA47949   9.355  17.585   1.632 -0.0896  0.1396 -0.0923
29096ION     NA47950   2.212   8.453  10.043  0.0787 -0.3452 -0.1713
29097ION     NA47951  10.502   1.216   5.490 -0.0258  0.0908 -0.0185
29098ION     NA47952   2.200  15.719   9.791  0.2389  0.3187  0.0640
29099ION     NA47953   7.364  18.814   5.402 -0.0137  0.0842 -0.0006
29100ION     NA47954  11.662  15.237  10.000 -0.0388  0.1800  0.0400
29101ION     NA47955  10.954   6.972   5.129 -0.0949  0.1207 -0.0389
29102ION     NA47956  14.519  11.383   1.026 -0.0415  0.0266  0.0828
29103ION     NA47957   2.643   5.634   0.456 -0.0920 -0.2550 -0.1469
29104ION     NA47958  11.984  10.522  12.135 -0.2759 -0.3312  0.0918
29105ION     NA47959  13.446   5.269   5.607 -0.0354  0.2145 -0.0262
29106ION     NA47960  13.567  13.313   9.876  0.2640 -0.1541 -0.1700
29107ION     NA47961  11.973  17.360  10.230  0.0072  0.2915 -0.1086
29108ION     NA47962   1.346   0.273   5.145 -0.0502 -0.5042  0.4279
29109ION     NA47963   3.585   3.309   3.032 -0.1722 -0.0637 -0.1874
29110ION     NA47964   7.282  12.655   1.096  0.1531  0.0397  0.0108
29111ION     NA47965   3.333  17.090   0.583 -0.0161 -0.0213 -0.1759
29112ION     NA47966  13.211   8.076  10.021  0.2734  0.1548 -0.0256
29113ION     NA47967   9.053  17.412   1.076 -0.1171 -0.1278 -0.0805
29114ION     NA47968  13.162   9.622   5.169 -0.1042 -0.0434 -0.1499
29115ION     NA47969   1.327   4.662   5.377  0.1541  0.1296  0.3444
29116ION     NA47970   7.220  12.033  10.166  0.1106 -0.1002 -0.1721
29117ION     NA47971  12.021  11.833  14.263  0.1118 -0.2156  0.1286
29118ION     NA47972   6.944   5.337   5.180  0.1378 -0.1053  0.0446
29119ION     NA47973   4.345  17.968  10.209  0.6216  0.3561 -0.1740
29120ION     NA47974   8.713  14.927   3.454  0.0787 -0.0333 -0.1242
29121ION     NA47975  13.394   2.159   0.172  0.0682 -0.0727  0.0103
29122ION     NA47976  16.037  13.916   5.190 -0.4082 -0.1660  0.1448
29123ION     NA47977  16.983   3.421   0.346  0.3232 -0.0601  0.0491
29124ION     NA47978  17.519  17.322   3.345 -0.0630  0.3664  0.2463
29125ION     NA47979  13.526   1.799   1.167 -0.1293  0.0787 -0.0185
29126ION     NA47980  11.613   3.851   3.992 -0.0790 -0.0789 -0.3534
29127ION     NA47981  14.035  17.045  12.473 -0.1223  0.1023  0.0376
29128ION     NA47982   4.542  17.967   4.284 -0.1287  0.1004 -0.2175
29129ION     NA47983   7.016   1.070   2.781  0.0054  0.1372 -0.4724
29130ION     NA47984  12.250  17.360   5.309  0.3339 -0.0552 -0.1387
29131ION     NA47985  13.133   0.956   5.154 -0.0879 -0.0846 -0.1429
29132ION     NA47986  16.337  18.816   0.296 -0.0867 -0.1554  0.1185
29133ION     NA47987  17.708   0.480   0.323  0.1556  0.1376  0.1636
29134ION     NA47988   2.734   4.409   4.132  0.1998 -0.1609  0.1127
29135ION     NA47989   2.275   0.357  13.765  0.1504  0.2663 -0.1490
29136ION     NA47990   4.591  16.505   9.870 -0.2174 -0.0395  0.1364
29137ION     NA47991  14.415  10.842  12.312  0.0377  0.1865 -0.1386
29138ION     NA47992   8.970   0.870   9.912  0.3683 -0.0186 -0.1103
29139ION     NA47993  12.329   0.173  13.598  0.1281  0.4128 -0.2505
29140ION     NA47994  17.881   8.185   5.203  0.0265  0.1066 -0.1362
29141ION     NA47995  11.410   5.403  10.098 -0.1249  0.2683  0.0359
29142ION     NA47996  13.551   1.278  11.560  0.1241  0.2743  0.1822
29143ION     NA47997  14.267   2.210   2.742 -0.1679  0.0478 -0.3861
29144ION     NA47998   9.688   1.169   1.779 -0.3942 -0.0777  0.1815
29145ION     NA47999  11.422   4.227  10.083  0.1709 -0.1602 -0.0019
29146ION     NA48000  12.194  13.461  12.975 -0.1198  0.0658  0.0138
29147ION     NA48001   2.758   5.513  10.509  0.1893  0.2277  0.2584
29148ION     NA48002   4.341  14.178   4.762  0.1713  0.0697 -0.0383
29149ION     NA48003   6.488  10.963  12.995 -0.1337  0.2326  0.0633
29150ION     NA48004   4.950  15.000   1.311 -0.3112  0.1915 -0.1352
29151ION     NA48005  18.668   7.727   5.095 -0.0077 -0.0026 -0.4252
29152ION     NA48006   3.095  17.203   4.812  0.0276 -0.1611 -0.3314
29153ION     NA48007   5.730  17.384   5.405 -0.4048 -0.1018 -0.2822
29154ION     NA48008  17.529   0.380  10.974 -0.0739  0.4840 -0.0208
29155ION     NA48009  18.609  11.482   0.593 -0.1806  0.0091  0.1331
29156ION     NA48010   9.396  13.767  10.138  0.2681  0.1288 -0.1515
29157ION     NA48011   2.163  12.845  12.339  0.0819  0.2820 -0.0217
29158ION     NA48012   0.342   4.832   2.756  0.0710 -0.0936  0.0914
29159ION     NA48013  11.421  18.032   2.009  0.0406 -0.0394  0.1118
29160ION     NA48014  18.447   6.676   1.505 -0.2327  0.1238  0.0109
29161ION     NA48015  12.005  16.586  10.870 -0.1936 -0.0446 -0.0850
29162ION     NA48016  13.539  16.796   5.212 -0.0147  0.3546  0.1737
29163ION     NA48017   5.893   2.672  10.326 -0.1831  0.2147  0.0121
29164ION     NA48018  14.108   3.795   5.309  0.1257 -0.0181 -0.3584
29165ION     NA48019   5.022   1.074   5.355 -0.0003 -0.1048 -0.0770
29166ION     NA48020   7.196  10.909   0.573  0.1069  0.0104  0.3917
29167ION     NA48021   2.107   7.090   5.177  0.2746  0.2852 -0.1247
29168ION     NA48022   9.838  16.351   9.946  0.0315  0.1325  0.2117
29169ION     NA48023   6.102   2.084   0.669  0.0307 -0.0648  0.1930
29170ION     NA48024  10.237   8.211  13.264 -0.1166  0.1850 -0.3525
29171ION     NA48025   4.853  13.846  11.129 -0.0539 -0.0314 -0.1477
29172ION     NA48026  12.039  10.209  13.820  0.2086 -0.1586  0.1652
29173ION     NA48027   2.201   5.343   1.843 -0.2783  0.0358 -0.1109
29174ION     NA48028  17.365  17.122  14.504  0.1003 -0.1122  0.2847
29175ION     NA48029  17.299  10.838   9.756  0.0243  0.2211 -0.1062
29176ION     NA48030  13.785   3.854  13.076  0.1396  0.0249  0.0014
29177ION     NA48031   2.404  14.582   9.523  0.0014 -0.1166 -0.0518
29178ION     NA48032   6.084  11.357  10.059 -0.0981 -0.0491  0.1957
29179ION     NA48033   0.474   6.178   9.609 -0.1580  0.2045  0.0900
29180ION     NA48034   2.441  14.465   3.135 -0.1433 -0.1307 -0.2876
29181ION     NA48035  18.023   4.836   4.136  0.2164 -0.1943  0.2124
29182ION     NA48036   2.576  17.521  10.228  0.0906  0.2513  0.0907
29183ION     NA48037   4.715  10.163   9.639 -0.1683  0.1628 -0.3140
29184ION     NA48038  17.169   1.154  12.727  0.0889 -0.0094 -0.0601
29185ION     NA48039  12.752  18.356   4.603 -0.0197  0.1168 -0.1445
29186ION     NA48040  15.079   4.252   2.624 -0.2113 -0.0023  0.0250
29187ION     NA48041  18.720   0.528  10.008 -0.0315  0.0523 -0.0973
29188ION     NA48042   9.530   0.182  10.027 -0.0048 -0.0075  0.3220
29189ION     NA48043   6.906   5.606   2.845  0.0575  0.1672 -0.0472
29190ION     NA48044  16.810  13.100   3.605  0.0635  0.0847  0.0744
29191ION     NA48045  11.162  16.871   9.876 -0.2465 -0.1076  0.0584
29192ION     NA48046   1.338   1.497  13.620  0.1445  0.1484 -0.1084
29193ION     NA48047   7.785  11.555   4.984  0.1455  0.1836 -0.1776
29194ION     NA48048  10.803  15.146  13.919  0.0905  0.1416 -0.0272
29195ION     NA48049  13.553  17.025  10.115 -0.3425 -0.2297 -0.2789
29196ION     NA48050   7.961  10.963  12.049  0.0501 -0.1547  0.2180
29197ION     NA48051  11.980   8.236   1.557 -0.0863 -0.2489  0.0014
29198ION     NA48052   0.158   3.911   4.343  0.1203  0.1281 -0.0954
29199ION     NA48053   4.912   7.695  10.095 -0.1244  0.1558  0.0209
29200ION     NA48054  13.184   2.650  10.304 -0.1268 -0.1417 -0.1745
29201ION     NA48055  17.263   2.217   9.957 -0.0746 -0.2240 -0.3266
29202ION     NA48056  11.000  15.661   2.207 -0.0096 -0.4537 -0.2638
29203ION     NA48057  17.712   0.291   1.734  0.0671 -0.1243  0.3954
29204ION     NA48058   6.568   4.359   1.288 -0.0756  0.2126  0.1694
29205ION     NA48059  12.285   8.392   1.993 -0.1286  0.0049  0.0059
29206ION     NA48060   5.080   7.458  14.420  0.1434 -0.0611  0.0390
29207ION     NA48061  15.362  15.465  10.086  0.0771  0.3366  0.0161
29208ION     NA48062  18.739   0.729   5.179  0.2037  0.1452  0.0044
29209ION     NA48063   4.685   3.348   5.367  0.0400  0.2154 -0.2217
29210ION     NA48064   8.308   1.269  12.697 -0.0416 -0.0166  0.2796
29211ION     NA48065   3.498   5.341  10.184 -0.1160 -0.1716  0.3562
29212ION     NA48066  14.442  12.438   5.035  0.1416  0.0105 -0.0716
29213ION     NA48067  13.916   0.216  10.134  0.1518 -0.0658 -0.0228
29214ION     NA48068  14.691   1.961  11.424  0.1247  0.0126 -0.3401
29215ION     NA48069   3.905   6.120   5.360 -0.1698  0.1426 -0.2000
29216ION     NA48070  15.388   6.575  14.229 -0.0871 -0.2518  0.4150
29217ION     NA48071   0.228  12.770  11.687 -0.1249  0.2240  0.0641
29218ION     NA48072   6.813  17.771  15.105 -0.0481  0.1022 -0.1573
29219ION     NA48073   9.883  17.316   2.578  0.1611  0.1011  0.0630
29220ION     NA48074   3.474  13.682  12.198 -0.1769 -0.3588 -0.1272
29221ION     NA48075   0.519   3.768   9.911  0.2830  0.0383 -0.2398
29222ION     NA48076   1.474   3.341   0.423 -0.1648 -0.2084  0.1054
29223ION     NA48077   1.429   2.410   5.306  0.2627 -0.1516  0.1706
29224ION     NA48078   0.704  13.077   4.830 -0.0589  0.2271 -0.0510
29225ION     NA48079   0.713  13.936   9.684 -0.0057 -0.2468  0.0921
29226ION     NA48080  17.552   8.209   9.730 -0.1537  0.2362 -0.3162
29227ION     NA48081   2.856   4.188   9.880 -0.0797 -0.1948  0.1443
29228ION     NA48082   7.152  10.611  10.010 -0.0210  0.2496  0.1166
29229ION     NA48083  13.258   0.313  14.064 -0.1055 -0.1392  0.4334
29230ION     NA48084   5.002   5.952   9.933  0.0549  0.0467 -0.0682
29231ION     NA48085   7.767   0.617   5.562 -0.0759  0.0197  0.0654
29232ION     NA48086   8.358  14.254  13.362 -0.0054  0.1761 -0.4443
29233ION     NA48087  15.039  12.875   4.823  0.3263  0.3415 -0.0654
29234ION     NA48088  17.121  16.051  11.031  0.1584  0.2428 -0.0547
29235ION     NA48089   0.928   3.900   5.384 -0.2261  0.1030  0.1744
29236ION     NA48090   8.300   9.915  12.715  0.0767 -0.0044 -0.0654
29237ION     NA48091   9.546  12.287  10.370 -0.2958  0.1483 -0.1370
29238ION     NA48092   4.784   2.821  11.436 -0.1866  0.1250 -0.2064
29239ION     NA48093   4.050   5.333  10.569 -0.1450  0.1815  0.1026
29240ION     NA48094   7.562   6.775   5.353  0.0436 -0.3540  0.2809
29241ION     NA48095   8.860  12.690  10.331 -0.1202 -0.1294  0.0300
29242ION     NA48096   3.310   8.098   4.873  0.0409 -0.1186  0.3426
29243ION     NA48097   7.675   2.470   5.497 -0.4215 -0.1458  0.2746
29244ION     NA48098   6.683   3.835  10.269 -0.1137  0.0980  0.4697
29245ION     NA48099   5.887   5.735  10.188  0.0982  0.3948  0.1200
29246ION     NA48100  14.221   2.444  10.103 -0.0544 -0.1924  0.1200
29247ION     NA48101  18.806  12.253   4.708  0.1777  0.1384 -0.0081
29248ION     NA48102  15.076  17.223   5.189  0.1658  0.1237  0.1081
29249ION     NA48103   9.386   3.719  10.432 -0.1449  0.0423 -0.0035
29250ION     NA48104  13.747   3.111  13.659  0.0444  0.1766 -0.0873
29251ION     NA48105   2.676  17.275   2.658 -0.1423 -0.1600  0.1087
29252ION     NA48106  10.942  12.930  12.801 -0.4111 -0.1460 -0.2199
29253ION     NA48107   3.016  15.054   9.653  0.0790 -0.3455 -0.4028
29254ION     NA48108   6.344   3.815  14.484 -0.0306 -0.0827 -0.3681
29255ION     NA48109  17.900  16.769  12.393  0.3245  0.4296  0.0640
29256ION     NA48110   6.221  17.139  10.319  0.0622 -0.1156  0.0331
29257ION     NA48111   0.133   5.802   1.883  0.2985 -0.1051  0.0319
29258ION     NA48112  17.526   5.917   9.706 -0.0074 -0.0622 -0.1027
29259ION     NA48113   8.607   8.992   5.082 -0.0555 -0.0967 -0.0003
29260ION     NA48114  13.247   6.390  10.147  0.0467 -0.0402  0.2470
29261ION     NA48115   8.818   9.963  10.054 -0.2544 -0.3869 -0.0790
29262ION     NA48116   4.315   7.028   9.977  0.0433  0.0400  0.0060
29263ION     NA48117   5.976   2.751   0.122 -0.0062 -0.0708 -0.0371
29264ION     NA48118  17.602  11.521   4.985  0.0451  0.0860  0.3627
29265ION     NA48119   7.083   2.849   1.240 -0.0172  0.1867 -0.1142
29266ION     NA48120   1.153  13.781   5.020 -0.0701  0.2288  0.2108
29267ION     NA48121   1.390   8.906  13.394  0.0576 -0.1380 -0.1398
29268ION     NA48122   9.421   5.600  10.430 -0.3103 -0.0360 -0.0308
29269ION     NA48123  10.538   8.261   3.627 -0.0287  0.1406  0.1561
29270ION     NA48124   2.180  16.583   5.000 -0.0107  0.1082  0.0841
29271ION     NA48125   1.274   7.800  13.848 -0.1877 -0.1695 -0.1805
29272ION     NA48126   7.758   8.770   5.344 -0.3761  0.0147  0.3198
29273ION     NA48127   2.777   6.337   5.232 -0.3458 -0.0314  0.0380
29274ION     NA48128   7.139  10.580   5.006 -0.1176  0.1559 -0.3808
29275ION     NA48129   4.357  10.817   4.642 -0.2083  0.0036 -0.3352
29276ION     NA48130   7.797   1.568  10.152  0.0738  0.0577 -0.1628
29277ION     NA48131   8.582   0.475   5.182  0.0927 -0.0688 -0.0885
29278ION     NA48132  12.529   1.608  13.651  0.1119 -0.1174  0.2941
29279ION     NA48133  10.384  14.162  13.572  0.1029  0.0513 -0.1027
29280ION     NA48134  10.492  13.254   4.325 -0.3344 -0.3753 -0.2905
29281ION     NA48135  11.597   3.243  10.185 -0.1218 -0.1536 -0.1812
29282ION     NA48136   1.183   7.334   5.168  0.0650 -0.1171 -0.4034
29283ION     NA48137  14.521   8.398   5.048 -0.1122  0.1865  0.2278
29284ION     NA48138   1.171  13.723   1.638 -0.1255  0.2198 -0.0840
29285ION     NA48139   8.471  18.463   2.989  0.4473  0.0335 -0.1761
29286ION     NA48140   6.900  12.114  12.948  0.1104  0.0621  0.0432
29287ION     NA48141  16.921   6.565   1.346  0.0740  0.3827  0.2617
29288ION     NA48142  10.175   9.639  12.223  0.1284 -0.0578  0.1027
29289ION     NA48143   7.884   5.362  10.318 -0.2348 -0.2486  0.1778
29290ION     NA48144   7.180   6.641  10.229  0.1116 -0.2122 -0.1223
29291ION     NA48145  15.861  13.255  14.261 -0.2695 -0.0907  0.0991
29292ION     NA48146   7.333   1.462   5.407  0.0037 -0.2115 -0.4401
29293ION     NA48147   6.520   4.414   5.285  0.3849 -0.3641 -0.2507
29294ION     NA48148  16.975  10.158   4.965  0.4046  0.0724  0.1451
29295ION     NA48149   1.025   0.350  10.168  0.3958 -0.0271  0.3291
29296ION     NA48150   9.675   5.649   3.222 -0.0370  0.2166 -0.0513
29297ION     NA48151  13.933   6.149   5.450 -0.0199  0.3305 -0.2083
29298ION     NA48152   2.523   8.912   2.118 -0.3466  0.0835  0.0799
29299ION     NA48153  16.806   0.885   5.085 -0.2810  0.2895 -0.1738
29300ION     NA48154   6.847  14.446   4.675 -0.0561  0.2351 -0.2937
29301ION     NA48155   5.205   5.526  10.058 -0.1223 -0.0561 -0.0981
29302ION     NA48156   8.705   1.763  10.245  0.2794 -0.1408 -0.1497
29303ION     NA48157   8.794   3.040  10.682  0.0684  0.0392  0.1535
29304ION     NA48158  16.204  15.839   5.429 -0.3427 -0.2105  0.0418
29305ION     NA48159   9.059   9.401   5.028  0.0725  0.3430  0.0607
29306ION     NA48160  15.534  12.451   5.262 -0.1852  0.0601 -0.5475
29307ION     NA48161   8.625  11.353  10.544  0.1260  0.0234  0.1416
29308ION     NA48162  17.653   5.225  10.876  0.0553 -0.0732 -0.1010
29309ION     NA48163   5.149  18.741   5.403  0.2012  0.0602  0.0162
29310ION     NA48164   8.499  15.921   5.025  0.0893  0.0037 -0.0599
29311ION     NA48165   6.142  15.951   2.206 -0.0149 -0.1136 -0.1948
29312ION     NA48166  14.689   0.657  10.409 -0.4489 -0.0413  0.0535
29313ION     NA48167   9.298   6.847  10.200  0.1260 -0.2616  0.0339
29314ION     NA48168   2.927   2.100   1.479 -0.1028 -0.1437  0.0283
29315ION     NA48169  17.014   6.357   4.721 -0.0717 -0.0930 -0.0353
29316ION     NA48170   5.328  12.244  13.296 -0.2491  0.0797  0.1061
29317ION     NA48171   6.458   9.845   1.785 -0.2372  0.0041 -0.1210
29318ION     NA48172   6.947  15.393   9.781 -0.1046  0.0966  0.1219
29319ION     NA48173   9.961  11.036   5.261  0.2696  0.1018  0.0701
29320ION     NA48174   7.689   5.922   5.372 -0.2815  0.0551  0.0652
29321ION     NA48175   2.838  11.674   4.747 -0.1693  0.0637 -0.1223
29322ION     NA48176   4.084   9.905   2.056 -0.0888 -0.3496  0.1240
29323ION     NA48177  17.650  11.161   1.370 -0.2737 -0.0723  0.0044
29324ION     NA48178   8.370   0.951  15.015  0.1003 -0.2464 -0.0923
29325ION     NA48179  14.772   0.068   5.048  0.2896  0.0302 -0.2173
29326ION     NA48180   9.205  15.709  11.184  0.0524  0.0291 -0.0893
29327ION     NA48181  18.245   6.227  10.237 -0.1889  0.1573 -0.1102
29328ION     NA48182   3.081   2.081  11.812  0.0650  0.2709  0.0237
29329ION     NA48183   3.779   8.645  10.022  0.1774 -0.1573  0.0242
29330ION     NA48184   5.011   3.765  11.397  0.0205 -0.1654 -0.2207
29331ION     NA48185  10.409   0.952   2.674  0.1946 -0.0611 -0.2291
29332ION     NA48186  16.380  17.622   5.610 -0.4518  0.0213 -0.4298
29333ION     NA48187  12.794  10.753   3.992 -0.0140  0.2162 -0.0845
29334ION     NA48188   2.791   7.137   0.511 -0.3375  0.1596  0.5475
29335ION     NA48189   9.029   5.805   5.196  0.1950  0.2243 -0.3312
29336ION     NA48190   0.880   9.174   4.866 -0.3208 -0.1830 -0.2395
29337ION     NA48191  15.649   4.041   5.126  0.0178 -0.0137 -0.2169
29338ION     NA48192  10.258  18.773   5.272 -0.1110 -0.3422 -0.1041
29339ION     NA48193  14.346   6.431   3.682  0.0384 -0.2191  0.0170
29340ION     NA48194   5.171  11.048   4.949 -0.2145  0.2454  0.1399
29341ION     NA48195   1.268   7.641  12.107  0.1527 -0.2702 -0.0416
29342ION     NA48196  12.457  16.291   2.819  0.2289 -0.1602 -0.3807
29343ION     NA48197  18.628  16.431   1.729 -0.1515  0.1147 -0.2433
29344ION     NA48198  11.051   8.488   4.920  0.0032 -0.1723 -0.1491
29345ION     NA48199   5.438  12.795  10.344 -0.0721  0.1087  0.1756
29346ION     NA48200  12.102  13.461  15.116 -0.0313 -0.0260  0.3113
29347ION     NA48201  13.015  12.243   5.193 -0.0887 -0.1137 -0.2981
29348ION     NA48202   1.963   7.436  10.096  0.1222  0.1254 -0.3091
29349ION     NA48203   3.715  18.601  10.270 -0.1859 -0.2181  0.0956
29350ION     NA48204   1.457   5.102   5.240 -0.1860  0.0439 -0.1025
29351ION     NA48205  18.783   5.048   0.195  0.1637 -0.0838 -0.2181
29352ION     NA48206   1.729   9.746   9.719  0.0275  0.4327  0.1337
29353ION     NA48207   2.135  12.425   4.870  0.2307  0.0006  0.1797
29354ION     NA48208   9.902  13.103  10.325 -0.1194 -0.2682  0.1931
29355ION     NA48209   6.424   4.421  13.353  0.0270  0.0597  0.2756
29356ION     NA48210  18.193   8.153   0.896 -0.2308 -0.1872  0.1797
29357ION     NA48211   3.802   8.863   4.836  0.0670 -0.1494 -0.3730
29358ION     NA48212  11.414   8.501  14.949 -0.0665 -0.0458  0.1114
29359ION     NA48213   2.140  16.658   9.952  0.3074  0.1498  0.0140
29360ION     NA48214  13.460   4.415   5.851  0.0657 -0.0365 -0.0826
29361ION     NA48215  14.803   3.322  10.067  0.2336 -0.3806  0.0798
29362ION     NA48216   2.937   4.625   5.432  0.0868  0.0019  0.0851
29363ION     NA48217   8.418   2.703  13.942  0.1687 -0.0131 -0.1183
29364ION     NA48218  14.968   1.368   0.354  0.0077  0.0366 -0.2076
29365ION     NA48219   6.479   4.715  10.313  0.3291  0.0975 -0.0019
29366ION     NA48220   8.555   4.494   3.494  0.0753 -0.3125  0.0548
29367ION     NA48221  15.915  14.879   5.428  0.0750 -0.1989 -0.1953
29368ION     NA48222  11.007  12.177  10.068 -0.0461  0.1590 -0.2134
29369ION     NA48223   7.665   5.026   5.219  0.0738 -0.0882 -0.0015
29370ION     NA48224   6.232  16.603   4.868 -0.0950  0.0075 -0.3688
29371ION     NA48225   0.293  13.821   4.964  0.0844  0.0964 -0.0992
29372ION     NA48226  18.175   6.893   4.625  0.0902 -0.1831 -0.1285
29373ION     NA48227  17.510   2.646   9.893  0.0122  0.2053 -0.0836
29374ION     NA48228   7.608   2.329  10.108  0.0228 -0.0066 -0.0363
29375ION     NA48229   5.962   7.922  11.760 -0.1631  0.0888  0.2276
29376ION     NA48230  10.250   0.146   2.286 -0.1907  0.0006  0.1143
29377ION     NA48231  13.344  14.051  14.184 -0.3892  0.1015 -0.1156
29378ION     NA48232  16.017  12.441  12.660  0.1486  0.0783 -0.1755
29379ION     NA48233  18.825  13.634   9.953  0.0969 -0.0477  0.0483
29380ION     NA48234   7.494  10.042   4.998  0.0543 -0.1382 -0.2840
29381ION     NA48235   3.588  16.180   9.542  0.0538 -0.1189  0.1803
29382ION     NA48236  13.349  17.804   0.680  0.2653 -0.0795 -0.0758
29383ION     NA48237  13.342  11.296   5.031 -0.1002  0.4220 -0.1529
29384ION     NA48238  16.600  18.846   5.257  0.3772 -0.1184  0.1056
29385ION     NA48239   3.014   0.391   1.371  0.0447  0.1440 -0.1665
29386ION     NA48240  14.697   3.263   3.278 -0.2049  0.2107 -0.2295
29387ION     NA48241   5.048   2.541   5.342 -0.1158  0.1417  0.0304
29388ION     NA48242  11.787   7.654   4.888 -0.1266  0.1559 -0.1368
29389ION     NA48243   3.496   7.170  10.114  0.1494 -0.0616 -0.0767
29390ION     NA48244  10.258  14.291   9.886 -0.0040  0.0452  0.2823
29391ION     NA48245   8.612   0.004   9.859  0.3577 -0.0032 -0.1828
29392ION     NA48246  10.328  15.917  13.965 -0.2666  0.0531 -0.0868
29393ION     NA48247  17.134   2.500   4.817  0.0229  0.4449 -0.0737
29394ION     NA48248   2.475   7.966   4.859 -0.1419  0.4154  0.1738
29395ION     NA48249   4.728   5.966   5.286  0.1576  0.2538  0.0898
29396ION     NA48250  14.549   3.828   1.434  0.1467  0.1443 -0.1731
29397ION     NA48251   6.957  11.613   5.090  0.0398 -0.2315  0.5344
29398ION     NA48252  13.955  10.113   1.272 -0.1944 -0.1945  0.0666
29399ION     NA48253   1.591  13.642   2.932 -0.0040  0.2572  0.1336
29400ION     NA48254   3.092   5.382   4.676 -0.0111  0.1699 -0.1916
29401ION     NA48255   8.397  17.585   9.916 -0.2157 -0.0397  0.0921
29402ION     NA48256  14.489   5.455  10.344 -0.0915 -0.3361 -0.0137
29403ION     NA48257   2.341   9.709   1.019  0.2032  0.2176  0.0385
29404ION     NA48258   6.129   2.681   4.588 -0.1843 -0.1271  0.2747
29405ION     NA48259  13.155   3.091  12.534 -0.0948 -0.1290 -0.0465
29406ION     NA48260   3.477  15.576  14.387  0.0493 -0.1314 -0.1073
29407ION     NA48261   8.128   6.223  10.274 -0.0252 -0.0582 -0.1080
29408ION     NA48262  16.526   9.270  14.566 -0.1396 -0.1475  0.5660
29409ION     NA48263   7.909  18.130  12.911  0.1412  0.1864 -0.1292
29410ION     NA48264   3.308   8.556  13.690  0.1709 -0.3686  0.2021
29411ION     NA48265   5.676   4.374  13.351  0.0968 -0.2729  0.0433
29412ION     NA48266  15.767   2.394   9.894  0.1369  0.0975 -0.0191
29413ION     NA48267   1.668  10.769   9.586  0.0927  0.2908 -0.0204
29414ION     NA48268  14.675   2.558   5.192  0.0465 -0.1267 -0.0826
29415ION     NA48269   4.120  17.758   5.201 -0.1208 -0.3444 -0.1716
29416ION     NA48270  13.121   0.774  10.097  0.0157  0.2557  0.1640
29417ION     NA48271  12.586  13.032   0.824  0.0121 -0.0726  0.4077
29418ION     NA48272  10.468   3.721  13.561 -0.1050  0.2747 -0.0780
29419ION     NA48273  14.130   8.805   0.344 -0.1123  0.2733  0.1033
29420ION     NA48274   3.029  16.852   9.830  0.3463  0.2891  0.1371
29421ION     NA48275  13.926   0.225  13.656 -0.4308  0.1910 -0.0996
29422ION     NA48276  15.135  16.213   0.675  0.0651 -0.2185 -0.2175
29423ION     NA48277   4.841  16.197   0.151  0.1107 -0.2118 -0.0921
29424ION     NA48278   3.900   4.233  13.163  0.2127  0.0664  0.0008
29425ION     NA48279   7.905  16.317   9.817  0.1034  0.1746  0.2365
29426ION     NA48280   4.133  18.663  13.626 -0.1052 -0.1998  0.1709
29427ION     NA48281   5.815  16.453   3.542 -0.2820  0.0120  0.0752
29428ION     NA48282   2.482   5.483   5.347 -0.3154  0.1439  0.1950
29429ION     NA48283  15.600   8.130   4.319  0.0077  0.2018 -0.0483
29430ION     NA48284  15.218   4.693  10.506 -0.0303  0.1706  0.0128
29431ION     NA48285   9.975  17.024   4.798  0.2966 -0.0542 -0.2095
29432ION     NA48286  15.640   0.924  11.786  0.0875 -0.0670 -0.3092
29433ION     NA48287  15.692  11.322  11.776 -0.1983 -0.0975  0.0243
29434ION     NA48288  15.673  10.772  13.349  0.0136 -0.4516 -0.4129
29435ION     NA48289  14.179  17.598   3.810 -0.3606  0.0014  0.1937
29436ION     NA48290   6.757   2.272  15.048  0.0336 -0.3392  0.2707
29437ION     NA48291  13.181   2.083   3.043  0.2060 -0.1039  0.1198
29438ION     NA48292  16.613  16.644  10.293 -0.1469 -0.1973  0.0140
29439ION     NA48293   5.371   9.982   0.349 -0.0665 -0.3117 -0.0155
29440ION     NA48294  14.093   4.569  13.667 -0.0037 -0.4215  0.3082
29441ION     NA48295  16.875   1.710   4.864 -0.1179 -0.0100  0.0837
29442ION     NA48296  13.832  13.818   1.826 -0.0828  0.1114 -0.0040
29443ION     NA48297   9.846   5.356  11.771  0.0058 -0.0971  0.0063
29444ION     NA48298  12.079  15.992  10.163  0.0218  0.0312 -0.0683
29445ION     NA48299  10.849  10.907   5.001  0.0372 -0.0806  0.0861
29446ION     NA48300   2.697  17.969   0.586 -0.5073 -0.0738 -0.1360
29447ION     NA48301  12.095  13.135   5.252 -0.0387  0.2664  0.0864
29448ION     NA48302   1.095   3.015   1.935 -0.0329 -0.0448 -0.1419
29449ION     NA48303   2.470  13.366   4.808 -0.0317  0.0737 -0.1497
29450ION     NA48304   7.007  11.306   2.237  0.2300  0.0812  0.1064
29451ION     NA48305  13.806   7.401   3.538  0.2241  0.1382 -0.0493
29452ION     NA48306   8.700   2.943   4.531  0.0235  0.0555  0.3889
29453ION     NA48307   5.350   3.580   0.966 -0.1221  0.0065 -0.1043
29454ION     NA48308  15.224  12.693  10.165 -0.1018 -0.0556  0.1471
29455ION     NA48309   2.722   6.124   3.315 -0.0401 -0.0696  0.0386
29456ION     NA48310   0.882   2.514  14.414 -0.2109 -0.3299  0.3068
29457ION     NA48311  11.267   7.036  13.162  0.2363 -0.1831 -0.0772
29458ION     NA48312   3.805  12.319   4.206 -0.1022 -0.1379 -0.0911
29459ION     NA48313   0.626   8.250  13.747  0.2829  0.0225 -0.0465
29460ION     NA48314  18.741   8.358   0.754 -0.0211 -0.4210 -0.1915
29461ION     NA48315  17.409  18.731   4.964 -0.1088  0.1523 -0.0445
29462ION     NA48316  18.130  18.387   5.164 -0.3379  0.0705 -0.1612
29463ION     NA48317   8.464  15.818   9.789 -0.1792  0.0381  0.0398
29464ION     NA48318  18.318   5.875   5.105  0.1394  0.0940  0.2412
29465ION     NA48319  18.327   3.634  12.530 -0.0605  0.0834 -0.0982
29466ION     NA48320   9.862  16.292  11.299 -0.0171  0.1790  0.2107
29467ION     NA48321  13.771  16.315   5.231 -0.0110  0.0581 -0.0160
29468ION     NA48322  12.380   6.002  13.302 -0.0170 -0.0321 -0.1253
29469ION     NA48323  13.990   8.597  12.928 -0.2112 -0.2199  0.4011
29470ION     NA48324  14.566  11.088   5.135 -0.0028  0.1972 -0.1134
29471ION     NA48325   3.024   1.195   5.207  0.2644  0.1789 -0.0467
29472ION     NA48326  16.289   1.844   3.289  0.1190  0.1651 -0.0056
29473ION     NA48327  14.777   9.627   9.966 -0.1619 -0.1359 -0.1515
29474ION     NA48328   4.205   6.566  12.150 -0.1841  0.1454 -0.1050
29475ION     NA48329   9.401   8.654  10.289  0.3035  0.3167 -0.2858
29476ION     NA48330   3.727   0.365   4.378 -0.0008  0.0659  0.0481
29477ION     NA48331  14.823  10.897  10.050 -0.1808  0.0326 -0.0699
29478ION     NA48332  17.619   1.381   4.972 -0.2929 -0.0434  0.0059
29479ION     NA48333  13.055   0.059   2.135  0.1418 -0.0995  0.2946
29480ION     NA48334  15.070  10.079  10.559  0.3111 -0.0576 -0.0521
29481ION     NA48335  11.778  12.449   9.622 -0.1891 -0.1528 -0.1913
29482ION     NA48336   9.086   3.440  14.524  0.1282 -0.1538 -0.1081
29483ION     NA48337  13.539   1.956  10.681 -0.4832 -0.3665 -0.3274
29484ION     NA48338  13.342   2.789   0.896 -0.0419 -0.0647  0.5330
29485ION     NA48339   4.158  13.588   9.882  0.1551 -0.2396 -0.2717
29486ION     NA48340   9.067   6.599   1.353 -0.0792 -0.3032  0.2293
29487ION     NA48341  17.351  17.228  10.260 -0.5393  0.0415  0.3109
29488ION     NA48342  11.907  14.978   3.243 -0.0810 -0.0000 -0.0593
29489ION     NA48343   2.021   5.085  10.108  0.1208 -0.0251  0.2066
29490ION     NA48344  15.347   9.346   5.100  0.1649 -0.1330 -0.3690
29491ION     NA48345  17.534   3.514  10.004  0.1522 -0.0679 -0.1061
29492ION     NA48346  15.744  18.307   5.392  0.0267 -0.0934  0.2377
29493ION     NA48347   0.209   3.169   5.152 -0.1923 -0.2694  0.0361
29494ION     NA48348   7.259  10.793  12.418 -0.1535 -0.2046 -0.0177
29495ION     NA48349  18.217  15.556  14.752 -0.3484  0.0545  0.3082
29496ION     NA48350  18.008   4.764   4.930  0.2519  0.0544 -0.0696
29497ION     NA48351   1.028   2.281   1.533 -0.2629 -0.0773  0.1549
29498ION     NA48352   3.910   3.549  11.643 -0.2188  0.3180 -0.2823
29499ION     NA48353  17.279  14.332  10.569  0.1570 -0.0568 -0.3262
29500ION     NA48354   5.574  18.039  10.282  0.2150  0.1988 -0.1199
29501ION     NA48355  11.817   9.267   5.241  0.0199  0.1757  0.1015
29502ION     NA48356   1.156   0.761  13.070 -0.3371  0.0867 -0.1041
29503ION     NA48357   8.241  14.620   9.927  0.1625  0.2075 -0.0310
29504ION     NA48358   3.719   0.856   2.122 -0.0467  0.0047 -0.2268
29505ION     NA48359  18.244  12.997  10.002 -0.1302  0.0202  0.1709
29506ION     NA48360  15.045   5.329   5.465 -0.0740 -0.4464  0.0806
29507ION     NA48361  18.490   5.123   4.136  0.2303  0.1159  0.2206
29508ION     NA48362   4.276  17.486  12.005  0.3397 -0.0824 -0.0337
29509ION     NA48363  11.028   9.569   4.002  0.1012 -0.2323  0.0516
29510ION     NA48364  14.281   7.805   2.520  0.0352  0.0467 -0.3276
29511ION     NA48365  14.588  15.215   5.334 -0.1256  0.0346 -0.0158
29512ION     NA48366   1.283  17.789   1.685  0.1100 -0.1876  0.0141
29513ION     NA48367   4.227  15.882   4.938  0.0304  0.2651 -0.0785
29514ION     NA48368   4.368  12.119   0.704  0.1220 -0.3356  0.2414
29515ION     NA48369  10.206  14.193   5.406  0.1826  0.0308  0.0809
29516ION     NA48370  10.265  13.328  13.761 -0.1731  0.1913 -0.0863
29517ION     NA48371  13.538  10.966   0.864 -0.1151 -0.0572  0.3788
29518ION     NA48372  11.805  17.678   0.119  0.4205  0.0125 -0.2001
29519ION     NA48373  14.716  13.364  12.452  0.0454  0.2048  0.0702
29520ION     NA48374  18.343  18.330  13.557  0.1136 -0.1503  0.3833
29521ION     NA48375   4.918  12.995   9.963  0.3204  0.0895 -0.0006
29522ION     NA48376   2.396   2.967  12.464  0.0794  0.0650 -0.1379
29523ION     NA48377   4.843   4.025  14.810  0.0253  0.1114  0.0753
29524ION     NA48378   7.648   5.762   2.658  0.1340  0.0412  0.2968
29525ION     NA48379   6.741   6.625   5.152  0.1507 -0.1577 -0.3869
29526ION     NA48380  10.853   8.100   0.460 -0.2324 -0.0535 -0.0482
29527ION     NA48381  10.398   4.102   5.522  0.1625  0.1838  0.4227
29528ION     NA48382  11.889   3.235   5.462  0.0835  0.0369 -0.0289
29529ION     NA48383  12.692   3.898   5.447 -0.0748 -0.0597 -0.0887
29530ION     NA48384  12.090   6.321  10.949  0.0172 -0.0080  0.0235
29531ION     NA48385  17.606  10.824  13.200  0.2845  0.0833 -0.2855
29532ION     NA48386  16.478  11.446   9.955  0.1757 -0.0506 -0.0516
29533ION     NA48387  12.388  18.773   5.163  0.0098 -0.0764 -0.2243
29534ION     NA48388   1.695  17.367  10.069 -0.1733  0.0310  0.0289
29535ION     NA48389   7.753  16.660   5.213  0.0366 -0.2380  0.0931
29536ION     NA48390  13.846  11.940   4.987 -0.0177  0.2455  0.0941
29537ION     NA48391  13.451   4.276   2.681  0.0097  0.0217  0.1588
29538ION     NA48392  10.419   6.819   3.936 -0.2748  0.2613 -0.0878
29539ION     NA48393  13.008  16.610  14.370 -0.1720 -0.0188 -0.1347
29540ION     NA48394  17.948  15.490   3.549 -0.3369 -0.3705  0.0117
29541ION     NA48395   0.877  17.201   5.133 -0.3671 -0.1017  0.0820
29542ION     NA48396  18.421  14.636   0.892 -0.0670  0.0633  0.2756
29543ION     NA48397  12.738   8.970   4.989 -0.0106  0.1077 -0.1945
29544ION     NA48398  18.394  16.893   5.087  0.0275  0.2498  0.1142
29545ION     NA48399   2.531   9.278   9.764 -0.1852  0.1458 -0.0616
29546ION     NA48400   5.410   7.310   3.009  0.0619 -0.0746 -0.0509
29547ION     NA48401  12.205   2.405   0.865  0.0554  0.0815 -0.0032
29548ION     NA48402   1.233   2.747  11.782  0.2448  0.1038  0.1941
29549ION     NA48403  17.082   7.868   5.350 -0.0640 -0.1472 -0.3014
29550ION     NA48404  10.349   0.312  10.238  0.0794  0.0390 -0.0525
29551ION     NA48405   0.543   4.617  13.940  0.0570  0.0638  0.1512
29552ION     NA48406  11.394  17.421  14.369  0.0693 -0.1012  0.1339
29553ION     NA48407  13.637   9.039  13.663  0.1078  0.3473 -0.0341
29554ION     NA48408  10.826   5.615  13.065  0.0547  0.1426  0.1520
29555ION     NA48409   5.314  14.155   9.520 -0.0455  0.1003 -0.0025
29556ION     NA48410   3.886   4.190   0.739 -0.0268  0.0488  0.0099
29557ION     NA48411   5.355  17.843   3.955 -0.2087  0.1894 -0.3923
29558ION     NA48412   0.466   8.752   9.713  0.0768 -0.0645 -0.1318
29559ION     NA48413  13.862   5.001   0.287 -0.0991 -0.2883  0.0162
29560ION     NA48414   0.453   7.217  13.750  0.4880  0.3181  0.0101
29561ION     NA48415   1.644  18.177   5.201 -0.0086 -0.0766 -0.0817
29562ION     NA48416   1.109  13.271   0.826 -0.0440 -0.0410 -0.1878
29563ION     NA48417  17.953   2.161  12.212  0.2858  0.1018 -0.0130
29564ION     NA48418  14.279  14.438  12.706 -0.2882  0.0271 -0.1040
29565ION     NA48419   0.187   7.686  12.427 -0.0234  0.0886  0.0465
29566ION     NA48420  10.291   2.813   5.312  0.0225  0.0044  0.0191
29567ION     NA48421   7.939  15.327   9.683  0.1887  0.0830  0.0513
29568ION     NA48422   6.795   0.537  11.076  0.0794 -0.1227  0.0022
29569ION     NA48423  17.781  10.317   4.579  0.0754 -0.0931  0.1041
29570ION     NA48424   2.170  15.582   5.239 -0.1529  0.2887 -0.1058
29571ION     NA48425  14.435   4.230  10.286  0.2227 -0.2663  0.0501
29572ION     NA48426   7.699   1.513   1.950 -0.1062  0.2174  0.3178
29573ION     NA48427   0.183  11.694  13.677  0.0189  0.2370 -0.0359
29574ION     NA48428  13.479  11.613   9.859  0.0211  0.0100  0.1159
29575ION     NA48429   4.285   7.722   0.894 -0.2488  0.1140  0.0860
29576ION     NA48430   8.723   4.915  10.373  0.2544 -0.2475  0.1855
29577ION     NA48431  10.856  17.930  10.351 -0.1205  0.0874 -0.2546
29578ION     NA48432  11.327   4.018   1.107 -0.0813  0.0148 -0.2463
29579ION     NA48433   7.966   4.639  10.345 -0.1687 -0.1164  0.3626
29580ION     NA48434   1.473   8.272   5.000  0.1755  0.0149  0.1122
29581ION     NA48435   3.022   9.905   4.906 -0.0887 -0.1790  0.0534
29582ION     NA48436  17.020   5.012   4.922  0.2868  0.0154  0.0091
29583ION     NA48437  12.491   2.495   5.441  0.1045 -0.0760 -0.0160
29584ION     NA48438  13.948   1.663  14.192 -0.3024 -0.0203 -0.3550
29585ION     NA48439  16.955  11.937   2.121 -0.1202  0.0561  0.4248
29586ION     NA48440  15.359   5.797  10.120 -0.2091  0.1124  0.1175
29587ION     NA48441  11.049   5.799   1.439  0.0274  0.2127 -0.1697
29588ION     NA48442   7.938  11.266  10.199  0.0849 -0.1506  0.0809
29589ION     NA48443  15.820   1.064   2.158  0.1227 -0.0534 -0.1277
29590ION     NA48444   1.777   2.269  10.267  0.1354  0.0234  0.1181
29591ION     NA48445   3.736   1.572  10.096  0.0468 -0.0581 -0.2957
29592ION     NA48446  16.804  12.323  13.138  0.3355  0.1250 -0.0699
29593ION     NA48447   0.769   7.392   3.539  0.3201 -0.2114  0.0980
29594ION     NA48448  17.734  10.006   9.590 -0.0280 -0.2344  0.0514
29595ION     NA48449   1.301  17.878  10.804  0.0759 -0.0385 -0.1007
29596ION     NA48450  10.989  13.179  10.106 -0.1442 -0.1583 -0.1324
29597ION     NA48451  17.722  18.786  10.077 -0.2602 -0.2100  0.0817
29598ION     NA48452   1.761   4.347   0.284 -0.0014  0.1929  0.2133
29599ION     NA48453  13.940  12.534   0.840  0.0649  0.0019  0.2107
29600ION     NA48454   9.263   7.616   3.187  0.0708 -0.0032  0.0740
29601ION     NA48455  16.118   0.987   0.900 -0.0052 -0.0360 -0.1264
29602ION     NA48456   6.548   8.677   9.878 -0.0246  0.0945 -0.0677
29603ION     NA48457  14.965   1.438   4.800 -0.1384 -0.0490  0.2608
29604ION     NA48458  13.238   3.837  10.288 -0.0771 -0.2765 -0.1155
29605ION     NA48459  14.200  14.416   5.534 -0.0388 -0.0641 -0.2668
29606ION     NA48460  12.388  18.236  10.071 -0.0726 -0.1491  0.1190
29607ION     NA48461   0.224   5.505  10.144  0.1333  0.2656 -0.3210
29608ION     NA48462  16.236  18.853   2.444  0.1111 -0.0605 -0.0351
29609ION     NA48463  16.580   5.701   5.132 -0.0621 -0.0834  0.1066
29610ION     NA48464   4.543   4.981  12.986  0.1935 -0.1265 -0.1150
29611ION     NA48465   8.095  18.234   1.996 -0.0984  0.0903 -0.0703
29612ION     NA48466  15.351  14.440   3.726 -0.2365 -0.1251 -0.2337
29613ION     NA48467   7.418  17.145   9.613 -0.0231 -0.0912 -0.1759
29614ION     NA48468   5.630   1.441   3.619 -0.0132  0.0700  0.1945
29615ION     NA48469  13.044  10.785  14.783  0.1071  0.0126 -0.0645
29616ION     NA48470   5.063   1.936  12.884 -0.1335  0.3378  0.1297
29617ION     NA48471  11.422   9.312   1.795 -0.1450  0.1048  0.0787
29618ION     NA48472  13.550  10.656  13.095  0.0852  0.2216  0.0061
29619ION     NA48473   3.802  13.430   4.653  0.2030 -0.1468 -0.4198
29620ION     NA48474   5.758   0.092  10.426 -0.0689 -0.0185 -0.0179
29621ION     NA48475   0.845  16.867  10.260  0.0287  0.0289 -0.0898
29622ION     NA48476   1.106  12.654   0.161 -0.1859  0.0052 -0.0341
29623ION     NA48477  11.248   2.703   5.324  0.0387  0.0855 -0.0344
29624ION     NA48478   8.071   3.348   5.272  0.0209  0.3571  0.1325
29625ION     NA48479   5.413   6.641   4.577 -0.1213  0.0324 -0.3283
29626ION     NA48480  11.322   4.013   5.362 -0.1641 -0.0448  0.2304
29627ION     NA48481  12.819  12.906   9.745  0.3036 -0.2084 -0.1614
29628ION     NA48482   5.924  17.647   1.018  0.4343  0.1628 -0.1869
29629ION     NA48483  13.678  13.274  12.427  0.1418 -0.0648  0.1222
29630ION     NA48484   0.093  16.579  10.317 -0.2533 -0.0895 -0.0892
29631ION     NA48485  15.122  17.463  12.917  0.0281  0.1980 -0.2731
29632ION     NA48486   9.516   6.875   0.566 -0.1719 -0.2526 -0.1878
29633ION     NA48487  16.297  10.197   2.178  0.2693 -0.0551  0.0312
29634ION     NA48488   6.403  10.039   4.952  0.0678 -0.0207  0.0072
29635ION     NA48489   5.262  14.273   5.029 -0.0905 -0.0944  0.2899
29636ION     NA48490  14.317   9.067   3.818  0.1023 -0.0442 -0.0730
29637ION     NA48491  15.869   9.235   0.970 -0.3393 -0.2746  0.3606
29638ION     NA48492  13.456   3.954   5.701 -0.1984 -0.1031 -0.0723
29639ION     NA48493  11.235  17.332  11.952  0.1723  0.3418 -0.1591
29640ION     NA48494  12.418   9.334  10.012 -0.0510 -0.3797 -0.2124
29641ION     NA48495  14.577   7.989  15.021  0.1668  0.3215 -0.1868
29642ION     NA48496   9.509   2.758   0.925 -0.0446  0.0132 -0.1210
29643ION     NA48497  16.381   7.160   5.092 -0.0419 -0.1257  0.0378
29644ION     NA48498   5.033   9.192  13.477  0.0333  0.0118 -0.2483
29645ION     NA48499  12.314   0.462   5.165  0.1918  0.6227  0.0538
29646ION     NA48500   8.707   1.071   5.430  0.0720  0.2635  0.1364
29647ION     NA48501   1.155   1.537   5.365  0.0878 -0.1300 -0.1248
29648ION     NA48502  14.958   7.509   0.754  0.0062  0.1194 -0.1814
29649ION     NA48503   1.866  14.316   4.892  0.0777 -0.0826 -0.0120
29650ION     NA48504   4.137   0.741   5.301 -0.0816 -0.4013  0.2043
29651ION     NA48505   7.271   4.083   5.203  0.0013  0.0419  0.1868
29652ION     NA48506   2.603   8.037  13.652 -0.1361  0.0379 -0.2590
29653ION     NA48507   7.768  16.859  11.352  0.0289 -0.0900 -0.2137
29654ION     NA48508  16.748  11.189   5.149  0.1833  0.0827  0.0093
29655ION     NA48509   1.360   5.032   0.796  0.1395  0.1548  0.3932
29656ION     NA48510  14.375  17.208  10.339  0.0690 -0.1112  0.0305
29657ION     NA48511  10.762   1.950   2.297 -0.1722  0.1840  0.0004
29658ION     NA48512  13.946   0.620   4.935  0.2229 -0.2753  0.0605
29659ION     NA48513   3.345  10.851   4.694 -0.2323 -0.0238 -0.0627
29660ION     NA48514  10.813  15.563  11.894  0.0065  0.0885 -0.3945
29661ION     NA48515   2.000   2.257   0.097  0.0742  0.1672 -0.0461
29662ION     NA48516  11.829   5.016  10.138  0.0543 -0.1335 -0.0923
29663ION     NA48517  13.118  18.656   9.961  0.2919 -0.2240 -0.0373
29664ION     NA48518   2.795   9.702   3.044  0.3136 -0.2247  0.0983
29665ION     NA48519  10.939  13.344   2.419 -0.1824  0.0478  0.1451
29666ION     NA48520  12.999   7.497  10.107 -0.1101  0.0697  0.2159
29667ION     NA48521  15.002  13.320   5.008 -0.1330  0.0029 -0.0426
29668ION     NA48522  13.265   5.823  10.239 -0.1462 -0.0813  0.3653
29669ION     NA48523  15.698   6.721   9.840  0.0483  0.0200 -0.2927
29670ION     NA48524   8.359  13.696  10.034 -0.1090 -0.2286  0.3338
29671ION     NA48525   9.192  13.016   0.374  0.1302  0.0396  0.1508
29672ION     NA48526  14.398   8.433   1.907  0.4343  0.0455  0.3427
29673ION     NA48527   1.387   8.884   9.688 -0.4058 -0.2016 -0.0776
29674ION     NA48528  14.664  14.221   5.360  0.0881 -0.0435 -0.1003
29675ION     NA48529  15.889  13.047   5.197  0.0618  0.1197 -0.3270
29676ION     NA48530   3.766   9.170   1.694 -0.1308 -0.1406  0.1202
29677ION     NA48531  17.658  12.125  10.003  0.4107 -0.0983 -0.0502
29678ION     NA48532   2.667  14.734   4.831  0.5280  0.1232 -0.0618
29679ION     NA48533  15.922  13.557   2.371 -0.0805  0.0351  0.0946
29680ION     NA48534   3.319  14.072   9.788 -0.1317 -0.1010 -0.1737
29681ION     NA48535   7.442  18.783   9.868 -0.1220 -0.1163 -0.2156
29682ION     NA48536   6.761  18.632   1.236  0.0592 -0.1462  0.2826
29683ION     NA48537  11.694   5.803   5.383  0.2327  0.0081  0.0584
29684ION     NA48538  18.713   4.204   0.352  0.2663 -0.2838  0.2215
29685ION     NA48539   5.634  10.256  12.221 -0.4378 -0.1955 -0.1821
29686ION     NA48540  11.792  16.507   5.258 -0.1568  0.0496  0.1308
29687ION     NA48541  12.600   9.091   0.171 -0.0542 -0.0924 -0.0940
29688ION     NA48542   1.957  14.405   9.633  0.2616  0.0937 -0.1804
29689ION     NA48543  11.856  10.763   9.894 -0.0364 -0.1618 -0.2737
29690ION     NA48544   0.261  10.892  15.020  0.2038  0.0158  0.3838
29691ION     NA48545   7.251  12.032   3.002 -0.2965  0.2763 -0.0411
29692ION     NA48546  11.541  14.439   5.449  0.1592  0.0892  0.0848
29693ION     NA48547  15.642  10.047  10.352 -0.1820 -0.4377  0.2137
29694ION     NA48548   6.432  15.914  10.232 -0.2081  0.0407 -0.2100
29695ION     NA48549  11.931  13.965   2.130  0.3563  0.0549 -0.2957
29696ION     NA48550  15.116   0.993   3.050  0.0242 -0.0627 -0.2083
29697ION     NA48551  11.424   0.855   5.333 -0.1230 -0.1177 -0.0902
29698ION     NA48552   5.107   3.270  12.407  0.0094  0.0267  0.2838
29699ION     NA48553   6.314  10.800   2.627  0.0436  0.1929  0.1332
29700ION     NA48554   6.909   5.574  10.153  0.1867 -0.0981 -0.2177
29701ION     NA48555   4.852  16.393   1.489  0.2349 -0.0246  0.1332
29702ION     NA48556  17.664  13.687  10.453 -0.0414 -0.0495  0.0259
29703ION     NA48557   7.068   9.700  10.034 -0.2718 -0.0378 -0.0797
29704ION     NA48558   3.339   1.909  10.106 -0.4079  0.1693  0.1764
29705ION     NA48559   9.860  16.133   5.124 -0.1404 -0.1567 -0.0907
29706ION     NA48560   0.258  17.916   3.492 -0.1043 -0.3064  0.1251
29707ION     NA48561  10.146   7.137  10.081 -0.0836  0.0962 -0.1454
29708ION     NA48562  17.690  15.602   5.271 -0.1751  0.1599 -0.3198
29709ION     NA48563   4.699  11.181  13.755 -0.2202  0.4472 -0.1140
29710ION     NA48564   1.733   6.152  12.782  0.1498  0.1792  0.1436
29711ION     NA48565  18.315  15.700  10.257  0.0580  0.2492  0.4009
29712ION     NA48566   9.222  11.577   0.782 -0.0202 -0.1464  0.1690
29713ION     NA48567   5.004   6.344  12.152 -0.0219 -0.0125 -0.1298
29714ION     NA48568   7.797   9.033  13.768 -0.0555  0.2083 -0.1181
29715ION     NA48569  14.164  15.537  10.126 -0.2053  0.0803 -0.0002
29716ION     NA48570  12.645   7.314   5.144  0.4802 -0.3634  0.0370
29717ION     NA48571   7.753   8.531   4.439  0.1761  0.3313 -0.1764
29718ION     NA48572   4.210  14.335   1.103  0.0480  0.1410  0.2342
29719ION     NA48573  12.720   1.250   4.848 -0.1574 -0.1392 -0.1344
29720ION     NA48574   1.909   3.171   3.585  0.1772  0.0296  0.2546
29721ION     NA48575  10.824   2.034  10.491  0.2294  0.0709  0.2407
29722ION     NA48576  17.879  11.243   2.758  0.0172  0.1045  0.2315
29723ION     NA48577   0.815  10.116   4.944  0.0804  0.0551  0.0685
29724ION     NA48578   5.626   5.738  15.083 -0.0878  0.0949  0.2620
29725ION     NA48579   7.974  12.054  10.478  0.2213  0.0243  0.0467
29726ION     NA48580  14.855  18.478   0.220 -0.2907 -0.0327 -0.1038
29727ION     NA48581   2.140   8.634  12.998  0.0644 -0.0529 -0.0068
29728ION     NA48582   7.567  17.751   4.893  0.2326 -0.0362 -0.0500
29729ION     NA48583  11.609  14.005  10.032 -0.1904  0.3415 -0.0443
29730ION     NA48584   1.932   4.058   9.973  0.1169  0.0644  0.2081
29731ION     NA48585   0.304  15.394   9.996 -0.1560 -0.0364  0.2989
29732ION     NA48586   8.836  11.428   5.185  0.1852  0.0475 -0.1786
29733ION     NA48587  17.549  14.785  11.726 -0.0250  0.0303 -0.0742
29734ION     NA48588   5.912  13.557   5.227 -0.0336  0.0145  0.0762
29735ION     NA48589   6.420   1.729   5.497  0.3080 -0.2758 -0.2945
29736ION     NA48590  15.528  13.537  11.989  0.3971 -0.0167  0.0166
29737ION     NA48591   4.603  12.569   2.063 -0.3457  0.1782  0.0940
29738ION     NA48592   4.498   9.874   4.430 -0.0054  0.0310 -0.1298
29739ION     NA48593   2.138   1.811   5.167 -0.3452  0.1950 -0.0371
29740ION     NA48594   0.816   8.222  14.605 -0.2288 -0.3840  0.0018
29741ION     NA48595  12.344  13.328   9.920  0.1443 -0.1490 -0.0323
29742ION     NA48596   6.600   4.361   3.503  0.1104  0.0607  0.0327
29743ION     NA48597  11.470   8.338  13.598 -0.1363 -0.1118  0.1198
29744ION     NA48598   7.152   4.240  12.267  0.0692 -0.1915 -0.1444
29745ION     NA48599   0.647  10.692   1.851 -0.0856 -0.0158  0.1272
29746ION     NA48600  17.235   8.826   2.335  0.3068 -0.1855  0.0361
29747ION     NA48601   7.602   6.559  13.106  0.0042 -0.3594 -0.0039
29748ION     NA48602   6.534  12.682  12.122  0.3691  0.0983  0.1547
29749ION     NA48603  10.905   4.959   5.418 -0.1101 -0.0976 -0.0142
29750ION     NA48604   6.955  12.649   4.898  0.1492 -0.3307 -0.2564
29751ION     NA48605   2.863  12.421   4.333  0.3473 -0.1555 -0.0267
29752ION     NA48606   3.040   5.826  14.512 -0.0414 -0.1472 -0.0215
29753ION     NA48607   9.650   9.781  10.278 -0.0295  0.3014 -0.0675
29754ION     NA48608   2.625  17.431  14.937 -0.4068  0.1933  0.2526
29755ION     NA48609  14.255   6.253  10.882  0.2343  0.0162  0.1161
29756ION     NA48610  13.441   4.255  11.777  0.2226  0.0356 -0.0597
29757ION     NA48611  18.675  12.289   4.253 -0.0557 -0.1510  0.1783
29758ION     NA48612   1.333   7.122   1.886 -0.0278  0.2443 -0.0917
29759ION     NA48613   4.644  13.091   1.337 -0.1271 -0.1969 -0.1568
29760ION     NA48614  15.832   1.101   4.986  0.1045 -0.2651 -0.0097
29761ION     NA48615  10.786   4.259  10.688 -0.1615 -0.0430  0.0432
29762ION     NA48616   4.688   8.987   9.979  0.3013 -0.0670 -0.0302
29763ION     NA48617   1.156  11.202   4.537  0.1456  0.1816  0.1499
29764ION     NA48618   0.840   6.422  13.740 -0.1728  0.0258  0.3104
29765ION     NA48619  15.353  10.113   3.285  0.1837  0.2200  0.3909
29766ION     NA48620   2.067  18.316   9.975  0.0451 -0.2202 -0.1259
29767ION     NA48621  14.409  11.766  14.261  0.2851 -0.2198  0.1362
29768ION     NA48622  10.086   2.502  10.215 -0.0944 -0.0839  0.1632
29769ION     NA48623  11.022   0.006   5.212 -0.0891 -0.0400 -0.0857
29770ION     NA48624   3.292  11.038   3.206 -0.0891  0.1063 -0.0446
29771ION     NA48625  10.874   3.462   5.572  0.1159  0.1052  0.3014
29772ION     NA48626  16.997  15.718  10.221 -0.2176  0.1536 -0.0416
29773ION     NA48627   4.882   2.914  10.150  0.0537 -0.0068  0.1885
29774ION     NA48628  13.609  15.815  14.338 -0.3427  0.0108 -0.0129
29775ION     NA48629  11.248  13.719   5.277 -0.0587 -0.2132 -0.1710
29776ION     NA48630   8.180  18.524   3.443 -0.4019 -0.0469 -0.0727
29777ION     NA48631  13.656   8.759   5.216 -0.1543  0.1619 -0.5077
29778ION     NA48632  12.211  11.657   9.604  0.0794 -0.0368  0.1877
29779ION     NA48633   1.962  10.144   0.163  0.3529  0.0636 -0.3434
29780ION     NA48634   6.078  15.710  12.109 -0.2883 -0.0538  0.2823
29781ION     NA48635  15.730   7.029  12.820 -0.0464 -0.0586 -0.0357
29782ION     NA48636  18.293   2.306   0.159 -0.0178  0.0990 -0.1098
29783ION     NA48637  16.252   2.427   1.583 -0.0561 -0.2679  0.2937
29784ION     NA48638   2.132   9.594   4.811 -0.1031  0.1833  0.1864
29785ION     NA48639   0.024  11.376   9.446  0.1116  0.0354 -0.3884
29786ION     NA48640  15.088   1.053   9.891 -0.1538  0.2609 -0.0711
29787ION     NA48641   0.700   0.252   0.451 -0.1297  0.2403 -0.3396
29788ION     NA48642  13.905  13.261  11.059  0.3729 -0.1120  0.0937
29789ION     NA48643  13.539  18.144   4.895 -0.2719 -0.0368  0.0909
29790ION     NA48644  15.297  18.787  10.192  0.0578  0.1249  0.2804
29791ION     NA48645   5.303  10.664   9.836  0.0853 -0.0241  0.0255
29792ION     NA48646   6.115  14.751   9.805 -0.2139  0.1888 -0.0800
29793ION     NA48647  12.399  14.736   2.029 -0.2755  0.1464  0.0051
29794ION     NA48648  14.479   2.068  12.434 -0.0353  0.3330 -0.0730
29795ION     NA48649   5.018  18.047   5.544 -0.1644 -0.1846  0.0515
29796ION     NA48650  11.724   2.159  10.135  0.3808  0.0636  0.0487
29797ION     NA48651  15.169  12.701  13.652 -0.4427 -0.0787 -0.0057
29798ION     NA48652   1.460   6.818   3.734  0.0022  0.0519 -0.1687
29799ION     NA48653   4.168   8.434   0.172 -0.1984  0.5068 -0.3013
29800ION     NA48654  13.320   1.607  10.328  0.1874 -0.0413 -0.2389
29801ION     NA48655   7.595  18.643  14.292  0.0743  0.0034  0.0535
29802ION     NA48656   4.290  10.866   9.735  0.0951 -0.0932  0.2924
29803ION     NA48657  15.096   1.845  10.207 -0.1216 -0.1577 -0.2187
29804ION     NA48658  18.389   8.190  10.133  0.0710  0.0105 -0.1435
29805ION     NA48659   2.086   2.783   1.546 -0.1643  0.1280 -0.1634
29806ION     NA48660   9.845   8.623   1.649 -0.2565  0.0451 -0.0779
29807ION     NA48661   8.699   8.761   0.151  0.1007 -0.5090 -0.0967
29808ION     NA48662  11.510  16.099  14.703 -0.3426  0.3779  0.2660
29809ION     NA48663  12.685  16.626   1.347 -0.1656  0.0276 -0.0633
29810ION     NA48664  13.035  16.918   5.150 -0.3725 -0.1310  0.0005
29811ION     NA48665   8.825   6.363   3.050 -0.1759 -0.0694 -0.1458
29812ION     NA48666   0.754   3.516   4.928  0.1657 -0.0502 -0.2637
29813ION     NA48667   2.103   4.045   5.327  0.1524 -0.2787  0.0174
29814ION     NA48668  15.403  16.619   1.478 -0.0006  0.0108 -0.0803
29815ION     NA48669  16.540   1.473  13.948  0.0305 -0.0070  0.0730
29816ION     NA48670   3.543  14.938  13.040  0.1053  0.0128 -0.1256
29817ION     NA48671  10.843  11.369   3.436 -0.0113 -0.0110  0.0932
29818ION     NA48672   3.742   4.885   3.028 -0.0438  0.3462  0.0869
29819ION     NA48673  12.379   5.647   0.885 -0.2484  0.0530 -0.1684
29820ION     NA48674   9.337   4.911   5.139 -0.0473 -0.1806 -0.3630
29821ION     NA48675  17.791  10.332   2.575  0.0925 -0.0895  0.0723
29822ION     NA48676   9.026  14.600  10.365 -0.2676 -0.0136  0.0450
29823ION     NA48677   6.246   4.249  10.923 -0.0685 -0.2978  0.0718
29824ION     NA48678   7.412   3.079  10.211  0.4274  0.3574 -0.0587
29825ION     NA48679   6.783   7.350   5.344 -0.0791  0.1224  0.0658
29826ION     NA48680   7.300   9.377  12.730 -0.1330 -0.1074  0.2083
29827ION     NA48681  15.530   5.036   5.278 -0.0308 -0.3168  0.1262
29828ION     NA48682   7.713   3.944  10.266 -0.2420  0.1994  0.1057
29829ION     NA48683   9.910   3.735   5.499  0.0602 -0.1616 -0.0594
29830ION     NA48684   5.409  11.652   4.928  0.1277  0.0382 -0.0192
29831ION     NA48685  11.690   7.353   9.957  0.3223  0.4852  0.1141
29832ION     NA48686  17.723   6.807   9.765 -0.1614 -0.1279  0.3363
29833ION     NA48687  12.385   3.786  10.492  0.0751  0.4292 -0.1197
29834ION     NA48688  15.654   5.926   5.259  0.2354  0.1694  0.0893
29835ION     NA48689   4.086  18.765   5.272  0.3050 -0.2190 -0.0908
29836ION     NA48690  16.039  12.171  10.150 -0.3508 -0.0283 -0.1855
29837ION     NA48691  12.321  15.619  14.987 -0.3519  0.1220  0.2133
29838ION     NA48692   0.621   2.183   5.143  0.1724 -0.1384 -0.0451
29839ION     NA48693  13.121   6.515   0.640  0.2824  0.2501 -0.0158
29840ION     NA48694  10.803   6.874   0.946  0.0877 -0.2554 -0.0018
29841ION     NA48695  10.612   9.965  10.335  0.0914  0.0271  0.1694
29842ION     NA48696   6.065  15.348   9.687 -0.2259 -0.1004 -0.0023
29843ION     NA48697  10.332  18.008   5.290  0.1198  0.1487  0.0424
29844ION     NA48698  16.820   0.310   9.868  0.0723  0.2256 -0.1956
29845ION     NA48699   4.504   7.998  14.193  0.1851  0.0977  0.2903
29846ION     NA48700  14.897  17.331   2.108  0.1024  0.2021  0.0393
29847ION     NA48701  16.309   3.523  10.528 -0.1888  0.0146  0.0478
29848ION     NA48702   5.239   2.479   1.378 -0.2883 -0.1598  0.3169
29849ION     NA48703   5.343   4.923  10.842  0.0609  0.3732  0.0148
29850ION     NA48704  10.389  11.703   5.104 -0.0612  0.1884 -0.2382
29851ION     NA48705   0.968  10.091   9.636  0.2462  0.2006 -0.1410
29852ION     NA48706   4.795  13.483   4.828  0.0507  0.3389  0.2513
29853ION     NA48707  12.735  16.821  10.057 -0.2076  0.0019  0.0236
29854ION     NA48708   1.675  12.984   4.837  0.0082  0.0125  0.1660
29855ION     NA48709  12.081   3.134  13.903  0.2569 -0.1589 -0.0190
29856ION     NA48710   0.018   7.448   9.796  0.3146  0.1389  0.2719
29857ION     NA48711  15.742  17.218   0.912 -0.1301  0.1488 -0.1649
29858ION     NA48712   5.005   8.085   9.672 -0.3658  0.2441 -0.2172
29859ION     NA48713  14.997  10.659   4.975 -0.0987 -0.0372 -0.0176
29860ION     NA48714  12.466   5.929  10.082 -0.0257  0.0616  0.4206
29861ION     NA48715   5.932  12.998   9.819  0.0409  0.1364  0.2093
29862ION     NA48716   9.228  13.508  14.107 -0.3620 -0.0331 -0.2903
29863ION     NA48717   3.098   2.086  13.177 -0.0999  0.0508  0.0130
29864ION     NA48718   0.593   0.912  11.827  0.1436 -0.1490  0.2203
29865ION     NA48719  14.137  12.855   5.252 -0.0805  0.0003  0.3842
29866ION     NA48720  17.056  14.725   3.371  0.0989  0.0625 -0.0985
29867ION     NA48721   9.169   3.151   2.109 -0.2453 -0.4739  0.2799
29868ION     NA48722  14.585   1.153   5.003 -0.2200 -0.1225 -0.2783
29869ION     NA48723   8.341  11.261  13.690  0.3281  0.0858  0.1288
29870ION     NA48724   9.582   8.721   5.054 -0.1357  0.0854  0.0245
29871ION     NA48725  18.783  17.698   5.130  0.0438 -0.2024 -0.2378
29872ION     NA48726  11.033   6.878   0.016 -0.0478 -0.1864  0.0025
29873ION     NA48727  12.657   9.436   5.213 -0.2966 -0.2112 -0.1265
29874ION     NA48728   5.201  12.667   4.787  0.1316 -0.1280 -0.0889
29875ION     NA48729  15.256  16.985  10.359 -0.3331 -0.2032 -0.1136
29876ION     NA48730  13.790   7.054   9.968 -0.1760  0.2552 -0.0280
29877ION     NA48731   4.474   1.983  10.237  0.0555 -0.3090 -0.1847
29878ION     NA48732   4.843  11.589   9.929 -0.0149  0.0597  0.4010
29879ION     NA48733  16.091  14.104   2.980  0.0495  0.0231  0.3003
29880ION     NA48734   1.327  18.651  10.134  0.3910 -0.1344  0.3394
29881ION     NA48735   5.144   3.231   2.378 -0.1665 -0.0847  0.1944
29882ION     NA48736   7.487   2.144   3.749  0.0979 -0.2824 -0.1845
29883ION     NA48737   4.458   6.859   0.116 -0.2931 -0.1373  0.0933
29884ION     NA48738   6.226  14.020   1.274 -0.0180  0.0457  0.3343
29885ION     NA48739  11.408   5.378  14.884  0.0691  0.2758  0.0107
29886ION     NA48740   1.650  13.812   9.927 -0.2023  0.2777 -0.2417
29887ION     NA48741  12.377   1.465  10.275 -0.0482 -0.2679 -0.1279
29888ION     NA48742   5.937   8.753  13.455 -0.1622 -0.0636  0.2027
29889ION     NA48743  16.822   7.707  11.768  0.1640 -0.3247 -0.2738
29890ION     NA48744   8.170   2.152  13.244  0.0855  0.2865 -0.1233
29891ION     NA48745  12.649  17.439  14.535 -0.1373 -0.1160 -0.3135
29892ION     NA48746  10.829  15.159   9.736  0.1639  0.0173 -0.0593
29893ION     NA48747   0.368   4.016   1.625  0.0034  0.0440 -0.0722
29894ION     NA48748  11.970   1.678   5.293 -0.0307  0.1478 -0.2725
29895ION     NA48749  12.667   4.765   5.662  0.1336 -0.3186 -0.1332
29896ION     NA48750   8.456   7.083  10.255 -0.0479 -0.1733  0.1083
29897ION     NA48751  17.472  13.762  12.560  0.1684 -0.1003  0.1042
29898ION     NA48752   4.573  17.455  10.211 -0.3893  0.0611 -0.1445
29899ION     NA48753   6.056   3.156   1.571 -0.1657 -0.0134  0.1921
29900ION     NA48754   1.628  10.677  13.584 -0.0085  0.0622 -0.3760
29901ION     NA48755   4.864   1.020   0.506 -0.0642  0.1928  0.2845
29902ION     NA48756  14.196  12.370  12.809 -0.0244  0.0382 -0.2054
29903ION     NA48757   6.177  11.024   4.991  0.2831  0.0773  0.0380
29904ION     NA48758   3.883  11.682   9.923  0.1219  0.0293  0.0468
29905ION     NA48759   5.014  15.029  10.055  0.0021  0.2484  0.0242
29906ION     NA48760  15.585   7.675   5.359  0.3644 -0.1934 -0.1132
29907ION     NA48761   5.857   7.865   5.284  0.3790 -0.0733 -0.0025
29908ION     NA48762   2.026  10.349   3.699  0.0232  0.0970  0.1435
29909ION     NA48763  10.243  15.060   5.272 -0.2159  0.0460 -0.2777
29910ION     NA48764   3.253  16.614   4.026 -0.4076 -0.0150 -0.0504
29911ION     NA48765  13.045  11.940   3.893 -0.0905 -0.2622 -0.3766
29912ION     NA48766  17.517   8.920  13.008 -0.0804  0.2189 -0.2319
29913ION     NA48767  15.033   3.986   5.243  0.1052  0.2501 -0.1708
29914ION     NA48768  14.306   1.508   9.976 -0.2010  0.1439 -0.0384
29915ION     NA48769  10.377   3.021  12.112  0.0011 -0.2372 -0.0698
29916ION     NA48770   3.203   1.189  10.756  0.2468 -0.1765 -0.2472
29917ION     NA48771  12.575  10.335   5.175 -0.1316  0.0740 -0.2351
29918ION     NA48772   6.015   3.308  10.377 -0.1570  0.0413  0.3131
29919ION     NA48773  14.178  12.224  10.135 -0.5100  0.1297  0.1208
29920ION     NA48774  11.775   9.843   3.441 -0.2164  0.1294 -0.1876
29921ION     NA48775   7.276  15.883  14.774  0.0081  0.0278  0.0574
29922ION     NA48776   7.977  13.473  13.883 -0.1317  0.2679 -0.1786
29923ION     NA48777   0.894   6.917  11.850 -0.0703  0.0158 -0.1614
29924ION     NA48778  16.160   8.793   4.837  0.2511 -0.1513  0.0040
29925ION     NA48779   1.754   3.274   2.526  0.1189  0.0910 -0.0769
29926ION     NA48780  18.541   9.159   3.517  0.0141  0.0797  0.0092
29927ION     NA48781   6.889  13.091   3.130 -0.2846  0.0060 -0.0337
29928ION     NA48782   4.269   5.142   5.560  0.1978  0.1301  0.1145
29929ION     NA48783   4.988  18.360  11.220  0.1116  0.0787 -0.2008
29930ION     NA48784  14.569   6.580   5.389 -0.1858  0.1686  0.0322
29931ION     NA48785   0.357  13.201   0.517 -0.1492  0.1327 -0.1067
29932ION     NA48786   3.968  10.066   4.964 -0.1012  0.0663 -0.0583
29933ION     NA48787  18.735  10.431   1.587  0.2608  0.0442 -0.0757
29934ION     NA48788   5.167  16.232   5.076 -0.4085 -0.2727  0.0455
29935ION     NA48789   2.086  10.958   4.826 -0.0202  0.0457  0.2331
29936ION     NA48790  13.240   0.133   4.911 -0.1215 -0.0801 -0.0478
29937ION     NA48791   5.411   2.641   0.603 -0.3933  0.0884 -0.0385
29938ION     NA48792   6.761  17.374   5.152 -0.0869  0.3642 -0.2628
29939ION     NA48793   0.157  18.485  10.376  0.1367 -0.2308 -0.0220
29940ION     NA48794  15.814   2.315   4.364 -0.0192  0.0525 -0.0241
29941ION     NA48795  15.986  12.342   4.082 -0.0893  0.0726  0.3529
29942ION     NA48796   8.523   8.102   5.291  0.4464 -0.0471 -0.1820
29943ION     NA48797  16.388  10.403  10.062 -0.1931 -0.1576  0.0438
29944ION     NA48798  10.816  16.451   5.018 -0.0870  0.0521 -0.2402
29945ION     NA48799   5.853   5.248  12.034 -0.2176 -0.2817  0.0389
29946ION     NA48800   6.443   7.476   4.686 -0.0515 -0.0386 -0.3392
29947ION     NA48801   6.678   2.572  10.993  0.1933 -0.0585  0.3829
29948ION     NA48802   8.035  10.406   9.913 -0.1013  0.0299 -0.4932
29949ION     NA48803  16.860  12.018   5.229  0.0555 -0.0475  0.0499
29950ION     NA48804  17.158  16.448  12.796  0.1651  0.2771 -0.1278
29951ION     NA48805   6.812   1.915  10.011  0.1295 -0.0675 -0.2719
29952ION     NA48806   9.126  16.523  10.657  0.0169  0.4245 -0.3187
29953ION     NA48807  16.211   7.829  14.137 -0.0385 -0.0793  0.2962
29954ION     NA48808   8.119   0.777  10.264 -0.0886 -0.1167 -0.0528
29955ION     NA48809   2.923   1.896  14.597 -0.0732 -0.0474  0.3541
29956ION     NA48810   8.035   1.890   5.607 -0.1857 -0.0352 -0.0778
29957ION     NA48811  18.024   1.769   4.807 -0.5393 -0.0573 -0.2439
29958ION     NA48812  17.059   4.636  10.087  0.2826  0.2108  0.0371
29959ION     NA48813   9.305   0.078   4.848 -0.1598  0.1511  0.3080
29960ION     NA48814  14.077   7.885  10.419  0.0570 -0.1088 -0.0868
29961ION     NA48815   5.904   1.053   5.522 -0.2196  0.3242 -0.3788
29962ION     NA48816   6.147   4.107   2.202  0.0509 -0.1076  0.1449
29963ION     NA48817   9.403   2.240   2.990 -0.0551  0.0534  0.0513
29964ION     NA48818  16.716   8.585  11.931 -0.1043  0.0670 -0.4640
29965ION     NA48819   4.039  17.213  14.843 -0.0287  0.1045 -0.0113
29966ION     NA48820  11.160   6.730   2.386  0.0021  0.2873  0.1461
29967ION     NA48821  15.291   0.232  12.280 -0.0309 -0.0071 -0.0584
29968ION     NA48822   7.686   7.872  10.086  0.3899 -0.1911  0.1336
29969ION     NA48823  16.470   3.592   5.134 -0.1533 -0.0881  0.1838
29970ION     NA48824   6.701   8.250  10.214 -0.3571  0.1876  0.2670
29971ION     NA48825  17.202   3.686   4.689  0.0880 -0.2973 -0.0701
29972ION     NA48826   6.213   3.471   5.570 -0.1388  0.0844  0.2325
29973ION     NA48827  13.794  18.343   3.140 -0.0295  0.1030 -0.0918
29974ION     NA48828  15.983  11.607   5.131 -0.0718 -0.1864  0.0451
29975ION     NA48829  18.337  18.537   1.262 -0.0095 -0.1189 -0.4305
29976ION     NA48830   1.980  15.829  13.010  0.3670  0.1969  0.3850
29977ION     NA48831   2.772   1.168  12.394 -0.0528  0.0678 -0.0609
29978ION     NA48832  16.056   6.056   4.601  0.0787  0.2852  0.0236
29979ION     NA48833  16.169  18.563   9.969 -0.1144 -0.0491 -0.2935
29980ION     NA48834   8.771   0.335  13.273  0.1885  0.1977  0.0555
29981ION     NA48835   7.643  14.004  10.352 -0.0289 -0.5179  0.0880
29982ION     NA48836   2.892  16.133   1.745  0.0954  0.5320  0.1713
29983ION     NA48837  11.623  18.442   1.237 -0.2337 -0.0129  0.0714
29984ION     NA48838  14.829  16.732   4.364 -0.0456 -0.1053  0.0379
29985ION     NA48839  12.120   6.613   5.332  0.0544  0.1105  0.3542
29986ION     NA48840   9.677   7.767  10.270 -0.4126  0.2499  0.0762
29987ION     NA48841  16.134   6.943  13.828 -0.1370  0.0920  0.1993
29988ION     NA48842  13.516  10.536   5.142  0.0059  0.3543 -0.0837
29989ION     NA48843   0.029  16.181   0.920  0.1196  0.0040  0.1235
29990ION     NA48844   5.015   0.375  10.331 -0.0056 -0.1471 -0.1144
29991ION     NA48845  14.738  10.585   2.197  0.0480 -0.1669 -0.0420
29992ION     NA48846   2.957  10.205   1.366 -0.1962  0.0978  0.2367
29993ION     NA48847   8.426  13.649   1.021  0.3989 -0.0417  0.0901
29994ION     NA48848  13.361  13.981   9.825 -0.0361 -0.0161 -0.3959
29995ION     NA48849  11.651   9.996  10.168  0.0499 -0.2402  0.2630
29996ION     NA48850   4.883   4.374   4.009 -0.2809  0.3187  0.2155
29997ION     NA48851  17.052   8.721   5.004  0.1907 -0.1030 -0.0886
29998ION     NA48852  18.545  15.531  11.979  0.2143 -0.1822 -0.1040
29999ION     NA48853   0.172  12.871   1.511  0.1925  0.2734  0.0020
30000ION     NA48854  12.455   2.633  12.421  0.1049 -0.1647  0.0551
30001ION     NA48855   1.516  15.082   4.986 -0.3553 -0.0063 -0.1233
30002ION     NA48856   5.949   1.917  10.258 -0.0775  0.1159  0.3382
30003ION     NA48857  18.369   7.035   0.462  0.0983  0.3852 -0.1819
30004ION     NA48858   6.523   8.657   5.216  0.0382  0.0007 -0.1561
30005ION     NA48859  14.415  13.943  10.036  0.0370  0.0224 -0.0231
30006ION     NA48860   1.492  18.386  12.656 -0.1501 -0.1250 -0.0634
30007ION     NA48861   8.309   9.868   5.046 -0.0643 -0.2100  0.2873
30008ION     NA48862  12.646   5.905   5.564  0.1682 -0.0545  0.0060
30009ION     NA48863  15.534  16.462   5.246  0.1648 -0.2959 -0.2330
30010ION     NA48864   7.575   0.978  12.932 -0.0384  0.0960  0.0955
30011ION     NA48865   9.592  11.459  10.194 -0.1821 -0.1273 -0.0424
30012ION     NA48866   3.180   9.475   0.622 -0.0306  0.4256 -0.2430
30013ION     NA48867   3.864   1.657   5.459  0.0451 -0.2945  0.0856
30014ION     NA48868   8.401   6.541   5.174 -0.0236 -0.4901 -0.2666
30015ION     NA48869   6.042  17.381  11.278 -0.2044  0.1304 -0.1416
30016ION     NA48870  10.783   5.593   4.398 -0.1711 -0.0110 -0.0131
30017ION     NA48871   2.073   3.665   0.795  0.1795  0.3116  0.0884
30018ION     NA48872   9.201   2.614  10.375 -0.2139  0.1604  0.2093
30019ION     NA48873   2.853   1.058  10.393 -0.0040  0.0201  0.0559
30020ION     NA48874  13.669   2.995   5.414  0.0614 -0.1922  0.0090
30021ION     NA48875   6.963   4.562  14.602 -0.2161  0.0679  0.1157
30022ION     NA48876   6.182  12.152  10.143  0.1898 -0.1447  0.2120
30023ION     NA48877   5.310  15.273   5.108  0.1526  0.0617 -0.0987
30024ION     NA48878  10.732  16.067   9.719  0.1386  0.1418 -0.0673
30025ION     NA48879   1.229   1.773  14.934 -0.1277 -0.1111 -0.1730
30026ION     NA48880   3.536   8.797  11.508 -0.2580  0.3934 -0.0158
30027ION     NA48881   9.616   4.556  12.679  0.0948  0.0209  0.4455
30028ION     NA48882  18.083  16.755   2.263  0.1105 -0.3103  0.1908
30029ION     NA48883  15.137  13.336   2.991  0.0550  0.1581  0.1960
30030ION     NA48884   6.259  13.806   9.748  0.3273 -0.1304  0.0401
30031ION     NA48885  13.270   1.927  11.944  0.0716 -0.1725  0.1347
30032ION     NA48886   4.987  15.007  13.263 -0.0569 -0.1629 -0.1268
30033ION     NA48887  13.801   9.652  10.144 -0.1174  0.2098  0.0537
30034ION     NA48888   2.989   3.973   5.170  0.2573 -0.0174 -0.1993
30035ION     NA48889  15.215   8.421  11.085  0.0360 -0.0197 -0.1755
30036ION     NA48890  10.413   4.246  14.427 -0.1656 -0.0004 -0.1890
30037ION     NA48891  17.067  15.887   4.175  0.1299  0.5044  0.2258
30038ION     NA48892  17.312  11.312  10.064  0.0303 -0.1252  0.1699
30039ION     NA48893   8.910   8.701  11.839 -0.0255 -0.0101 -0.3135
30040ION     NA48894   6.309  18.153   5.376 -0.1743 -0.0413 -0.0246
30041ION     NA48895  11.253  17.708   5.361  0.0679  0.0560  0.3230
30042ION     NA48896   7.035   5.614  14.090  0.0907  0.1612 -0.2537
30043ION     NA48897   3.763  15.345   9.767  0.1717 -0.0549  0.2994
30044ION     NA48898   8.455   3.799  10.562 -0.1865 -0.0598 -0.2187
30045ION     NA48899   2.855   6.650  14.846 -0.0610  0.1220 -0.2201
30046ION     NA48900   3.235  18.509   3.286 -0.0563  0.0350 -0.1650
30047ION     NA48901  14.785  13.541   9.918 -0.2392  0.4669  0.0353
30048ION     NA48902  18.003   1.829   9.919  0.1429 -0.3545 -0.0116
30049ION     NA48903   2.475   6.535   4.162  0.1101 -0.0817 -0.0618
30050ION     NA48904   0.948  17.043  13.799  0.0633  0.1446  0.1623
30051ION     NA48905   6.113  11.503  11.912  0.1086 -0.0924 -0.0081
30052ION     NA48906   5.267   2.461  13.600  0.0976 -0.1629 -0.0897
30053ION     NA48907   8.358   4.680   0.625 -0.0233 -0.2623 -0.1107
30054ION     NA48908   4.775   9.036   4.808  0.0954 -0.0356 -0.1770
30055ION     NA48909  10.323   9.663   0.844 -0.0962  0.1372 -0.2058
30056ION     NA48910   4.158   2.644   5.584  0.0091  0.1301  0.1410
30057ION     NA48911   1.496   3.235   5.110  0.4677  0.1472 -0.0524
30058ION     NA48912  12.105  17.884  11.081  0.0067  0.0072  0.0553
30059ION     NA48913   5.959  14.877   4.862  0.2016  0.2834  0.2024
30060ION     NA48914   2.951  15.196  12.298  0.1103  0.1858  0.1191
30061ION     NA48915   4.065   7.857   9.965  0.1832 -0.3902  0.0941
30062ION     NA48916  10.635  16.099   4.032  0.1665 -0.2215  0.0738
30063ION     NA48917  17.914   0.761   4.661 -0.0710  0.1650  0.1383
30064ION     NA48918  16.198   9.858   4.090 -0.3318  0.0407 -0.1609
30065ION     NA48919   6.730   1.117   9.881 -0.2176 -0.1270  0.0531
30066ION     NA48920   1.747  16.428  10.234 -0.0484 -0.0617 -0.0733
30067ION     NA48921  14.008   5.347  11.494  0.3784  0.0156  0.0239
30068ION     NA48922  11.275   5.441  11.477  0.0681  0.0736 -0.1063
30069ION     NA48923   4.271   3.820  10.466  0.1379  0.0513  0.3878
30070ION     NA48924   9.577   2.020   5.521  0.4436 -0.1941  0.2134
30071ION     NA48925  17.490   2.860  14.819 -0.0603 -0.0717 -0.0497
30072ION     NA48926  14.913  14.056  13.786  0.1589 -0.1497  0.1246
30073ION     NA48927  10.539  10.205   5.390 -0.3647  0.5198  0.0776
30074ION     NA48928   4.073  17.514   2.746 -0.0572 -0.2926 -0.0062
30075ION     NA48929  11.347  14.295   3.978  0.0609 -0.0680  0.1429
30076ION     NA48930  15.496  17.794  14.988  0.4509 -0.2162 -0.2324
30077ION     NA48931   4.004   0.336  14.405 -0.0347  0.1508  0.2245
30078ION     NA48932  12.513  11.745   5.074  0.0635 -0.1369 -0.0121
30079ION     NA48933   7.492  18.092   3.060 -0.1597 -0.0160  0.1451
30080ION     NA48934  17.779  15.089  10.595  0.1664  0.0788  0.3018
30081ION     NA48935  16.252  11.603  14.356 -0.3610  0.2179  0.0488
30082ION     NA48936  13.692   4.175  14.835 -0.2799 -0.0560  0.0102
30083ION     NA48937  11.094  14.623   5.311 -0.1405  0.0987 -0.1196
30084ION     NA48938   1.075   1.327   1.726  0.2950  0.0485  0.1783
30085ION     NA48939  14.289  11.435   4.589  0.0636 -0.2514  0.0384
30086ION     NA48940   2.543   1.928  10.363 -0.4631  0.2573  0.0032
30087ION     NA48941  14.562  16.497  10.435 -0.2610  0.2674  0.0740
30088ION     NA48942   2.997   0.098  10.640  0.3199 -0.2270  0.2853
30089ION     NA48943   8.647   6.968  13.317  0.1524  0.2160  0.1719
30090ION     NA48944   3.471   3.217   3.990 -0.0393  0.3910  0.1031
30091ION     NA48945   3.672   4.282  14.497  0.0073 -0.1215  0.2064
30092ION     NA48946   3.558  12.167  10.577  0.1187  0.0290  0.3605
30093ION     NA48947  17.209  16.125   0.347 -0.0025  0.2195 -0.2964
30094ION     NA48948  11.014   7.689  10.231 -0.1576  0.1072 -0.0328
30095ION     NA48949  10.370   5.700   5.169 -0.2397  0.0317  0.2367
30096ION     NA48950  10.569  11.341  10.225 -0.0013  0.0101  0.0444
30097ION     NA48951   6.197   5.820   5.215 -0.3005 -0.1228 -0.1059
30098ION     NA48952   8.439  15.231   4.843  0.3256  0.2749 -0.1006
30099ION     NA48953  17.006  15.335  14.256  0.1933  0.0174 -0.1323
30100ION     NA48954   9.389  10.747  10.606 -0.0028 -0.2633 -0.2234
30101ION     NA48955  12.618   6.995  14.921 -0.1989  0.2040  0.1160
30102ION     NA48956   5.543   6.547  10.113 -0.2784 -0.1052 -0.1101
30103ION     NA48957   5.316  17.093  10.106 -0.0996  0.1485  0.3561
30104ION     NA48958   6.933  13.566   5.301 -0.0552  0.0433  0.0559
30105ION     NA48959  11.696   6.504  10.201  0.0951 -0.0637 -0.0497
30106ION     NA48960  17.882  13.782   4.990 -0.0716  0.4704  0.0680
30107ION     NA48961  17.829   5.875   0.230  0.3737  0.0224  0.2901
30108ION     NA48962  16.157   2.522   5.074 -0.0959  0.0642  0.1815
30109ION     NA48963  10.305   8.141   5.380  0.1153  0.2457 -0.0730
30110ION     NA48964  18.320   0.244   5.175 -0.1451  0.0251  0.0587
30111ION     NA48965  15.122  15.159   5.310 -0.1973 -0.2802 -0.0727
30112ION     NA48966   8.614   5.575   5.259  0.3624  0.2703  0.3178
30113ION     NA48967  14.878   6.345  10.160 -0.1754 -0.0822 -0.2506
30114ION     NA48968   0.556  15.553   4.631 -0.0659  0.0306 -0.0984
30115ION     NA48969  14.713  18.053   5.350  0.0830 -0.1371  0.1362
30116ION     NA48970   8.721   9.596   1.820  0.0905 -0.1124 -0.0287
30117ION     NA48971   2.313   0.544   5.215 -0.4003  0.1486 -0.1382
30118ION     NA48972  13.298   4.029  14.533  0.0715 -0.2216 -0.0130
30119ION     NA48973  10.465   5.960  10.177 -0.0720  0.1986 -0.2896
30120ION     NA48974  18.191   3.583   4.844 -0.2965 -0.2071  0.2861
30121ION     NA48975   5.667   4.147  10.154  0.1257 -0.2097 -0.1345
30122ION     NA48976   4.202   4.822   4.290  0.3759  0.0237  0.0941
30123ION     NA48977   6.584  18.799  10.347 -0.3620  0.4139 -0.0297
30124ION     NA48978  16.300  16.782   5.536  0.0737 -0.0095  0.0583
30125ION     NA48979  13.777   8.069   5.041 -0.1661  0.0310 -0.1327
30126ION     NA48980  10.228   0.834  10.170  0.3947  0.1847  0.3247
30127ION     NA48981   4.620   0.004  10.138  0.1603  0.1804 -0.1116
30128ION     NA48982   1.110   5.418   9.901  0.1959 -0.1417 -0.0280
30129ION     NA48983   1.107   7.886   9.916 -0.1193  0.1235 -0.2114
30130ION     NA48984   8.670   0.854   2.001 -0.1532 -0.2336  0.2261
30131ION     NA48985   0.487   8.136   4.774 -0.0894  0.0359 -0.0372
30132ION     NA48986  13.008   4.946   1.572 -0.1779 -0.1059 -0.1150
30133ION     NA48987  18.540   5.285   3.314 -0.0514  0.4352  0.2504
30134ION     NA48988   1.133   5.700   3.695  0.3445  0.0694 -0.0090
30135ION     NA48989  18.730   1.585  10.014 -0.0609  0.0112 -0.1037
30136ION     NA48990   5.437   5.298   1.623 -0.0095  0.0020 -0.1726
30137ION     NA48991   4.490  16.482  13.398 -0.1757 -0.2548  0.2865
30138ION     NA48992  13.876   1.590   5.069  0.0044 -0.0588  0.0304
30139ION     NA48993  16.108  16.076  14.286  0.2816  0.0803  0.0884
30140ION     NA48994   5.180   4.903   5.393 -0.0988  0.0338 -0.0539
30141ION     NA48995  13.761  13.795  13.140 -0.4318 -0.0793 -0.0778
30142ION     NA48996   2.985   1.999   5.276 -0.4426 -0.0029  0.0942
30143ION     NA48997   2.299   2.772   5.284  0.3931  0.2966 -0.0999
30144ION     NA48998   1.635   3.490   4.687  0.0157  0.0652  0.0668
30145ION     NA48999   2.440  13.154   9.867 -0.0064  0.2103 -0.1509
30146ION     NA49000  17.883  10.136   5.224 -0.0931  0.0001  0.0320
30147ION     NA49001   7.219   9.627   4.932  0.0418 -0.1183 -0.2581
30148ION     NA49002  15.438   0.135  14.684  0.0695 -0.2135  0.0570
30149ION     NA49003   8.952   3.924   5.155  0.0359  0.0350  0.1050
30150ION     NA49004  11.609  11.978   5.041 -0.2080 -0.0769  0.0912
30151ION     NA49005   8.925   9.342   3.270  0.1954 -0.2155 -0.0151
30152ION     NA49006  16.732   0.093  14.074  0.0731  0.1035  0.0088
30153ION     NA49007   9.057  18.760  13.726  0.2669  0.0211  0.0300
30154ION     NA49008   2.563  15.051  13.133 -0.0474 -0.3362 -0.1279
30155ION     NA49009   6.149   1.813  12.041 -0.1886 -0.0297 -0.0826
30156ION     NA49010  12.377  13.949   5.254  0.1856 -0.0598  0.0437
30157ION     NA49011   3.755  17.197  10.033  0.0755  0.0249  0.0466
30158ION     NA49012  15.902   2.328  12.088  0.0328  0.1294 -0.4705
30159ION     NA49013  10.464   6.021   0.995  0.1063 -0.0267 -0.0054
30160ION     NA49014  16.159  13.874   3.773  0.2259  0.0035  0.2963
30161ION     NA49015   6.580   7.339  12.334 -0.0380 -0.0181 -0.0604
30162ION     NA49016   5.181   8.516   2.241  0.2566 -0.1697  0.1654
30163ION     NA49017  13.440  10.653  10.077 -0.0378  0.1757 -0.2631
30164ION     NA49018   7.877  11.884   4.367  0.1492  0.1173  0.1474
30165ION     NA49019   3.450   9.360   9.889 -0.0436  0.2795  0.4196
  18.85885  18.85885  15.12576
